
     Program PWSCF v.7.0 starts on  6Mar2023 at 11:30: 0 

     This program is part of the open-source Quantum ESPRESSO suite
     for quantum simulation of materials; please cite
         "P. Giannozzi et al., J. Phys.:Condens. Matter 21 395502 (2009);
         "P. Giannozzi et al., J. Phys.:Condens. Matter 29 465901 (2017);
         "P. Giannozzi et al., J. Chem. Phys. 152 154105 (2020);
          URL http://www.quantum-espresso.org", 
     in publications or presentations arising from this work. More details at
     http://www.quantum-espresso.org/quote

     Parallel version (MPI & OpenMP), running on      32 processor cores
     Number of MPI processes:                32
     Threads/MPI process:                     1

     MPI processes distributed on     1 nodes
     R & G space division:  proc/nbgrp/npool/nimage =      32
     166303 MiB available memory on the printing compute node when the environment starts
 
     Reading input from espresso_4448.pwi
Warning: card &CELL ignored
Warning: card / ignored

     Current dimensions of program PWSCF are:
     Max number of different atomic species (ntypx) = 10
     Max number of k-points (npk) =  40000
     Max angular momentum in pseudopotentials (lmaxx) =  4

     gamma-point specific algorithms are used
     Message from routine setup:
     using ibrav=0 with symmetry is DISCOURAGED, use correct ibrav instead

     Subspace diagonalization in iterative solution of the eigenvalue problem:
     one sub-group per band group will be used
     scalapack distributed-memory algorithm (size of sub-group:  5*  5 procs)

 
     Parallelization info
     --------------------
     sticks:   dense  smooth     PW     G-vecs:    dense   smooth      PW
     Min          42      20      4                 1694      592      64
     Max          44      22      6                 1704      610      86
     Sum        1381     675    165                54379    19225    2381
 
     Using Slab Decomposition
 


     bravais-lattice index     =            0
     lattice parameter (alat)  =       6.7626  a.u.
     unit-cell volume          =     866.9687 (a.u.)^3
     number of atoms/cell      =            8
     number of atomic types    =            2
     number of electrons       =       116.00
     number of Kohn-Sham states=           70
     kinetic-energy cutoff     =      30.0000  Ry
     charge density cutoff     =     240.0000  Ry
     scf convergence threshold =      1.0E-06
     mixing beta               =       0.7000
     number of iterations used =            8  plain     mixing
     Exchange-correlation= SLA  PW   PBE  PBE
                           (   1   4   3   4   0   0   0)

     celldm(1)=   6.762644  celldm(2)=   0.000000  celldm(3)=   0.000000
     celldm(4)=   0.000000  celldm(5)=   0.000000  celldm(6)=   0.000000

     crystal axes: (cart. coord. in units of alat)
               a(1) = (   1.000000   0.000000   0.000000 )  
               a(2) = (   0.000000   1.572737   0.000000 )  
               a(3) = (   0.000000   0.000000   1.782370 )  

     reciprocal axes: (cart. coord. in units 2 pi/alat)
               b(1) = (  1.000000  0.000000  0.000000 )  
               b(2) = (  0.000000  0.635834  0.000000 )  
               b(3) = (  0.000000  0.000000  0.561051 )  


     PseudoPot. # 1 for Ge read from file:
     /home/pragov/projects/rrg-bengioy-ad/pragov/crystal_structure_design/SSSP/ge_pbe_v1.4.uspp.F.UPF
     MD5 check sum: 9c9eaa91e581c3f09632fb3098b2c6b2
     Pseudo is Ultrasoft + core correction, Zval = 14.0
     Generated by new atomic code, or converted to UPF format
     Using radial grid of  873 points,  6 beta functions with: 
                l(1) =   0
                l(2) =   0
                l(3) =   1
                l(4) =   1
                l(5) =   2
                l(6) =   2
     Q(r) pseudized with  8 coefficients,  rinner =    1.400   1.400   1.400
                                                       1.400   1.400

     PseudoPot. # 2 for Ir read from file:
     /home/pragov/projects/rrg-bengioy-ad/pragov/crystal_structure_design/SSSP/Ir_pbe_v1.2.uspp.F.UPF
     MD5 check sum: 8836f839c3459d2b385c504ce6d91f2c
     Pseudo is Ultrasoft + core correction, Zval = 15.0
     Generated by new atomic code, or converted to UPF format
     Using radial grid of  983 points,  7 beta functions with: 
                l(1) =   0
                l(2) =   0
                l(3) =   1
                l(4) =   1
                l(5) =   1
                l(6) =   2
                l(7) =   2
     Q(r) pseudized with  8 coefficients,  rinner =    1.400   1.400   1.400
                                                       1.400   1.400

     atomic species   valence    mass     pseudopotential
        Ge            14.00    72.63000     Ge( 1.00)
        Ir            15.00   192.21700     Ir( 1.00)

      8 Sym. Ops., with inversion, found ( 6 have fractional translation)


                                    s                        frac. trans.

      isym =  1     identity                                     

 cryst.   s( 1) = (     1          0          0      )
                  (     0          1          0      )
                  (     0          0          1      )

 cart.    s( 1) = (  1.0000000  0.0000000  0.0000000 )
                  (  0.0000000  1.0000000  0.0000000 )
                  (  0.0000000  0.0000000  1.0000000 )


      isym =  2     180 deg rotation - cart. axis [0,0,1]        

 cryst.   s( 2) = (    -1          0          0      )    f =(  0.0000000 )
                  (     0         -1          0      )       (  0.5000000 )
                  (     0          0          1      )       (  0.5000000 )

 cart.    s( 2) = ( -1.0000000  0.0000000  0.0000000 )    f =(  0.0000000 )
                  (  0.0000000 -1.0000000  0.0000000 )       (  0.7863685 )
                  (  0.0000000  0.0000000  1.0000000 )       (  0.8911848 )


      isym =  3     180 deg rotation - cart. axis [0,1,0]        

 cryst.   s( 3) = (    -1          0          0      )    f =(  0.5000000 )
                  (     0          1          0      )       (  0.5000000 )
                  (     0          0         -1      )       (  0.5000000 )

 cart.    s( 3) = ( -1.0000000  0.0000000  0.0000000 )    f =(  0.5000000 )
                  (  0.0000000  1.0000000  0.0000000 )       (  0.7863685 )
                  (  0.0000000  0.0000000 -1.0000000 )       (  0.8911848 )


      isym =  4     180 deg rotation - cart. axis [1,0,0]        

 cryst.   s( 4) = (     1          0          0      )    f =(  0.5000000 )
                  (     0         -1          0      )       (  0.0000000 )
                  (     0          0         -1      )       (  0.0000000 )

 cart.    s( 4) = (  1.0000000  0.0000000  0.0000000 )    f =(  0.5000000 )
                  (  0.0000000 -1.0000000  0.0000000 )       (  0.0000000 )
                  (  0.0000000  0.0000000 -1.0000000 )       (  0.0000000 )


      isym =  5     inversion                                    

 cryst.   s( 5) = (    -1          0          0      )
                  (     0         -1          0      )
                  (     0          0         -1      )

 cart.    s( 5) = ( -1.0000000  0.0000000  0.0000000 )
                  (  0.0000000 -1.0000000  0.0000000 )
                  (  0.0000000  0.0000000 -1.0000000 )


      isym =  6     inv. 180 deg rotation - cart. axis [0,0,1]   

 cryst.   s( 6) = (     1          0          0      )    f =(  0.0000000 )
                  (     0          1          0      )       (  0.5000000 )
                  (     0          0         -1      )       (  0.5000000 )

 cart.    s( 6) = (  1.0000000  0.0000000  0.0000000 )    f =(  0.0000000 )
                  (  0.0000000  1.0000000  0.0000000 )       (  0.7863685 )
                  (  0.0000000  0.0000000 -1.0000000 )       (  0.8911848 )


      isym =  7     inv. 180 deg rotation - cart. axis [0,1,0]   

 cryst.   s( 7) = (     1          0          0      )    f =(  0.5000000 )
                  (     0         -1          0      )       (  0.5000000 )
                  (     0          0          1      )       (  0.5000000 )

 cart.    s( 7) = (  1.0000000  0.0000000  0.0000000 )    f =(  0.5000000 )
                  (  0.0000000 -1.0000000  0.0000000 )       (  0.7863685 )
                  (  0.0000000  0.0000000  1.0000000 )       (  0.8911848 )


      isym =  8     inv. 180 deg rotation - cart. axis [1,0,0]   

 cryst.   s( 8) = (    -1          0          0      )    f =(  0.5000000 )
                  (     0          1          0      )       (  0.0000000 )
                  (     0          0          1      )       (  0.0000000 )

 cart.    s( 8) = ( -1.0000000  0.0000000  0.0000000 )    f =(  0.5000000 )
                  (  0.0000000  1.0000000  0.0000000 )       (  0.0000000 )
                  (  0.0000000  0.0000000  1.0000000 )       (  0.0000000 )


   Cartesian axes

     site n.     atom                  positions (alat units)
         1           Ge  tau(   1) = (   0.7500000   1.2687207   1.0269265  )
         2           Ge  tau(   2) = (   0.2500000   0.3040164   0.7554431  )
         3           Ge  tau(   3) = (   0.7500000   0.4823522   1.6466279  )
         4           Ge  tau(   4) = (   0.2500000   1.0903849   0.1357417  )
         5           Ir  tau(   5) = (   0.7500000   1.5681226   0.3720554  )
         6           Ir  tau(   6) = (   0.2500000   0.0046144   1.4103142  )
         7           Ir  tau(   7) = (   0.7500000   0.7817541   0.5191294  )
         8           Ir  tau(   8) = (   0.2500000   0.7909829   1.2632402  )

   Crystallographic axes

     site n.     atom                  positions (cryst. coord.)
         1           Ge  tau(   1) = (  0.7500000  0.8066960  0.5761580  )
         2           Ge  tau(   2) = (  0.2500000  0.1933040  0.4238420  )
         3           Ge  tau(   3) = (  0.7500000  0.3066960  0.9238420  )
         4           Ge  tau(   4) = (  0.2500000  0.6933040  0.0761580  )
         5           Ir  tau(   5) = (  0.7500000  0.9970660  0.2087420  )
         6           Ir  tau(   6) = (  0.2500000  0.0029340  0.7912580  )
         7           Ir  tau(   7) = (  0.7500000  0.4970660  0.2912580  )
         8           Ir  tau(   8) = (  0.2500000  0.5029340  0.7087420  )

     number of k points=     1  Methfessel-Paxton smearing, width (Ry)=  0.0010
                       cart. coord. in units 2pi/alat
        k(    1) = (   0.0000000   0.0000000   0.0000000), wk =   2.0000000

                       cryst. coord.
        k(    1) = (   0.0000000   0.0000000   0.0000000), wk =   2.0000000

     Dense  grid:    27190 G-vectors     FFT dimensions: (  36,  54,  60)

     Smooth grid:     9613 G-vectors     FFT dimensions: (  24,  40,  48)

     Dynamical RAM for                 wfc:       0.04 MB

     Dynamical RAM for     wfc (w. buffer):       0.04 MB

     Dynamical RAM for           str. fact:       0.03 MB

     Dynamical RAM for           local pot:       0.00 MB

     Dynamical RAM for          nlocal pot:       0.09 MB

     Dynamical RAM for                qrad:       3.32 MB

     Dynamical RAM for          rho,v,vnew:       0.13 MB

     Dynamical RAM for               rhoin:       0.04 MB

     Dynamical RAM for            rho*nmix:       0.21 MB

     Dynamical RAM for           G-vectors:       0.05 MB

     Dynamical RAM for          h,s,v(r/c):       0.02 MB

     Dynamical RAM for          <psi|beta>:       0.08 MB

     Dynamical RAM for                 psi:       0.08 MB

     Dynamical RAM for                hpsi:       0.08 MB

     Dynamical RAM for                spsi:       0.08 MB

     Dynamical RAM for      wfcinit/wfcrot:       0.26 MB

     Dynamical RAM for           addusdens:       3.25 MB

     Dynamical RAM for          addusforce:       3.36 MB

     Dynamical RAM for         addusstress:       3.39 MB

     Estimated static dynamical RAM per process >       3.88 MB

     Estimated max dynamical RAM per process >       7.48 MB

     Estimated total dynamical RAM >     239.40 MB

     Initial potential from superposition of free atoms

     starting charge     113.9964, renormalised to     116.0000

     negative rho (up, down):  1.483E+00 0.000E+00
     Starting wfcs are   84 randomized atomic wfcs

     total cpu time spent up to now is        0.9 secs

     Self-consistent Calculation

     iteration #  1     ecut=    30.00 Ry     beta= 0.70
     Davidson diagonalization with overlap

---- Real-time Memory Report at c_bands before calling an iterative solver
           132 MiB given to the printing process from OS
             0 MiB allocation reported by mallinfo(arena+hblkhd)
        165591 MiB available memory on the node where the printing process lives
------------------
     ethr =  1.00E-02,  avg # of iterations =  2.0

     negative rho (up, down):  1.263E+00 0.000E+00

     total cpu time spent up to now is        1.0 secs

     total energy              =   -1580.69825166 Ry
     estimated scf accuracy    <       2.68383827 Ry

     iteration #  2     ecut=    30.00 Ry     beta= 0.70
     Davidson diagonalization with overlap

---- Real-time Memory Report at c_bands before calling an iterative solver
           143 MiB given to the printing process from OS
             0 MiB allocation reported by mallinfo(arena+hblkhd)
        165334 MiB available memory on the node where the printing process lives
------------------
     ethr =  2.31E-03,  avg # of iterations =  3.0

     negative rho (up, down):  1.333E+00 0.000E+00

     total cpu time spent up to now is        1.1 secs

     total energy              =   -1581.04700167 Ry
     estimated scf accuracy    <       3.42517722 Ry

     iteration #  3     ecut=    30.00 Ry     beta= 0.70
     Davidson diagonalization with overlap

---- Real-time Memory Report at c_bands before calling an iterative solver
           144 MiB given to the printing process from OS
             0 MiB allocation reported by mallinfo(arena+hblkhd)
        165326 MiB available memory on the node where the printing process lives
------------------
     ethr =  2.31E-03,  avg # of iterations =  2.0

     negative rho (up, down):  1.313E+00 0.000E+00

     total cpu time spent up to now is        1.1 secs

     total energy              =   -1581.71141964 Ry
     estimated scf accuracy    <       0.26982443 Ry

     iteration #  4     ecut=    30.00 Ry     beta= 0.70
     Davidson diagonalization with overlap

---- Real-time Memory Report at c_bands before calling an iterative solver
           145 MiB given to the printing process from OS
             0 MiB allocation reported by mallinfo(arena+hblkhd)
        165326 MiB available memory on the node where the printing process lives
------------------
     ethr =  2.33E-04,  avg # of iterations =  2.0

     negative rho (up, down):  1.313E+00 0.000E+00

     total cpu time spent up to now is        1.2 secs

     total energy              =   -1581.74887620 Ry
     estimated scf accuracy    <       0.06751709 Ry

     iteration #  5     ecut=    30.00 Ry     beta= 0.70
     Davidson diagonalization with overlap

---- Real-time Memory Report at c_bands before calling an iterative solver
           146 MiB given to the printing process from OS
             0 MiB allocation reported by mallinfo(arena+hblkhd)
        165326 MiB available memory on the node where the printing process lives
------------------
     ethr =  5.82E-05,  avg # of iterations =  1.0

     negative rho (up, down):  1.307E+00 0.000E+00

     total cpu time spent up to now is        1.2 secs

     total energy              =   -1581.75018801 Ry
     estimated scf accuracy    <       0.04704289 Ry

     iteration #  6     ecut=    30.00 Ry     beta= 0.70
     Davidson diagonalization with overlap

---- Real-time Memory Report at c_bands before calling an iterative solver
           147 MiB given to the printing process from OS
             0 MiB allocation reported by mallinfo(arena+hblkhd)
        165320 MiB available memory on the node where the printing process lives
------------------
     ethr =  4.06E-05,  avg # of iterations =  1.0

     negative rho (up, down):  1.307E+00 0.000E+00

     total cpu time spent up to now is        1.3 secs

     total energy              =   -1581.75229650 Ry
     estimated scf accuracy    <       0.04854330 Ry

     iteration #  7     ecut=    30.00 Ry     beta= 0.70
     Davidson diagonalization with overlap

---- Real-time Memory Report at c_bands before calling an iterative solver
           147 MiB given to the printing process from OS
             0 MiB allocation reported by mallinfo(arena+hblkhd)
        165320 MiB available memory on the node where the printing process lives
------------------
     ethr =  4.06E-05,  avg # of iterations =  1.0

     negative rho (up, down):  1.307E+00 0.000E+00

     total cpu time spent up to now is        1.3 secs

     total energy              =   -1581.75347566 Ry
     estimated scf accuracy    <       0.01568118 Ry

     iteration #  8     ecut=    30.00 Ry     beta= 0.70
     Davidson diagonalization with overlap

---- Real-time Memory Report at c_bands before calling an iterative solver
           147 MiB given to the printing process from OS
             0 MiB allocation reported by mallinfo(arena+hblkhd)
        165320 MiB available memory on the node where the printing process lives
------------------
     ethr =  1.35E-05,  avg # of iterations =  1.0

     negative rho (up, down):  1.307E+00 0.000E+00

     total cpu time spent up to now is        1.4 secs

     total energy              =   -1581.75436435 Ry
     estimated scf accuracy    <       0.01501081 Ry

     iteration #  9     ecut=    30.00 Ry     beta= 0.70
     Davidson diagonalization with overlap

---- Real-time Memory Report at c_bands before calling an iterative solver
           148 MiB given to the printing process from OS
             0 MiB allocation reported by mallinfo(arena+hblkhd)
        165320 MiB available memory on the node where the printing process lives
------------------
     ethr =  1.29E-05,  avg # of iterations =  1.0

     negative rho (up, down):  1.307E+00 0.000E+00

     total cpu time spent up to now is        1.4 secs

     total energy              =   -1581.75420340 Ry
     estimated scf accuracy    <       0.00615862 Ry

     iteration # 10     ecut=    30.00 Ry     beta= 0.70
     Davidson diagonalization with overlap

---- Real-time Memory Report at c_bands before calling an iterative solver
           148 MiB given to the printing process from OS
             0 MiB allocation reported by mallinfo(arena+hblkhd)
        165320 MiB available memory on the node where the printing process lives
------------------
     ethr =  5.31E-06,  avg # of iterations =  1.0

     negative rho (up, down):  1.307E+00 0.000E+00

     total cpu time spent up to now is        1.4 secs

     total energy              =   -1581.75430139 Ry
     estimated scf accuracy    <       0.00004444 Ry

     iteration # 11     ecut=    30.00 Ry     beta= 0.70
     Davidson diagonalization with overlap

---- Real-time Memory Report at c_bands before calling an iterative solver
           149 MiB given to the printing process from OS
             0 MiB allocation reported by mallinfo(arena+hblkhd)
        165320 MiB available memory on the node where the printing process lives
------------------
     ethr =  3.83E-08,  avg # of iterations =  4.0

     negative rho (up, down):  1.307E+00 0.000E+00

     total cpu time spent up to now is        1.5 secs

     total energy              =   -1581.75428632 Ry
     estimated scf accuracy    <       0.00039103 Ry

     iteration # 12     ecut=    30.00 Ry     beta= 0.70
     Davidson diagonalization with overlap

---- Real-time Memory Report at c_bands before calling an iterative solver
           149 MiB given to the printing process from OS
             0 MiB allocation reported by mallinfo(arena+hblkhd)
        165320 MiB available memory on the node where the printing process lives
------------------
     ethr =  3.83E-08,  avg # of iterations =  1.0

     negative rho (up, down):  1.307E+00 0.000E+00

     total cpu time spent up to now is        1.5 secs

     total energy              =   -1581.75431069 Ry
     estimated scf accuracy    <       0.00048804 Ry

     iteration # 13     ecut=    30.00 Ry     beta= 0.70
     Davidson diagonalization with overlap

---- Real-time Memory Report at c_bands before calling an iterative solver
           149 MiB given to the printing process from OS
             0 MiB allocation reported by mallinfo(arena+hblkhd)
        165320 MiB available memory on the node where the printing process lives
------------------
     ethr =  3.83E-08,  avg # of iterations =  1.0

     negative rho (up, down):  1.307E+00 0.000E+00

     total cpu time spent up to now is        1.6 secs

     total energy              =   -1581.75430314 Ry
     estimated scf accuracy    <       0.00024316 Ry

     iteration # 14     ecut=    30.00 Ry     beta= 0.70
     Davidson diagonalization with overlap

---- Real-time Memory Report at c_bands before calling an iterative solver
           149 MiB given to the printing process from OS
             0 MiB allocation reported by mallinfo(arena+hblkhd)
        165320 MiB available memory on the node where the printing process lives
------------------
     ethr =  3.83E-08,  avg # of iterations =  1.0

     negative rho (up, down):  1.307E+00 0.000E+00

     total cpu time spent up to now is        1.6 secs

     End of self-consistent calculation

          k = 0.0000 0.0000 0.0000 (  1191 PWs)   bands (ev):

   -31.9087 -31.9015 -31.6651 -31.6609 -31.3160 -31.2917 -31.2672 -31.2462
   -31.2100 -31.1927 -31.1849 -31.1667  -7.9856  -7.9824  -7.9781  -7.9682
    -7.9509  -7.9432  -7.9354  -7.9337  -7.9321  -7.9290  -7.9269  -7.9240
    -7.9218  -7.9184  -7.9086  -7.9082  -7.9036  -7.9033  -7.9013  -7.8964
     4.3703   7.1885   7.4555   8.7394   9.9525  10.5886  12.3646  12.5596
    12.6181  12.6244  12.6294  12.6795  13.5921  13.9192  14.2519  14.4683
    14.9363  15.1722  15.2215  15.2594  15.5580  15.8926  15.9700  16.1365
    16.3568  16.7439  16.7442  18.2187  19.6383  19.6628  20.5736  20.9267
    21.1744  22.1867  22.5184  23.1284  23.5759  24.3449

     occupation numbers 
     1.0000   1.0000   1.0000   1.0000   1.0000   1.0000   1.0000   1.0000
     1.0000   1.0000   1.0000   1.0000   1.0000   1.0000   1.0000   1.0000
     1.0000   1.0000   1.0000   1.0000   1.0000   1.0000   1.0000   1.0000
     1.0000   1.0000   1.0000   1.0000   1.0000   1.0000   1.0000   1.0000
     1.0000   1.0000   1.0000   1.0000   1.0000   1.0000   1.0000   1.0000
     1.0000   1.0000   1.0000   1.0000   1.0000   1.0000   1.0000   1.0000
     1.0000   1.0000   1.0000   1.0000   1.0000   1.0000   1.0000   1.0000
     1.0000   0.5091   0.4909  -0.0000  -0.0000  -0.0000  -0.0000  -0.0000
    -0.0000  -0.0000  -0.0000  -0.0000  -0.0000  -0.0000

     the Fermi energy is    16.7441 ev

!    total energy              =   -1581.75430715 Ry
     estimated scf accuracy    <       0.00000083 Ry
     smearing contrib. (-TS)   =      -0.00056399 Ry
     internal energy E=F+TS    =   -1581.75374315 Ry

     The total energy is F=E-TS. E is the sum of the following terms:
     one-electron contribution =    -517.57866476 Ry
     hartree contribution      =     369.88449640 Ry
     xc contribution           =    -435.46803915 Ry
     ewald contribution        =    -998.59153565 Ry

     convergence has been achieved in  14 iterations

     negative rho (up, down):  1.307E+00 0.000E+00

     Forces acting on atoms (cartesian axes, Ry/au):

     atom    1 type  1   force =     0.00000000    0.01201349    0.01344552
     atom    2 type  1   force =     0.00000000   -0.01201349   -0.01344552
     atom    3 type  1   force =     0.00000000    0.01201349   -0.01344552
     atom    4 type  1   force =     0.00000000   -0.01201349    0.01344552
     atom    5 type  2   force =     0.00000000    0.01331342   -0.02829039
     atom    6 type  2   force =     0.00000000   -0.01331342    0.02829039
     atom    7 type  2   force =     0.00000000    0.01331342    0.02829039
     atom    8 type  2   force =     0.00000000   -0.01331342   -0.02829039
     The non-local contrib.  to forces
     atom    1 type  1   force =     0.00000000    0.01605722   -0.22392589
     atom    2 type  1   force =     0.00000000   -0.01605722    0.22392589
     atom    3 type  1   force =     0.00000000    0.01605722    0.22392589
     atom    4 type  1   force =     0.00000000   -0.01605722   -0.22392589
     atom    5 type  2   force =     0.00000000   -0.00684866   -0.03261449
     atom    6 type  2   force =     0.00000000    0.00684866    0.03261449
     atom    7 type  2   force =    -0.00000000   -0.00684866    0.03261449
     atom    8 type  2   force =     0.00000000    0.00684866   -0.03261449
     The ionic contribution  to forces
     atom    1 type  1   force =     0.00000000    0.02071502    0.29097584
     atom    2 type  1   force =     0.00000000   -0.02071502   -0.29097584
     atom    3 type  1   force =     0.00000000    0.02071502   -0.29097584
     atom    4 type  1   force =     0.00000000   -0.02071502    0.29097584
     atom    5 type  2   force =     0.00000000   -0.88013365   -3.44083502
     atom    6 type  2   force =    -0.00000000    0.88013365    3.44083502
     atom    7 type  2   force =     0.00000000   -0.88013365    3.44083502
     atom    8 type  2   force =     0.00000000    0.88013365   -3.44083502
     The local contribution  to forces
     atom    1 type  1   force =     0.00003310   -0.02282966   -0.05653795
     atom    2 type  1   force =    -0.00004296    0.02288159    0.05664567
     atom    3 type  1   force =    -0.00002961   -0.02329495    0.05664375
     atom    4 type  1   force =     0.00003612    0.02335707   -0.05670706
     atom    5 type  2   force =     0.00000497    0.89146819    3.48023514
     atom    6 type  2   force =    -0.00000426   -0.89157977   -3.48024176
     atom    7 type  2   force =    -0.00000633    0.89149619   -3.48047818
     atom    8 type  2   force =     0.00000527   -0.89149474    3.48031786
     The core correction contribution to forces
     atom    1 type  1   force =     0.00000077   -0.00104390    0.00262181
     atom    2 type  1   force =    -0.00000102    0.00104433   -0.00262213
     atom    3 type  1   force =    -0.00000074   -0.00104250   -0.00262211
     atom    4 type  1   force =     0.00000090    0.00104267    0.00262292
     atom    5 type  2   force =     0.00000021    0.00878654   -0.03488563
     atom    6 type  2   force =     0.00000137   -0.00878405    0.03488452
     atom    7 type  2   force =     0.00000020    0.00878730    0.03489215
     atom    8 type  2   force =    -0.00000094   -0.00878457   -0.03489129
     The Hubbard contrib.    to forces
     atom    1 type  1   force =     0.00000000    0.00000000    0.00000000
     atom    2 type  1   force =     0.00000000    0.00000000    0.00000000
     atom    3 type  1   force =     0.00000000    0.00000000    0.00000000
     atom    4 type  1   force =     0.00000000    0.00000000    0.00000000
     atom    5 type  2   force =     0.00000000    0.00000000    0.00000000
     atom    6 type  2   force =     0.00000000    0.00000000    0.00000000
     atom    7 type  2   force =     0.00000000    0.00000000    0.00000000
     atom    8 type  2   force =     0.00000000    0.00000000    0.00000000
     The SCF correction term to forces
     atom    1 type  1   force =    -0.00002373   -0.00092463    0.00031685
     atom    2 type  1   force =     0.00003465    0.00086967   -0.00041541
     atom    3 type  1   force =     0.00001437   -0.00038708   -0.00041550
     atom    4 type  1   force =    -0.00002727    0.00031693    0.00047997
     atom    5 type  2   force =    -0.00000828    0.00003818   -0.00019732
     atom    6 type  2   force =     0.00000230    0.00007016    0.00019918
     atom    7 type  2   force =     0.00000553    0.00001814    0.00042300
     atom    8 type  2   force =    -0.00000368   -0.00001538   -0.00026335

     Total force =     0.072186     Total SCF correction =     0.001695


     Computing stress (Cartesian axis) and pressure


     negative rho (up, down):  1.307E+00 0.000E+00
          total   stress  (Ry/bohr**3)                   (kbar)     P=     -137.73
  -0.00158716   0.00000000   0.00000000         -233.48        0.00        0.00
   0.00000000  -0.00189704   0.00000000            0.00     -279.06        0.00
   0.00000000   0.00000000   0.00067545            0.00        0.00       99.36

     kinetic stress (kbar)  28652.68      0.00      0.00
                                0.00  27740.41      0.00
                                0.00      0.00  28724.16

     local   stress (kbar)  21392.04     -0.00     -0.02
                               -0.00  11817.64      0.01
                               -0.02      0.01  16226.26

     nonloc. stress (kbar)   4198.61      0.00      0.00
                                0.00   3875.26      0.00
                                0.00      0.00   4386.89

     hartree stress (kbar)  19139.79      0.00      0.03
                                0.00  22671.72     -0.01
                                0.03     -0.01  20949.56

     exc-cor stress (kbar)  30458.51      0.00      0.00
                                0.00  30451.02     -0.00
                                0.00     -0.00  30465.30

     corecor stress (kbar) -44052.94      0.00      0.00
                                0.00 -44024.47      0.00
                                0.00      0.00 -44047.12

     ewald   stress (kbar) -60022.17     -0.00     -0.00
                               -0.00 -52810.64      0.00
                               -0.00      0.00 -56605.70

     hubbard stress (kbar)      0.00      0.00      0.00
                                0.00      0.00      0.00
                                0.00      0.00      0.00

     DFT-D   stress (kbar)      0.00      0.00      0.00
                                0.00      0.00      0.00
                                0.00      0.00      0.00

     XDM     stress (kbar)      0.00      0.00      0.00
                                0.00      0.00      0.00
                                0.00      0.00      0.00

     dft-nl  stress (kbar)      0.00      0.00      0.00
                                0.00      0.00      0.00
                                0.00      0.00      0.00

     TS-vdW  stress (kbar)      0.00      0.00      0.00
                                0.00      0.00      0.00
                                0.00      0.00      0.00


                                0.00      0.00      0.00
                                0.00      0.00      0.00


                                0.00      0.00      0.00


     Writing all to output data dir calculations/myprefix.save/
 
     init_run     :      0.62s CPU      0.67s WALL (       1 calls)
     electrons    :      0.65s CPU      0.70s WALL (       1 calls)
     forces       :      0.03s CPU      0.03s WALL (       1 calls)
     stress       :      0.09s CPU      0.09s WALL (       1 calls)

     Called by init_run:
     wfcinit      :      0.02s CPU      0.03s WALL (       1 calls)
     wfcinit:atom :      0.00s CPU      0.00s WALL (       1 calls)
     wfcinit:wfcr :      0.02s CPU      0.03s WALL (       1 calls)
     potinit      :      0.28s CPU      0.28s WALL (       1 calls)
     hinit0       :      0.31s CPU      0.33s WALL (       1 calls)

     Called by electrons:
     c_bands      :      0.37s CPU      0.39s WALL (      14 calls)
     sum_band     :      0.14s CPU      0.15s WALL (      14 calls)
     v_of_rho     :      0.03s CPU      0.04s WALL (      15 calls)
     v_h          :      0.00s CPU      0.00s WALL (      15 calls)
     v_xc         :      0.03s CPU      0.04s WALL (      17 calls)
     newd         :      0.10s CPU      0.11s WALL (      15 calls)
     mix_rho      :      0.01s CPU      0.01s WALL (      14 calls)

     Called by c_bands:
     init_us_2    :      0.00s CPU      0.00s WALL (      29 calls)
     init_us_2:cp :      0.00s CPU      0.00s WALL (      29 calls)
     regterg      :      0.36s CPU      0.38s WALL (      14 calls)

     Called by sum_band:
     sum_band:wei :      0.00s CPU      0.00s WALL (      14 calls)
     sum_band:loo :      0.03s CPU      0.04s WALL (      14 calls)
     sum_band:buf :      0.00s CPU      0.00s WALL (      14 calls)
     sum_band:ini :      0.00s CPU      0.00s WALL (      14 calls)
     sum_band:cal :      0.01s CPU      0.01s WALL (      14 calls)
     sum_band:bec :      0.00s CPU      0.00s WALL (      14 calls)
     addusdens    :      0.10s CPU      0.10s WALL (      14 calls)
     addusd:skk   :      0.00s CPU      0.00s WALL (      28 calls)
     addusd:dgemm :      0.02s CPU      0.02s WALL (      28 calls)
     addusd:qvan2 :      0.07s CPU      0.07s WALL (      28 calls)

     Called by *egterg:
     rdiaghg      :      0.20s CPU      0.21s WALL (      36 calls)
     regterg:over :      0.02s CPU      0.02s WALL (      22 calls)
     regterg:upda :      0.01s CPU      0.01s WALL (      22 calls)
     regterg:last :      0.01s CPU      0.01s WALL (      19 calls)
     rdiaghg:chol :      0.01s CPU      0.01s WALL (      36 calls)
     rdiaghg:inve :      0.00s CPU      0.00s WALL (      36 calls)
     rdiaghg:para :      0.02s CPU      0.02s WALL (      72 calls)
     h_psi        :      0.13s CPU      0.14s WALL (      37 calls)
     s_psi        :      0.00s CPU      0.00s WALL (      37 calls)
     g_psi        :      0.00s CPU      0.00s WALL (      22 calls)

     Called by h_psi:
     h_psi:calbec :      0.01s CPU      0.01s WALL (      37 calls)
     vloc_psi     :      0.11s CPU      0.12s WALL (      37 calls)
     add_vuspsi   :      0.00s CPU      0.00s WALL (      37 calls)

     General routines
     calbec       :      0.02s CPU      0.02s WALL (      56 calls)
     fft          :      0.29s CPU      0.30s WALL (     183 calls)
     ffts         :      0.27s CPU      0.27s WALL (      29 calls)
     fftw         :      0.12s CPU      0.13s WALL (    2676 calls)
     interpolate  :      0.27s CPU      0.27s WALL (      15 calls)
 
     Parallel routines
 
     PWSCF        :      1.65s CPU      2.22s WALL

 
   This run was terminated on:  11:30: 2   6Mar2023            

=------------------------------------------------------------------------------=
   JOB DONE.
=------------------------------------------------------------------------------=
