
     Program PWSCF v.7.0 starts on  4Mar2023 at 21:59: 3 

     This program is part of the open-source Quantum ESPRESSO suite
     for quantum simulation of materials; please cite
         "P. Giannozzi et al., J. Phys.:Condens. Matter 21 395502 (2009);
         "P. Giannozzi et al., J. Phys.:Condens. Matter 29 465901 (2017);
         "P. Giannozzi et al., J. Chem. Phys. 152 154105 (2020);
          URL http://www.quantum-espresso.org", 
     in publications or presentations arising from this work. More details at
     http://www.quantum-espresso.org/quote

     Parallel version (MPI & OpenMP), running on      32 processor cores
     Number of MPI processes:                32
     Threads/MPI process:                     1

     MPI processes distributed on     1 nodes
     R & G space division:  proc/nbgrp/npool/nimage =      32
     167152 MiB available memory on the printing compute node when the environment starts
 
     Reading input from espresso_7829.pwi
Warning: card &CELL ignored
Warning: card / ignored

     Current dimensions of program PWSCF are:
     Max number of different atomic species (ntypx) = 10
     Max number of k-points (npk) =  40000
     Max angular momentum in pseudopotentials (lmaxx) =  4
     file K.pbe-spn-kjpaw_psl.1.0.0.UPF: wavefunction(s)  3S renormalized

     gamma-point specific algorithms are used
     Message from routine setup:
     using ibrav=0 with symmetry is DISCOURAGED, use correct ibrav instead

     Subspace diagonalization in iterative solution of the eigenvalue problem:
     one sub-group per band group will be used
     scalapack distributed-memory algorithm (size of sub-group:  5*  5 procs)

 
     Parallelization info
     --------------------
     sticks:   dense  smooth     PW     G-vecs:    dense   smooth      PW
     Min          76      37      8                 1994      702      82
     Max          78      40     10                 2002      710      92
     Sum        2471    1231    303                63937    22565    2823
 
     Using Slab Decomposition
 


     bravais-lattice index     =            0
     lattice parameter (alat)  =      11.3913  a.u.
     unit-cell volume          =    1018.3101 (a.u.)^3
     number of atoms/cell      =           10
     number of atomic types    =            4
     number of electrons       =        84.00
     number of Kohn-Sham states=           50
     kinetic-energy cutoff     =      30.0000  Ry
     charge density cutoff     =     240.0000  Ry
     scf convergence threshold =      1.0E-06
     mixing beta               =       0.7000
     number of iterations used =            8  plain     mixing
     Exchange-correlation=  SLA  PW   PBX  PBC
                           (   1   4   3   4   0   0   0)

     celldm(1)=  11.391261  celldm(2)=   0.000000  celldm(3)=   0.000000
     celldm(4)=   0.000000  celldm(5)=   0.000000  celldm(6)=   0.000000

     crystal axes: (cart. coord. in units of alat)
               a(1) = (   1.000000   0.000000   0.000000 )  
               a(2) = (   0.048554   0.998821   0.000000 )  
               a(3) = (  -0.524277  -0.499410   0.689727 )  

     reciprocal axes: (cart. coord. in units 2 pi/alat)
               b(1) = (  1.000000 -0.048611  0.724925 )  
               b(2) = (  0.000000  1.001181  0.724925 )  
               b(3) = (  0.000000  0.000000  1.449849 )  


     PseudoPot. # 1 for K  read from file:
     /home/pragov/projects/rrg-bengioy-ad/pragov/crystal_structure_design/SSSP/K.pbe-spn-kjpaw_psl.1.0.0.UPF
     MD5 check sum: 7d58810084cac21f60fbe77ea2b688fd
     Pseudo is Projector augmented-wave + core cor, Zval =  9.0
     Generated using "atomic" code by A. Dal Corso  v.5.1
     Shape of augmentation charge: PSQ
     Using radial grid of 1165 points,  6 beta functions with: 
                l(1) =   0
                l(2) =   0
                l(3) =   1
                l(4) =   1
                l(5) =   2
                l(6) =   2
     Q(r) pseudized with 0 coefficients 


     PseudoPot. # 2 for Na read from file:
     /home/pragov/projects/rrg-bengioy-ad/pragov/crystal_structure_design/SSSP/na_pbe_v1.5.uspp.F.UPF
     MD5 check sum: 44600605ef58000f06b90626533354dc
     Pseudo is Ultrasoft, Zval =  9.0
     Generated by new atomic code, or converted to UPF format
     Using radial grid of  819 points,  5 beta functions with: 
                l(1) =   0
                l(2) =   0
                l(3) =   1
                l(4) =   1
                l(5) =   2
     Q(r) pseudized with  8 coefficients,  rinner =    1.250   1.250   1.250
                                                       1.250   1.250

     PseudoPot. # 3 for Mn read from file:
     /home/pragov/projects/rrg-bengioy-ad/pragov/crystal_structure_design/SSSP/mn_pbe_v1.5.uspp.F.UPF
     MD5 check sum: 82ef2b46521d7a7d9e736dc3972e4928
     Pseudo is Ultrasoft + core correction, Zval = 15.0
     Generated by new atomic code, or converted to UPF format
     Using radial grid of  859 points,  6 beta functions with: 
                l(1) =   0
                l(2) =   0
                l(3) =   1
                l(4) =   1
                l(5) =   2
                l(6) =   2
     Q(r) pseudized with  8 coefficients,  rinner =    0.950   0.950   0.950
                                                       0.950   0.950

     PseudoPot. # 4 for F  read from file:
     /home/pragov/projects/rrg-bengioy-ad/pragov/crystal_structure_design/SSSP/f_pbe_v1.4.uspp.F.UPF
     MD5 check sum: 4c38b6a325caf53ec0e86aed9459de46
     Pseudo is Ultrasoft, Zval =  7.0
     Generated by new atomic code, or converted to UPF format
     Using radial grid of  799 points,  4 beta functions with: 
                l(1) =   0
                l(2) =   0
                l(3) =   1
                l(4) =   1
     Q(r) pseudized with  8 coefficients,  rinner =    0.950   0.950   0.950


     atomic species   valence    mass     pseudopotential
        K              9.00    39.09830     K ( 1.00)
        Na             9.00    22.98977     Na( 1.00)
        Mn            15.00    54.93804     Mn( 1.00)
        F              7.00    18.99840     F ( 1.00)

      4 Sym. Ops., with inversion, found


                                    s                        frac. trans.

      isym =  1     identity                                     

 cryst.   s( 1) = (     1          0          0      )
                  (     0          1          0      )
                  (     0          0          1      )

 cart.    s( 1) = (  1.0000000  0.0000000 -0.0000000 )
                  (  0.0000000  1.0000000  0.0000000 )
                  (  0.0000000  0.0000000  1.0000000 )


      isym =  2     180 deg rotation - cart. axis [0,0,1]        

 cryst.   s( 2) = (    -1          0          0      )
                  (     0         -1          0      )
                  (     1          1          1      )

 cart.    s( 2) = ( -1.0000000 -0.0000000 -0.0000000 )
                  (  0.0000000 -1.0000000 -0.0000000 )
                  (  0.0000000  0.0000000  1.0000000 )


      isym =  3     inversion                                    

 cryst.   s( 3) = (    -1          0          0      )
                  (     0         -1          0      )
                  (     0          0         -1      )

 cart.    s( 3) = ( -1.0000000 -0.0000000  0.0000000 )
                  (  0.0000000 -1.0000000 -0.0000000 )
                  (  0.0000000  0.0000000 -1.0000000 )


      isym =  4     inv. 180 deg rotation - cart. axis [0,0,1]   

 cryst.   s( 4) = (     1          0          0      )
                  (     0          1          0      )
                  (    -1         -1         -1      )

 cart.    s( 4) = (  1.0000000  0.0000000  0.0000000 )
                  (  0.0000000  1.0000000  0.0000000 )
                  (  0.0000000  0.0000000 -1.0000000 )


   Cartesian axes

     site n.     atom                  positions (alat units)
         1           K   tau(   1) = (   0.0242769   0.4994103   0.3448634  )
         2           K   tau(   2) = (   0.5000000   0.0000000   0.3448634  )
         3           Na  tau(   3) = (   0.5242769   0.4994103   0.0000000  )
         4           Mn  tau(   4) = (   0.0000000   0.0000000   0.0000000  )
         5           F   tau(   5) = (   0.7820265   0.2288268   0.0000000  )
         6           F   tau(   6) = (   0.5242769   0.4994103   0.3736981  )
         7           F   tau(   7) = (   0.0000000   0.0000000   0.3160287  )
         8           F   tau(   8) = (   0.2665273   0.7699938   0.0000000  )
         9           F   tau(   9) = (   0.7952515   0.7575325   0.0000000  )
        10           F   tau(  10) = (   0.2533023   0.2412881   0.0000000  )

   Crystallographic axes

     site n.     atom                  positions (cryst. coord.)
         1           K   tau(   1) = (  0.2500000  0.7500000  0.5000000  )
         2           K   tau(   2) = (  0.7500000  0.2500000  0.5000000  )
         3           Na  tau(   3) = (  0.5000000  0.5000000  0.0000000  )
         4           Mn  tau(   4) = (  0.0000000  0.0000000  0.0000000  )
         5           F   tau(   5) = (  0.7709030  0.2290970  0.0000000  )
         6           F   tau(   6) = (  0.7709030  0.7709030  0.5418060  )
         7           F   tau(   7) = (  0.2290970  0.2290970  0.4581940  )
         8           F   tau(   8) = (  0.2290970  0.7709030  0.0000000  )
         9           F   tau(   9) = (  0.7584270  0.7584270  0.0000000  )
        10           F   tau(  10) = (  0.2415730  0.2415730  0.0000000  )

     number of k points=     1  Methfessel-Paxton smearing, width (Ry)=  0.0010
                       cart. coord. in units 2pi/alat
        k(    1) = (   0.0000000   0.0000000   0.0000000), wk =   2.0000000

                       cryst. coord.
        k(    1) = (   0.0000000   0.0000000   0.0000000), wk =   2.0000000

     Dense  grid:    31969 G-vectors     FFT dimensions: (  60,  60,  60)

     Smooth grid:    11283 G-vectors     FFT dimensions: (  40,  40,  40)

     Dynamical RAM for                 wfc:       0.03 MB

     Dynamical RAM for     wfc (w. buffer):       0.03 MB

     Dynamical RAM for           str. fact:       0.06 MB

     Dynamical RAM for           local pot:       0.00 MB

     Dynamical RAM for          nlocal pot:       0.08 MB

     Dynamical RAM for                qrad:       4.98 MB

     Dynamical RAM for          rho,v,vnew:       0.21 MB

     Dynamical RAM for               rhoin:       0.07 MB

     Dynamical RAM for            rho*nmix:       0.24 MB

     Dynamical RAM for           G-vectors:       0.06 MB

     Dynamical RAM for          h,s,v(r/c):       0.01 MB

     Dynamical RAM for          <psi|beta>:       0.04 MB

     Dynamical RAM for                 psi:       0.07 MB

     Dynamical RAM for                hpsi:       0.07 MB

     Dynamical RAM for                spsi:       0.07 MB

     Dynamical RAM for      wfcinit/wfcrot:       0.16 MB

     Dynamical RAM for           addusdens:       2.92 MB

     Dynamical RAM for          addusforce:       3.11 MB

     Dynamical RAM for         addusstress:       3.06 MB

     Estimated static dynamical RAM per process >       5.84 MB

     Estimated max dynamical RAM per process >       9.19 MB

     Estimated total dynamical RAM >     294.08 MB

     Check: negative core charge=   -0.000010

     Initial potential from superposition of free atoms

     starting charge      83.4560, renormalised to      84.0000
     Starting wfcs are   58 randomized atomic wfcs
     Checking if some PAW data can be deallocated... 
       PAW data deallocated on   24 nodes for type:  1

     total cpu time spent up to now is        1.3 secs

     Self-consistent Calculation

     iteration #  1     ecut=    30.00 Ry     beta= 0.70
     Davidson diagonalization with overlap

---- Real-time Memory Report at c_bands before calling an iterative solver
           147 MiB given to the printing process from OS
             0 MiB allocation reported by mallinfo(arena+hblkhd)
        166224 MiB available memory on the node where the printing process lives
------------------
     ethr =  1.00E-02,  avg # of iterations =  4.0

     total cpu time spent up to now is        1.4 secs

     total energy              =    -824.17193505 Ry
     estimated scf accuracy    <       1.45842619 Ry

     iteration #  2     ecut=    30.00 Ry     beta= 0.70
     Davidson diagonalization with overlap

---- Real-time Memory Report at c_bands before calling an iterative solver
           157 MiB given to the printing process from OS
             0 MiB allocation reported by mallinfo(arena+hblkhd)
        166105 MiB available memory on the node where the printing process lives
------------------
     ethr =  1.74E-03,  avg # of iterations =  8.0

     total cpu time spent up to now is        1.6 secs

     total energy              =    -821.81010826 Ry
     estimated scf accuracy    <      23.39748675 Ry

     iteration #  3     ecut=    30.00 Ry     beta= 0.70
     Davidson diagonalization with overlap

---- Real-time Memory Report at c_bands before calling an iterative solver
           158 MiB given to the printing process from OS
             0 MiB allocation reported by mallinfo(arena+hblkhd)
        166102 MiB available memory on the node where the printing process lives
------------------
     ethr =  1.74E-03,  avg # of iterations =  3.0

     total cpu time spent up to now is        1.7 secs

     total energy              =    -824.37168551 Ry
     estimated scf accuracy    <       4.69500573 Ry

     iteration #  4     ecut=    30.00 Ry     beta= 0.70
     Davidson diagonalization with overlap

---- Real-time Memory Report at c_bands before calling an iterative solver
           159 MiB given to the printing process from OS
             0 MiB allocation reported by mallinfo(arena+hblkhd)
        166102 MiB available memory on the node where the printing process lives
------------------
     ethr =  1.74E-03,  avg # of iterations =  2.0

     total cpu time spent up to now is        1.8 secs

     total energy              =    -824.89809051 Ry
     estimated scf accuracy    <       0.27026545 Ry

     iteration #  5     ecut=    30.00 Ry     beta= 0.70
     Davidson diagonalization with overlap

---- Real-time Memory Report at c_bands before calling an iterative solver
           160 MiB given to the printing process from OS
             0 MiB allocation reported by mallinfo(arena+hblkhd)
        166102 MiB available memory on the node where the printing process lives
------------------
     ethr =  3.22E-04,  avg # of iterations =  2.0

     total cpu time spent up to now is        1.9 secs

     total energy              =    -824.91968796 Ry
     estimated scf accuracy    <       0.22578823 Ry

     iteration #  6     ecut=    30.00 Ry     beta= 0.70
     Davidson diagonalization with overlap

---- Real-time Memory Report at c_bands before calling an iterative solver
           160 MiB given to the printing process from OS
             0 MiB allocation reported by mallinfo(arena+hblkhd)
        166102 MiB available memory on the node where the printing process lives
------------------
     ethr =  2.69E-04,  avg # of iterations =  1.0

     total cpu time spent up to now is        2.0 secs

     total energy              =    -824.91200028 Ry
     estimated scf accuracy    <       0.27761377 Ry

     iteration #  7     ecut=    30.00 Ry     beta= 0.70
     Davidson diagonalization with overlap

---- Real-time Memory Report at c_bands before calling an iterative solver
           160 MiB given to the printing process from OS
             0 MiB allocation reported by mallinfo(arena+hblkhd)
        166102 MiB available memory on the node where the printing process lives
------------------
     ethr =  2.69E-04,  avg # of iterations =  1.0

     total cpu time spent up to now is        2.1 secs

     total energy              =    -824.88616983 Ry
     estimated scf accuracy    <       0.19596570 Ry

     iteration #  8     ecut=    30.00 Ry     beta= 0.70
     Davidson diagonalization with overlap

---- Real-time Memory Report at c_bands before calling an iterative solver
           162 MiB given to the printing process from OS
             0 MiB allocation reported by mallinfo(arena+hblkhd)
        166100 MiB available memory on the node where the printing process lives
------------------
     ethr =  2.33E-04,  avg # of iterations =  1.0

     total cpu time spent up to now is        2.2 secs

     total energy              =    -824.90387164 Ry
     estimated scf accuracy    <       0.14084897 Ry

     iteration #  9     ecut=    30.00 Ry     beta= 0.70
     Davidson diagonalization with overlap

---- Real-time Memory Report at c_bands before calling an iterative solver
           163 MiB given to the printing process from OS
             0 MiB allocation reported by mallinfo(arena+hblkhd)
        166089 MiB available memory on the node where the printing process lives
------------------
     ethr =  1.68E-04,  avg # of iterations =  1.0

     total cpu time spent up to now is        2.4 secs

     total energy              =    -824.90058117 Ry
     estimated scf accuracy    <       0.10688505 Ry

     iteration # 10     ecut=    30.00 Ry     beta= 0.70
     Davidson diagonalization with overlap

---- Real-time Memory Report at c_bands before calling an iterative solver
           163 MiB given to the printing process from OS
             0 MiB allocation reported by mallinfo(arena+hblkhd)
        166087 MiB available memory on the node where the printing process lives
------------------
     ethr =  1.27E-04,  avg # of iterations =  1.0

     total cpu time spent up to now is        2.5 secs

     total energy              =    -824.90171665 Ry
     estimated scf accuracy    <       0.11845681 Ry

     iteration # 11     ecut=    30.00 Ry     beta= 0.70
     Davidson diagonalization with overlap

---- Real-time Memory Report at c_bands before calling an iterative solver
           163 MiB given to the printing process from OS
             0 MiB allocation reported by mallinfo(arena+hblkhd)
        166087 MiB available memory on the node where the printing process lives
------------------
     ethr =  1.27E-04,  avg # of iterations =  1.0

     total cpu time spent up to now is        2.6 secs

     total energy              =    -824.89319514 Ry
     estimated scf accuracy    <       0.18630250 Ry

     iteration # 12     ecut=    30.00 Ry     beta= 0.70
     Davidson diagonalization with overlap

---- Real-time Memory Report at c_bands before calling an iterative solver
           163 MiB given to the printing process from OS
             0 MiB allocation reported by mallinfo(arena+hblkhd)
        166087 MiB available memory on the node where the printing process lives
------------------
     ethr =  1.27E-04,  avg # of iterations =  1.0

     total cpu time spent up to now is        2.7 secs

     total energy              =    -824.90144832 Ry
     estimated scf accuracy    <       0.13862858 Ry

     iteration # 13     ecut=    30.00 Ry     beta= 0.70
     Davidson diagonalization with overlap

---- Real-time Memory Report at c_bands before calling an iterative solver
           163 MiB given to the printing process from OS
             0 MiB allocation reported by mallinfo(arena+hblkhd)
        166087 MiB available memory on the node where the printing process lives
------------------
     ethr =  1.27E-04,  avg # of iterations =  1.0

     total cpu time spent up to now is        2.8 secs

     total energy              =    -824.90200738 Ry
     estimated scf accuracy    <       0.05393813 Ry

     iteration # 14     ecut=    30.00 Ry     beta= 0.70
     Davidson diagonalization with overlap

---- Real-time Memory Report at c_bands before calling an iterative solver
           163 MiB given to the printing process from OS
             0 MiB allocation reported by mallinfo(arena+hblkhd)
        166082 MiB available memory on the node where the printing process lives
------------------
     ethr =  6.42E-05,  avg # of iterations =  1.0

     total cpu time spent up to now is        2.9 secs

     total energy              =    -824.90656435 Ry
     estimated scf accuracy    <       0.01513518 Ry

     iteration # 15     ecut=    30.00 Ry     beta= 0.70
     Davidson diagonalization with overlap

---- Real-time Memory Report at c_bands before calling an iterative solver
           163 MiB given to the printing process from OS
             0 MiB allocation reported by mallinfo(arena+hblkhd)
        166082 MiB available memory on the node where the printing process lives
------------------
     ethr =  1.80E-05,  avg # of iterations =  1.0

     total cpu time spent up to now is        3.0 secs

     total energy              =    -824.90538189 Ry
     estimated scf accuracy    <       0.03414636 Ry

     iteration # 16     ecut=    30.00 Ry     beta= 0.70
     Davidson diagonalization with overlap

---- Real-time Memory Report at c_bands before calling an iterative solver
           163 MiB given to the printing process from OS
             0 MiB allocation reported by mallinfo(arena+hblkhd)
        166082 MiB available memory on the node where the printing process lives
------------------
     ethr =  1.80E-05,  avg # of iterations =  1.0

     total cpu time spent up to now is        3.1 secs

     total energy              =    -824.90605294 Ry
     estimated scf accuracy    <       0.04842766 Ry

     iteration # 17     ecut=    30.00 Ry     beta= 0.70
     Davidson diagonalization with overlap

---- Real-time Memory Report at c_bands before calling an iterative solver
           164 MiB given to the printing process from OS
             0 MiB allocation reported by mallinfo(arena+hblkhd)
        166082 MiB available memory on the node where the printing process lives
------------------
     ethr =  1.80E-05,  avg # of iterations =  1.0

     total cpu time spent up to now is        3.2 secs

     total energy              =    -824.90648937 Ry
     estimated scf accuracy    <       0.01096748 Ry

     iteration # 18     ecut=    30.00 Ry     beta= 0.70
     Davidson diagonalization with overlap

---- Real-time Memory Report at c_bands before calling an iterative solver
           164 MiB given to the printing process from OS
             0 MiB allocation reported by mallinfo(arena+hblkhd)
        166082 MiB available memory on the node where the printing process lives
------------------
     ethr =  1.31E-05,  avg # of iterations =  1.0

     total cpu time spent up to now is        3.3 secs

     total energy              =    -824.90807243 Ry
     estimated scf accuracy    <       0.00049874 Ry

     iteration # 19     ecut=    30.00 Ry     beta= 0.70
     Davidson diagonalization with overlap

---- Real-time Memory Report at c_bands before calling an iterative solver
           164 MiB given to the printing process from OS
             0 MiB allocation reported by mallinfo(arena+hblkhd)
        166082 MiB available memory on the node where the printing process lives
------------------
     ethr =  5.94E-07,  avg # of iterations =  1.0

     total cpu time spent up to now is        3.4 secs

     total energy              =    -824.90836634 Ry
     estimated scf accuracy    <       0.00013775 Ry

     iteration # 20     ecut=    30.00 Ry     beta= 0.70
     Davidson diagonalization with overlap

---- Real-time Memory Report at c_bands before calling an iterative solver
           164 MiB given to the printing process from OS
             0 MiB allocation reported by mallinfo(arena+hblkhd)
        166082 MiB available memory on the node where the printing process lives
------------------
     ethr =  1.64E-07,  avg # of iterations =  1.0

     total cpu time spent up to now is        3.5 secs

     total energy              =    -824.90840582 Ry
     estimated scf accuracy    <       0.00007858 Ry

     iteration # 21     ecut=    30.00 Ry     beta= 0.70
     Davidson diagonalization with overlap

---- Real-time Memory Report at c_bands before calling an iterative solver
           164 MiB given to the printing process from OS
             0 MiB allocation reported by mallinfo(arena+hblkhd)
        166082 MiB available memory on the node where the printing process lives
------------------
     ethr =  9.35E-08,  avg # of iterations =  1.0

     total cpu time spent up to now is        3.6 secs

     total energy              =    -824.90840786 Ry
     estimated scf accuracy    <       0.00004762 Ry

     iteration # 22     ecut=    30.00 Ry     beta= 0.70
     Davidson diagonalization with overlap

---- Real-time Memory Report at c_bands before calling an iterative solver
           164 MiB given to the printing process from OS
             0 MiB allocation reported by mallinfo(arena+hblkhd)
        166082 MiB available memory on the node where the printing process lives
------------------
     ethr =  5.67E-08,  avg # of iterations =  1.0

     total cpu time spent up to now is        3.7 secs

     total energy              =    -824.90840623 Ry
     estimated scf accuracy    <       0.00006975 Ry

     iteration # 23     ecut=    30.00 Ry     beta= 0.70
     Davidson diagonalization with overlap

---- Real-time Memory Report at c_bands before calling an iterative solver
           164 MiB given to the printing process from OS
             0 MiB allocation reported by mallinfo(arena+hblkhd)
        166082 MiB available memory on the node where the printing process lives
------------------
     ethr =  5.67E-08,  avg # of iterations =  1.0

     total cpu time spent up to now is        3.9 secs

     total energy              =    -824.90841151 Ry
     estimated scf accuracy    <       0.00003512 Ry

     iteration # 24     ecut=    30.00 Ry     beta= 0.70
     Davidson diagonalization with overlap

---- Real-time Memory Report at c_bands before calling an iterative solver
           164 MiB given to the printing process from OS
             0 MiB allocation reported by mallinfo(arena+hblkhd)
        166082 MiB available memory on the node where the printing process lives
------------------
     ethr =  4.18E-08,  avg # of iterations =  1.0

     total cpu time spent up to now is        4.0 secs

     total energy              =    -824.90840733 Ry
     estimated scf accuracy    <       0.00005621 Ry

     iteration # 25     ecut=    30.00 Ry     beta= 0.70
     Davidson diagonalization with overlap

---- Real-time Memory Report at c_bands before calling an iterative solver
           164 MiB given to the printing process from OS
             0 MiB allocation reported by mallinfo(arena+hblkhd)
        166082 MiB available memory on the node where the printing process lives
------------------
     ethr =  4.18E-08,  avg # of iterations =  1.0

     total cpu time spent up to now is        4.1 secs

     total energy              =    -824.90840170 Ry
     estimated scf accuracy    <       0.00007833 Ry

     iteration # 26     ecut=    30.00 Ry     beta= 0.70
     Davidson diagonalization with overlap

---- Real-time Memory Report at c_bands before calling an iterative solver
           164 MiB given to the printing process from OS
             0 MiB allocation reported by mallinfo(arena+hblkhd)
        166081 MiB available memory on the node where the printing process lives
------------------
     ethr =  4.18E-08,  avg # of iterations =  1.0

     total cpu time spent up to now is        4.2 secs

     total energy              =    -824.90841298 Ry
     estimated scf accuracy    <       0.00000204 Ry

     iteration # 27     ecut=    30.00 Ry     beta= 0.70
     Davidson diagonalization with overlap

---- Real-time Memory Report at c_bands before calling an iterative solver
           164 MiB given to the printing process from OS
             0 MiB allocation reported by mallinfo(arena+hblkhd)
        166081 MiB available memory on the node where the printing process lives
------------------
     ethr =  2.43E-09,  avg # of iterations =  1.0

     total cpu time spent up to now is        4.3 secs

     total energy              =    -824.90841340 Ry
     estimated scf accuracy    <       0.00000113 Ry

     iteration # 28     ecut=    30.00 Ry     beta= 0.70
     Davidson diagonalization with overlap

---- Real-time Memory Report at c_bands before calling an iterative solver
           164 MiB given to the printing process from OS
             0 MiB allocation reported by mallinfo(arena+hblkhd)
        166081 MiB available memory on the node where the printing process lives
------------------
     ethr =  1.34E-09,  avg # of iterations =  1.0

     total cpu time spent up to now is        4.4 secs

     total energy              =    -824.90841286 Ry
     estimated scf accuracy    <       0.00000563 Ry

     iteration # 29     ecut=    30.00 Ry     beta= 0.70
     Davidson diagonalization with overlap

---- Real-time Memory Report at c_bands before calling an iterative solver
           164 MiB given to the printing process from OS
             0 MiB allocation reported by mallinfo(arena+hblkhd)
        166081 MiB available memory on the node where the printing process lives
------------------
     ethr =  1.34E-09,  avg # of iterations =  1.0

     total cpu time spent up to now is        4.5 secs

     total energy              =    -824.90841333 Ry
     estimated scf accuracy    <       0.00000297 Ry

     iteration # 30     ecut=    30.00 Ry     beta= 0.70
     Davidson diagonalization with overlap

---- Real-time Memory Report at c_bands before calling an iterative solver
           164 MiB given to the printing process from OS
             0 MiB allocation reported by mallinfo(arena+hblkhd)
        166081 MiB available memory on the node where the printing process lives
------------------
     ethr =  1.34E-09,  avg # of iterations =  1.0

     total cpu time spent up to now is        4.6 secs

     End of self-consistent calculation

          k = 0.0000 0.0000 0.0000 (  1412 PWs)   bands (ev):

   -74.8829 -45.4961 -43.6997 -43.6997 -43.4075 -24.5701 -24.5465 -18.3482
   -18.1716 -18.1716 -17.9583 -17.7740 -17.3955 -17.2366 -17.2366 -17.0166
    -8.1389  -8.1389  -8.1275  -8.0638  -8.0230  -8.0230  -1.5081  -0.7587
    -0.5031  -0.3005  -0.3005  -0.1284  -0.0451  -0.0451   0.0779   0.9999
     1.1118   1.1118   1.4045   1.4886   1.4886   1.5915   1.7504   1.7504
     4.8511   4.8511   4.8539   6.2334   6.8817   8.4377  11.5009  11.7799
    11.7813  11.8745

     occupation numbers 
     1.0000   1.0000   1.0000   1.0000   1.0000   1.0000   1.0000   1.0000
     1.0000   1.0000   1.0000   1.0000   1.0000   1.0000   1.0000   1.0000
     1.0000   1.0000   1.0000   1.0000   1.0000   1.0000   1.0000   1.0000
     1.0000   1.0000   1.0000   1.0000   1.0000   1.0000   1.0000   1.0000
     1.0000   1.0000   1.0000   1.0000   1.0000   1.0000   1.0000   1.0000
     0.7227   0.7224   0.5549  -0.0000  -0.0000  -0.0000  -0.0000  -0.0000
    -0.0000  -0.0000

     the Fermi energy is     4.8548 ev

!    total energy              =    -824.90841328 Ry
     estimated scf accuracy    <       0.00000028 Ry
     smearing contrib. (-TS)   =      -0.00072327 Ry
     internal energy E=F+TS    =    -824.90769001 Ry

     The total energy is F=E-TS. E is the sum of the following terms:
     one-electron contribution =    -444.51727103 Ry
     hartree contribution      =     260.52435608 Ry
     xc contribution           =    -119.81844699 Ry
     ewald contribution        =    -410.25754817 Ry
     one-center paw contrib.   =    -110.83877991 Ry
      -> PAW hartree energy AE =      37.77184465 Ry
      -> PAW hartree energy PS =     -37.56070170 Ry
      -> PAW xc energy AE      =     -66.23466398 Ry
      -> PAW xc energy PS      =      10.60413108 Ry
      -> total E_H with PAW    =     260.73549902 Ry
      -> total E_XC with PAW   =    -175.44897989 Ry

     convergence has been achieved in  30 iterations

     Forces acting on atoms (cartesian axes, Ry/au):

     atom    1 type  1   force =     0.00000000    0.00000000    0.00000126
     atom    2 type  1   force =     0.00000000    0.00000000   -0.00000126
     atom    3 type  2   force =     0.00000000    0.00000000    0.00000000
     atom    4 type  3   force =     0.00000000    0.00000000    0.00000000
     atom    5 type  4   force =     0.01955747   -0.02052579    0.00000000
     atom    6 type  4   force =     0.00000000    0.00000000    0.02832580
     atom    7 type  4   force =     0.00000000    0.00000000   -0.02832580
     atom    8 type  4   force =    -0.01955747    0.02052579   -0.00000000
     atom    9 type  4   force =     0.04637531    0.04417235    0.00000000
     atom   10 type  4   force =    -0.04637531   -0.04417235   -0.00000000
     The non-local contrib.  to forces
     atom    1 type  1   force =     0.00000000    0.00000000    0.00000073
     atom    2 type  1   force =     0.00000000    0.00000000   -0.00000073
     atom    3 type  2   force =     0.00000000    0.00000000    0.00000000
     atom    4 type  3   force =     0.00000000    0.00000000    0.00000000
     atom    5 type  4   force =     0.46019990   -0.48310900    0.00000000
     atom    6 type  4   force =     0.00000000    0.00000000    0.66719576
     atom    7 type  4   force =     0.00000000    0.00000000   -0.66719576
     atom    8 type  4   force =    -0.46019990    0.48310900   -0.00000000
     atom    9 type  4   force =     0.33830917    0.32225971    0.00000000
     atom   10 type  4   force =    -0.33830917   -0.32225971   -0.00000000
     The ionic contribution  to forces
     atom    1 type  1   force =    -0.00000000    0.00000000   -0.00000000
     atom    2 type  1   force =    -0.00000000   -0.00000000   -0.00000000
     atom    3 type  2   force =    -0.00000000    0.00000000   -0.00000000
     atom    4 type  3   force =    -0.00000000    0.00000000   -0.00000000
     atom    5 type  4   force =    -7.40010336    7.76856891    0.00000000
     atom    6 type  4   force =     0.00000000    0.00000000  -10.72903502
     atom    7 type  4   force =    -0.00000000   -0.00000000   10.72903503
     atom    8 type  4   force =     7.40010336   -7.76856891    0.00000000
     atom    9 type  4   force =    -5.31396096   -5.06191820    0.00000000
     atom   10 type  4   force =     5.31396096    5.06191820   -0.00000000
     The local contribution  to forces
     atom    1 type  1   force =     0.00001212   -0.00000763    0.00000561
     atom    2 type  1   force =    -0.00001232    0.00000764   -0.00000574
     atom    3 type  2   force =     0.00000005    0.00000030   -0.00000003
     atom    4 type  3   force =    -0.00000015   -0.00000093    0.00000024
     atom    5 type  4   force =     6.95939973   -7.30594328   -0.00000940
     atom    6 type  4   force =    -0.00002853   -0.00001429   10.09013061
     atom    7 type  4   force =     0.00002852    0.00001415  -10.09013067
     atom    8 type  4   force =    -6.95939966    7.30594312    0.00000940
     atom    9 type  4   force =     5.02211616    4.78393083   -0.00002215
     atom   10 type  4   force =    -5.02211610   -4.78393079    0.00002220
     The core correction contribution to forces
     atom    1 type  1   force =     0.00000001   -0.00000002   -0.00000001
     atom    2 type  1   force =    -0.00000002    0.00000002    0.00000001
     atom    3 type  2   force =     0.00000000    0.00000000    0.00000000
     atom    4 type  3   force =    -0.00000000   -0.00000000   -0.00000000
     atom    5 type  4   force =     0.00000000    0.00000000    0.00000000
     atom    6 type  4   force =     0.00000000    0.00000000    0.00000000
     atom    7 type  4   force =     0.00000000    0.00000000    0.00000000
     atom    8 type  4   force =     0.00000000    0.00000000    0.00000000
     atom    9 type  4   force =     0.00000000    0.00000000    0.00000000
     atom   10 type  4   force =     0.00000000    0.00000000    0.00000000
     The Hubbard contrib.    to forces
     atom    1 type  1   force =     0.00000000    0.00000000    0.00000000
     atom    2 type  1   force =     0.00000000    0.00000000    0.00000000
     atom    3 type  2   force =     0.00000000    0.00000000    0.00000000
     atom    4 type  3   force =     0.00000000    0.00000000    0.00000000
     atom    5 type  4   force =     0.00000000    0.00000000    0.00000000
     atom    6 type  4   force =     0.00000000    0.00000000    0.00000000
     atom    7 type  4   force =     0.00000000    0.00000000    0.00000000
     atom    8 type  4   force =     0.00000000    0.00000000    0.00000000
     atom    9 type  4   force =     0.00000000    0.00000000    0.00000000
     atom   10 type  4   force =     0.00000000    0.00000000    0.00000000
     The SCF correction term to forces
     atom    1 type  1   force =    -0.00001027    0.00000633   -0.00000509
     atom    2 type  1   force =     0.00001040   -0.00000634    0.00000518
     atom    3 type  2   force =    -0.00000017   -0.00000041    0.00000001
     atom    4 type  3   force =     0.00000020    0.00000101   -0.00000022
     atom    5 type  4   force =     0.00006121   -0.00004238    0.00000951
     atom    6 type  4   force =     0.00002906    0.00001466    0.00003449
     atom    7 type  4   force =    -0.00002898   -0.00001451   -0.00003436
     atom    8 type  4   force =    -0.00006125    0.00004261   -0.00000951
     atom    9 type  4   force =    -0.00008900   -0.00009997    0.00002269
     atom   10 type  4   force =     0.00008907    0.00009998   -0.00002277

     Total force =     0.106846     Total SCF correction =     0.000230


     Computing stress (Cartesian axis) and pressure

          total   stress  (Ry/bohr**3)                   (kbar)     P=     -131.85
  -0.00095908  -0.00016429  -0.00000000         -141.09      -24.17       -0.00
  -0.00016429  -0.00094291  -0.00000000          -24.17     -138.71       -0.00
  -0.00000000  -0.00000000  -0.00078682           -0.00       -0.00     -115.75

     kinetic stress (kbar)  20468.71     13.44      0.00
                               13.44  20467.32      0.00
                                0.00      0.00  20454.68

     local   stress (kbar)  -5847.03   2134.19     -0.27
                             2134.19  -6054.24     -0.14
                               -0.27     -0.14  -8087.83

     nonloc. stress (kbar)  -1324.67     34.04     -0.00
                               34.04  -1328.07     -0.00
                               -0.00     -0.00  -1360.34

     hartree stress (kbar)  12237.18   -805.34      0.08
                             -805.34  12315.39      0.04
                                0.08      0.04  13082.78

     exc-cor stress (kbar)  -4086.43     -2.51      0.00
                               -2.51  -4086.19      0.00
                                0.00      0.00  -4083.79

     corecor stress (kbar)  -1299.35     -0.74     -0.00
                               -0.74  -1299.28     -0.00
                               -0.00     -0.00  -1298.58

     ewald   stress (kbar) -20289.49  -1397.25     -0.00
                            -1397.25 -20153.65      0.00
                               -0.00      0.00 -18822.67

     hubbard stress (kbar)      0.00      0.00      0.00
                                0.00      0.00      0.00
                                0.00      0.00      0.00

     DFT-D   stress (kbar)      0.00      0.00      0.00
                                0.00      0.00      0.00
                                0.00      0.00      0.00

     XDM     stress (kbar)      0.00      0.00      0.00
                                0.00      0.00      0.00
                                0.00      0.00      0.00

     dft-nl  stress (kbar)      0.00      0.00      0.00
                                0.00      0.00      0.00
                                0.00      0.00      0.00

     TS-vdW  stress (kbar)      0.00      0.00      0.00
                                0.00      0.00      0.00
                                0.00      0.00      0.00


                                0.00      0.00      0.00
                                0.00      0.00      0.00


                                0.00      0.00      0.00


     Writing all to output data dir calculations/myprefix.save/
 
     init_run     :      0.88s CPU      0.92s WALL (       1 calls)
     electrons    :      3.26s CPU      3.38s WALL (       1 calls)
     forces       :      0.05s CPU      0.05s WALL (       1 calls)
     stress       :      0.12s CPU      0.12s WALL (       1 calls)

     Called by init_run:
     wfcinit      :      0.02s CPU      0.03s WALL (       1 calls)
     wfcinit:atom :      0.00s CPU      0.00s WALL (       1 calls)
     wfcinit:wfcr :      0.02s CPU      0.03s WALL (       1 calls)
     potinit      :      0.37s CPU      0.38s WALL (       1 calls)
     hinit0       :      0.47s CPU      0.47s WALL (       1 calls)

     Called by electrons:
     c_bands      :      0.64s CPU      0.67s WALL (      30 calls)
     sum_band     :      0.39s CPU      0.40s WALL (      30 calls)
     v_of_rho     :      0.10s CPU      0.11s WALL (      31 calls)
     v_h          :      0.01s CPU      0.01s WALL (      31 calls)
     v_xc         :      0.10s CPU      0.11s WALL (      33 calls)
     newd         :      0.27s CPU      0.28s WALL (      31 calls)
     PAW_pot      :      1.88s CPU      1.90s WALL (      31 calls)
     mix_rho      :      0.03s CPU      0.03s WALL (      30 calls)

     Called by c_bands:
     init_us_2    :      0.00s CPU      0.01s WALL (      61 calls)
     init_us_2:cp :      0.00s CPU      0.01s WALL (      61 calls)
     regterg      :      0.63s CPU      0.65s WALL (      30 calls)

     Called by sum_band:
     sum_band:wei :      0.00s CPU      0.00s WALL (      30 calls)
     sum_band:loo :      0.07s CPU      0.08s WALL (      30 calls)
     sum_band:buf :      0.00s CPU      0.00s WALL (      30 calls)
     sum_band:ini :      0.00s CPU      0.00s WALL (      30 calls)
     sum_band:cal :      0.01s CPU      0.01s WALL (      30 calls)
     sum_band:bec :      0.00s CPU      0.00s WALL (      30 calls)
     addusdens    :      0.28s CPU      0.28s WALL (      30 calls)
     addusd:skk   :      0.00s CPU      0.00s WALL (     120 calls)
     addusd:dgemm :      0.07s CPU      0.07s WALL (     120 calls)
     addusd:qvan2 :      0.20s CPU      0.20s WALL (     120 calls)

     Called by *egterg:
     rdiaghg      :      0.30s CPU      0.31s WALL (      74 calls)
     regterg:over :      0.03s CPU      0.03s WALL (      44 calls)
     regterg:upda :      0.01s CPU      0.01s WALL (      44 calls)
     regterg:last :      0.01s CPU      0.02s WALL (      36 calls)
     rdiaghg:chol :      0.02s CPU      0.02s WALL (      74 calls)
     rdiaghg:inve :      0.00s CPU      0.00s WALL (      74 calls)
     rdiaghg:para :      0.02s CPU      0.02s WALL (     148 calls)
     h_psi        :      0.27s CPU      0.29s WALL (      75 calls)
     s_psi        :      0.00s CPU      0.00s WALL (      75 calls)
     g_psi        :      0.00s CPU      0.00s WALL (      44 calls)

     Called by h_psi:
     h_psi:calbec :      0.02s CPU      0.02s WALL (      75 calls)
     vloc_psi     :      0.24s CPU      0.26s WALL (      75 calls)
     add_vuspsi   :      0.00s CPU      0.01s WALL (      75 calls)

     General routines
     calbec       :      0.03s CPU      0.03s WALL (     110 calls)
     fft          :      0.46s CPU      0.48s WALL (     359 calls)
     ffts         :      0.29s CPU      0.29s WALL (      61 calls)
     fftw         :      0.28s CPU      0.30s WALL (    3920 calls)
     interpolate  :      0.29s CPU      0.29s WALL (      31 calls)
 
     Parallel routines

     PAW routines
     PAW_pot      :      1.88s CPU      1.90s WALL (      31 calls)
     PAW_symme    :      0.01s CPU      0.01s WALL (      61 calls)
 
     PWSCF        :      4.62s CPU      5.12s WALL

 
   This run was terminated on:  21:59: 8   4Mar2023            

=------------------------------------------------------------------------------=
   JOB DONE.
=------------------------------------------------------------------------------=
