
     Program PWSCF v.7.0 starts on  3Mar2023 at  3: 0:51 

     This program is part of the open-source Quantum ESPRESSO suite
     for quantum simulation of materials; please cite
         "P. Giannozzi et al., J. Phys.:Condens. Matter 21 395502 (2009);
         "P. Giannozzi et al., J. Phys.:Condens. Matter 29 465901 (2017);
         "P. Giannozzi et al., J. Chem. Phys. 152 154105 (2020);
          URL http://www.quantum-espresso.org", 
     in publications or presentations arising from this work. More details at
     http://www.quantum-espresso.org/quote

     Parallel version (MPI & OpenMP), running on      32 processor cores
     Number of MPI processes:                32
     Threads/MPI process:                     1

     MPI processes distributed on     1 nodes
     R & G space division:  proc/nbgrp/npool/nimage =      32
     161194 MiB available memory on the printing compute node when the environment starts
 
     Reading input from espresso_13009.pwi
Warning: card &CELL ignored
Warning: card / ignored

     Current dimensions of program PWSCF are:
     Max number of different atomic species (ntypx) = 10
     Max number of k-points (npk) =  40000
     Max angular momentum in pseudopotentials (lmaxx) =  4
     file O.pbe-n-kjpaw_psl.0.1.UPF: wavefunction(s)  2P renormalized

     gamma-point specific algorithms are used
     Message from routine setup:
     using ibrav=0 with symmetry is DISCOURAGED, use correct ibrav instead

     Subspace diagonalization in iterative solution of the eigenvalue problem:
     one sub-group per band group will be used
     scalapack distributed-memory algorithm (size of sub-group:  5*  5 procs)

 
     Parallelization info
     --------------------
     sticks:   dense  smooth     PW     G-vecs:    dense   smooth      PW
     Min          45      22      4                 1578      554      60
     Max          48      24      6                 1582      564      78
     Sum        1475     733    187                50543    17841    2233
 
     Using Slab Decomposition
 


     bravais-lattice index     =            0
     lattice parameter (alat)  =       7.3698  a.u.
     unit-cell volume          =     803.7287 (a.u.)^3
     number of atoms/cell      =           10
     number of atomic types    =            3
     number of electrons       =        90.00
     number of Kohn-Sham states=           54
     kinetic-energy cutoff     =      30.0000  Ry
     charge density cutoff     =     240.0000  Ry
     scf convergence threshold =      1.0E-06
     mixing beta               =       0.7000
     number of iterations used =            8  plain     mixing
     Exchange-correlation= SLA  PW   PBX  PBC
                           (   1   4   3   4   0   0   0)

     celldm(1)=   7.369815  celldm(2)=   0.000000  celldm(3)=   0.000000
     celldm(4)=   0.000000  celldm(5)=   0.000000  celldm(6)=   0.000000

     crystal axes: (cart. coord. in units of alat)
               a(1) = (   1.000000   0.000000   0.000000 )  
               a(2) = (  -0.000130   1.416972   0.000000 )  
               a(3) = (  -0.000094  -0.000240   1.417028 )  

     reciprocal axes: (cart. coord. in units 2 pi/alat)
               b(1) = (  1.000000  0.000092  0.000066 )  
               b(2) = (  0.000000  0.705730  0.000120 )  
               b(3) = (  0.000000  0.000000  0.705702 )  


     PseudoPot. # 1 for Sr read from file:
     /home/pragov/projects/rrg-bengioy-ad/pragov/crystal_structure_design/SSSP/Sr_pbe_v1.uspp.F.UPF
     MD5 check sum: 6b418c05fbe9db5448babca5e47b7a5b
     Pseudo is Ultrasoft + core correction, Zval = 10.0
     Generated by new atomic code, or converted to UPF format
     Using radial grid of  883 points,  6 beta functions with: 
                l(1) =   0
                l(2) =   0
                l(3) =   1
                l(4) =   1
                l(5) =   2
                l(6) =   2
     Q(r) pseudized with  6 coefficients,  rinner =    1.400   1.400   1.400
                                                       1.400   1.400

     PseudoPot. # 2 for Co read from file:
     /home/pragov/projects/rrg-bengioy-ad/pragov/crystal_structure_design/SSSP/Co_pbe_v1.2.uspp.F.UPF
     MD5 check sum: 5f91765df6ddd3222702df6e7b74a16d
     Pseudo is Ultrasoft + core correction, Zval = 17.0
     Generated by new atomic code, or converted to UPF format
     Using radial grid of  863 points,  6 beta functions with: 
                l(1) =   0
                l(2) =   0
                l(3) =   1
                l(4) =   1
                l(5) =   2
                l(6) =   2
     Q(r) pseudized with  8 coefficients,  rinner =    1.200   1.200   1.200
                                                       1.200   1.200

     PseudoPot. # 3 for O  read from file:
     /home/pragov/projects/rrg-bengioy-ad/pragov/crystal_structure_design/SSSP/O.pbe-n-kjpaw_psl.0.1.UPF
     MD5 check sum: 0234752ac141de4415c5fc33072bef88
     Pseudo is Projector augmented-wave + core cor, Zval =  6.0
     Generated using "atomic" code by A. Dal Corso  v.5.0.99 svn rev. 10869
     Shape of augmentation charge: BESSEL
     Using radial grid of 1095 points,  4 beta functions with: 
                l(1) =   0
                l(2) =   0
                l(3) =   1
                l(4) =   1
     Q(r) pseudized with 0 coefficients 


     atomic species   valence    mass     pseudopotential
        Sr            10.00    87.62000     Sr( 1.00)
        Co            17.00    58.93319     Co( 1.00)
        O              6.00    15.99900     O ( 1.00)

      2 Sym. Ops., with inversion, found


                                    s                        frac. trans.

      isym =  1     identity                                     

 cryst.   s( 1) = (     1          0          0      )
                  (     0          1          0      )
                  (     0          0          1      )

 cart.    s( 1) = (  1.0000000  0.0000000 -0.0000000 )
                  (  0.0000000  1.0000000  0.0000000 )
                  (  0.0000000  0.0000000  1.0000000 )


      isym =  2     inversion                                    

 cryst.   s( 2) = (    -1          0          0      )
                  (     0         -1          0      )
                  (     0          0         -1      )

 cart.    s( 2) = ( -1.0000000 -0.0000000  0.0000000 )
                  (  0.0000000 -1.0000000 -0.0000000 )
                  (  0.0000000  0.0000000 -1.0000000 )


   Cartesian axes

     site n.     atom                  positions (alat units)
         1           Sr  tau(   1) = (   0.4999351   0.7084859   0.0000000  )
         2           Sr  tau(   2) = (   0.4998230   1.4168516   0.7085142  )
         3           Co  tau(   3) = (  -0.0001120   0.7083643   0.7085156  )
         4           Co  tau(   4) = (   0.0000000   0.0000000   0.0000000  )
         5           O   tau(   5) = (  -0.0000326   0.3833661   0.3836378  )
         6           O   tau(   6) = (   0.9998086   1.0333654   1.0333921  )
         7           O   tau(   7) = (  -0.0000714   0.3249913   1.0920244  )
         8           O   tau(   8) = (   0.9998473   1.0917401   0.3250026  )
         9           O   tau(   9) = (   0.5000000   0.0000000   0.0000000  )
        10           O   tau(  10) = (   0.4998880   0.7083657   0.7085128  )

   Crystallographic axes

     site n.     atom                  positions (cryst. coord.)
         1           Sr  tau(   1) = (  0.5000000  0.5000000  0.0000000  )
         2           Sr  tau(   2) = (  0.5000000  1.0000000  0.5000000  )
         3           Co  tau(   3) = ( -0.0000000  0.4999990  0.5000010  )
         4           Co  tau(   4) = (  0.0000000  0.0000000  0.0000000  )
         5           O   tau(   5) = (  0.0000280  0.2705990  0.2707340  )
         6           O   tau(   6) = (  0.9999720  0.7294010  0.7292670  )
         7           O   tau(   7) = (  0.0000310  0.2294870  0.7706440  )
         8           O   tau(   8) = (  0.9999690  0.7705130  0.2293550  )
         9           O   tau(   9) = (  0.5000000  0.0000000  0.0000000  )
        10           O   tau(  10) = (  0.5000000  0.5000000  0.4999990  )

     number of k points=     1  Methfessel-Paxton smearing, width (Ry)=  0.0010
                       cart. coord. in units 2pi/alat
        k(    1) = (   0.0000000   0.0000000   0.0000000), wk =   2.0000000

                       cryst. coord.
        k(    1) = (   0.0000000   0.0000000   0.0000000), wk =   2.0000000

     Dense  grid:    25272 G-vectors     FFT dimensions: (  40,  54,  54)

     Smooth grid:     8921 G-vectors     FFT dimensions: (  25,  40,  40)

     Dynamical RAM for                 wfc:       0.03 MB

     Dynamical RAM for     wfc (w. buffer):       0.03 MB

     Dynamical RAM for           str. fact:       0.04 MB

     Dynamical RAM for           local pot:       0.00 MB

     Dynamical RAM for          nlocal pot:       0.06 MB

     Dynamical RAM for                qrad:       3.73 MB

     Dynamical RAM for          rho,v,vnew:       0.14 MB

     Dynamical RAM for               rhoin:       0.05 MB

     Dynamical RAM for            rho*nmix:       0.19 MB

     Dynamical RAM for           G-vectors:       0.05 MB

     Dynamical RAM for          h,s,v(r/c):       0.01 MB

     Dynamical RAM for          <psi|beta>:       0.05 MB

     Dynamical RAM for                 psi:       0.06 MB

     Dynamical RAM for                hpsi:       0.06 MB

     Dynamical RAM for                spsi:       0.06 MB

     Dynamical RAM for      wfcinit/wfcrot:       0.21 MB

     Dynamical RAM for           addusdens:       2.32 MB

     Dynamical RAM for          addusforce:       2.47 MB

     Dynamical RAM for         addusstress:       2.43 MB

     Estimated static dynamical RAM per process >       4.30 MB

     Estimated max dynamical RAM per process >       6.96 MB

     Estimated total dynamical RAM >     222.72 MB

     Check: negative core charge=   -0.000019

     Initial potential from superposition of free atoms

     starting charge      87.9327, renormalised to      90.0000

     negative rho (up, down):  1.275E-01 0.000E+00
     Starting wfcs are   76 randomized atomic wfcs
     Checking if some PAW data can be deallocated... 
       PAW data deallocated on   14 nodes for type:  3

     total cpu time spent up to now is        1.8 secs

     Self-consistent Calculation

     iteration #  1     ecut=    30.00 Ry     beta= 0.70
     Davidson diagonalization with overlap

---- Real-time Memory Report at c_bands before calling an iterative solver
           133 MiB given to the printing process from OS
             0 MiB allocation reported by mallinfo(arena+hblkhd)
        160452 MiB available memory on the node where the printing process lives
------------------
     ethr =  1.00E-02,  avg # of iterations =  2.0

     negative rho (up, down):  1.261E-01 0.000E+00

     total cpu time spent up to now is        2.0 secs

     total energy              =    -977.31137927 Ry
     estimated scf accuracy    <      13.72811425 Ry

     iteration #  2     ecut=    30.00 Ry     beta= 0.70
     Davidson diagonalization with overlap

---- Real-time Memory Report at c_bands before calling an iterative solver
           136 MiB given to the printing process from OS
             0 MiB allocation reported by mallinfo(arena+hblkhd)
        160383 MiB available memory on the node where the printing process lives
------------------
     ethr =  1.00E-02,  avg # of iterations =  3.0

     negative rho (up, down):  1.272E-01 0.000E+00

     total cpu time spent up to now is        2.7 secs

     total energy              =    -982.78849821 Ry
     estimated scf accuracy    <      74.88772126 Ry

     iteration #  3     ecut=    30.00 Ry     beta= 0.70
     Davidson diagonalization with overlap

---- Real-time Memory Report at c_bands before calling an iterative solver
           138 MiB given to the printing process from OS
             0 MiB allocation reported by mallinfo(arena+hblkhd)
        160368 MiB available memory on the node where the printing process lives
------------------
     ethr =  1.00E-02,  avg # of iterations =  3.0

     negative rho (up, down):  1.274E-01 0.000E+00

     total cpu time spent up to now is        2.8 secs

     total energy              =    -986.61830115 Ry
     estimated scf accuracy    <      17.58789879 Ry

     iteration #  4     ecut=    30.00 Ry     beta= 0.70
     Davidson diagonalization with overlap

---- Real-time Memory Report at c_bands before calling an iterative solver
           139 MiB given to the printing process from OS
             0 MiB allocation reported by mallinfo(arena+hblkhd)
        160368 MiB available memory on the node where the printing process lives
------------------
     ethr =  1.00E-02,  avg # of iterations =  1.0

     negative rho (up, down):  1.283E-01 0.000E+00

     total cpu time spent up to now is        3.0 secs

     total energy              =    -985.06888873 Ry
     estimated scf accuracy    <      10.77504682 Ry

     iteration #  5     ecut=    30.00 Ry     beta= 0.70
     Davidson diagonalization with overlap

---- Real-time Memory Report at c_bands before calling an iterative solver
           139 MiB given to the printing process from OS
             0 MiB allocation reported by mallinfo(arena+hblkhd)
        160360 MiB available memory on the node where the printing process lives
------------------
     ethr =  1.00E-02,  avg # of iterations =  2.0

     negative rho (up, down):  1.290E-01 0.000E+00

     total cpu time spent up to now is        3.1 secs

     total energy              =    -986.73785305 Ry
     estimated scf accuracy    <       5.07999574 Ry

     iteration #  6     ecut=    30.00 Ry     beta= 0.70
     Davidson diagonalization with overlap

---- Real-time Memory Report at c_bands before calling an iterative solver
           140 MiB given to the printing process from OS
             0 MiB allocation reported by mallinfo(arena+hblkhd)
        160358 MiB available memory on the node where the printing process lives
------------------
     ethr =  5.64E-03,  avg # of iterations =  1.0

     negative rho (up, down):  1.296E-01 0.000E+00

     total cpu time spent up to now is        3.2 secs

     total energy              =    -986.37192799 Ry
     estimated scf accuracy    <      24.34020724 Ry

     iteration #  7     ecut=    30.00 Ry     beta= 0.70
     Davidson diagonalization with overlap

---- Real-time Memory Report at c_bands before calling an iterative solver
           141 MiB given to the printing process from OS
             0 MiB allocation reported by mallinfo(arena+hblkhd)
        160358 MiB available memory on the node where the printing process lives
------------------
     ethr =  5.64E-03,  avg # of iterations =  3.0

     negative rho (up, down):  1.301E-01 0.000E+00

     total cpu time spent up to now is        3.4 secs

     total energy              =    -986.57402598 Ry
     estimated scf accuracy    <       2.88625051 Ry

     iteration #  8     ecut=    30.00 Ry     beta= 0.70
     Davidson diagonalization with overlap

---- Real-time Memory Report at c_bands before calling an iterative solver
           141 MiB given to the printing process from OS
             0 MiB allocation reported by mallinfo(arena+hblkhd)
        160358 MiB available memory on the node where the printing process lives
------------------
     ethr =  3.21E-03,  avg # of iterations =  1.0

     negative rho (up, down):  1.307E-01 0.000E+00

     total cpu time spent up to now is        3.5 secs

     total energy              =    -986.46562712 Ry
     estimated scf accuracy    <       1.04314565 Ry

     iteration #  9     ecut=    30.00 Ry     beta= 0.70
     Davidson diagonalization with overlap

---- Real-time Memory Report at c_bands before calling an iterative solver
           142 MiB given to the printing process from OS
             0 MiB allocation reported by mallinfo(arena+hblkhd)
        160355 MiB available memory on the node where the printing process lives
------------------
     ethr =  1.16E-03,  avg # of iterations =  1.0

     negative rho (up, down):  1.315E-01 0.000E+00

     total cpu time spent up to now is        3.6 secs

     total energy              =    -986.47271095 Ry
     estimated scf accuracy    <       0.81433216 Ry

     iteration # 10     ecut=    30.00 Ry     beta= 0.70
     Davidson diagonalization with overlap

---- Real-time Memory Report at c_bands before calling an iterative solver
           142 MiB given to the printing process from OS
             0 MiB allocation reported by mallinfo(arena+hblkhd)
        160353 MiB available memory on the node where the printing process lives
------------------
     ethr =  9.05E-04,  avg # of iterations =  1.0

     negative rho (up, down):  1.325E-01 0.000E+00

     total cpu time spent up to now is        3.8 secs

     total energy              =    -986.45705577 Ry
     estimated scf accuracy    <       3.17444043 Ry

     iteration # 11     ecut=    30.00 Ry     beta= 0.70
     Davidson diagonalization with overlap

---- Real-time Memory Report at c_bands before calling an iterative solver
           142 MiB given to the printing process from OS
             0 MiB allocation reported by mallinfo(arena+hblkhd)
        160353 MiB available memory on the node where the printing process lives
------------------
     ethr =  9.05E-04,  avg # of iterations =  1.0

     negative rho (up, down):  1.325E-01 0.000E+00

     total cpu time spent up to now is        3.9 secs

     total energy              =    -986.42071074 Ry
     estimated scf accuracy    <       5.68484531 Ry

     iteration # 12     ecut=    30.00 Ry     beta= 0.70
     Davidson diagonalization with overlap

---- Real-time Memory Report at c_bands before calling an iterative solver
           143 MiB given to the printing process from OS
             0 MiB allocation reported by mallinfo(arena+hblkhd)
        160353 MiB available memory on the node where the printing process lives
------------------
     ethr =  9.05E-04,  avg # of iterations =  1.0

     negative rho (up, down):  1.323E-01 0.000E+00

     total cpu time spent up to now is        4.0 secs

     total energy              =    -986.38174210 Ry
     estimated scf accuracy    <       2.57967295 Ry

     iteration # 13     ecut=    30.00 Ry     beta= 0.70
     Davidson diagonalization with overlap

---- Real-time Memory Report at c_bands before calling an iterative solver
           143 MiB given to the printing process from OS
             0 MiB allocation reported by mallinfo(arena+hblkhd)
        160353 MiB available memory on the node where the printing process lives
------------------
     ethr =  9.05E-04,  avg # of iterations =  1.0

     negative rho (up, down):  1.322E-01 0.000E+00

     total cpu time spent up to now is        4.1 secs

     total energy              =    -986.51180119 Ry
     estimated scf accuracy    <       0.62598950 Ry

     iteration # 14     ecut=    30.00 Ry     beta= 0.70
     Davidson diagonalization with overlap

---- Real-time Memory Report at c_bands before calling an iterative solver
           143 MiB given to the printing process from OS
             0 MiB allocation reported by mallinfo(arena+hblkhd)
        160353 MiB available memory on the node where the printing process lives
------------------
     ethr =  6.96E-04,  avg # of iterations =  1.0

     negative rho (up, down):  1.324E-01 0.000E+00

     total cpu time spent up to now is        4.3 secs

     total energy              =    -986.50320868 Ry
     estimated scf accuracy    <       0.59982566 Ry

     iteration # 15     ecut=    30.00 Ry     beta= 0.70
     Davidson diagonalization with overlap

---- Real-time Memory Report at c_bands before calling an iterative solver
           143 MiB given to the printing process from OS
             0 MiB allocation reported by mallinfo(arena+hblkhd)
        160353 MiB available memory on the node where the printing process lives
------------------
     ethr =  6.66E-04,  avg # of iterations =  1.0

     negative rho (up, down):  1.324E-01 0.000E+00

     total cpu time spent up to now is        4.4 secs

     total energy              =    -986.49425389 Ry
     estimated scf accuracy    <       0.44082337 Ry

     iteration # 16     ecut=    30.00 Ry     beta= 0.70
     Davidson diagonalization with overlap

---- Real-time Memory Report at c_bands before calling an iterative solver
           143 MiB given to the printing process from OS
             0 MiB allocation reported by mallinfo(arena+hblkhd)
        160353 MiB available memory on the node where the printing process lives
------------------
     ethr =  4.90E-04,  avg # of iterations =  1.0

     negative rho (up, down):  1.323E-01 0.000E+00

     total cpu time spent up to now is        4.5 secs

     total energy              =    -986.49904408 Ry
     estimated scf accuracy    <       0.51993882 Ry

     iteration # 17     ecut=    30.00 Ry     beta= 0.70
     Davidson diagonalization with overlap

---- Real-time Memory Report at c_bands before calling an iterative solver
           144 MiB given to the printing process from OS
             0 MiB allocation reported by mallinfo(arena+hblkhd)
        160353 MiB available memory on the node where the printing process lives
------------------
     ethr =  4.90E-04,  avg # of iterations =  1.0

     negative rho (up, down):  1.324E-01 0.000E+00

     total cpu time spent up to now is        4.7 secs

     total energy              =    -986.48500038 Ry
     estimated scf accuracy    <       0.86997978 Ry

     iteration # 18     ecut=    30.00 Ry     beta= 0.70
     Davidson diagonalization with overlap

---- Real-time Memory Report at c_bands before calling an iterative solver
           144 MiB given to the printing process from OS
             0 MiB allocation reported by mallinfo(arena+hblkhd)
        160353 MiB available memory on the node where the printing process lives
------------------
     ethr =  4.90E-04,  avg # of iterations =  1.0

     negative rho (up, down):  1.324E-01 0.000E+00

     total cpu time spent up to now is        4.8 secs

     total energy              =    -986.48119641 Ry
     estimated scf accuracy    <       0.50270661 Ry

     iteration # 19     ecut=    30.00 Ry     beta= 0.70
     Davidson diagonalization with overlap

---- Real-time Memory Report at c_bands before calling an iterative solver
           144 MiB given to the printing process from OS
             0 MiB allocation reported by mallinfo(arena+hblkhd)
        160353 MiB available memory on the node where the printing process lives
------------------
     ethr =  4.90E-04,  avg # of iterations =  1.0

     negative rho (up, down):  1.326E-01 0.000E+00

     total cpu time spent up to now is        4.9 secs

     total energy              =    -986.44470180 Ry
     estimated scf accuracy    <       0.33157857 Ry

     iteration # 20     ecut=    30.00 Ry     beta= 0.70
     Davidson diagonalization with overlap

---- Real-time Memory Report at c_bands before calling an iterative solver
           144 MiB given to the printing process from OS
             0 MiB allocation reported by mallinfo(arena+hblkhd)
        160353 MiB available memory on the node where the printing process lives
------------------
     ethr =  3.68E-04,  avg # of iterations =  2.0

     negative rho (up, down):  1.328E-01 0.000E+00

     total cpu time spent up to now is        5.0 secs

     total energy              =    -986.64881097 Ry
     estimated scf accuracy    <       6.90095671 Ry

     iteration # 21     ecut=    30.00 Ry     beta= 0.70
     Davidson diagonalization with overlap

---- Real-time Memory Report at c_bands before calling an iterative solver
           144 MiB given to the printing process from OS
             0 MiB allocation reported by mallinfo(arena+hblkhd)
        160354 MiB available memory on the node where the printing process lives
------------------
     ethr =  3.68E-04,  avg # of iterations =  2.0

     negative rho (up, down):  1.326E-01 0.000E+00

     total cpu time spent up to now is        5.2 secs

     total energy              =    -986.41149383 Ry
     estimated scf accuracy    <      14.26940273 Ry

     iteration # 22     ecut=    30.00 Ry     beta= 0.70
     Davidson diagonalization with overlap

---- Real-time Memory Report at c_bands before calling an iterative solver
           144 MiB given to the printing process from OS
             0 MiB allocation reported by mallinfo(arena+hblkhd)
        160353 MiB available memory on the node where the printing process lives
------------------
     ethr =  3.68E-04,  avg # of iterations =  2.0

     negative rho (up, down):  1.326E-01 0.000E+00

     total cpu time spent up to now is        5.4 secs

     total energy              =    -986.55168912 Ry
     estimated scf accuracy    <       6.69006561 Ry

     iteration # 23     ecut=    30.00 Ry     beta= 0.70
     Davidson diagonalization with overlap

---- Real-time Memory Report at c_bands before calling an iterative solver
           144 MiB given to the printing process from OS
             0 MiB allocation reported by mallinfo(arena+hblkhd)
        160353 MiB available memory on the node where the printing process lives
------------------
     ethr =  3.68E-04,  avg # of iterations =  1.0

     negative rho (up, down):  1.325E-01 0.000E+00

     total cpu time spent up to now is        5.5 secs

     total energy              =    -986.41223499 Ry
     estimated scf accuracy    <       6.02544046 Ry

     iteration # 24     ecut=    30.00 Ry     beta= 0.70
     Davidson diagonalization with overlap

---- Real-time Memory Report at c_bands before calling an iterative solver
           144 MiB given to the printing process from OS
             0 MiB allocation reported by mallinfo(arena+hblkhd)
        160353 MiB available memory on the node where the printing process lives
------------------
     ethr =  3.68E-04,  avg # of iterations =  1.0

     negative rho (up, down):  1.325E-01 0.000E+00

     total cpu time spent up to now is        5.6 secs

     total energy              =    -986.47767673 Ry
     estimated scf accuracy    <       0.53216874 Ry

     iteration # 25     ecut=    30.00 Ry     beta= 0.70
     Davidson diagonalization with overlap

---- Real-time Memory Report at c_bands before calling an iterative solver
           144 MiB given to the printing process from OS
             0 MiB allocation reported by mallinfo(arena+hblkhd)
        160353 MiB available memory on the node where the printing process lives
------------------
     ethr =  3.68E-04,  avg # of iterations =  1.0

     negative rho (up, down):  1.325E-01 0.000E+00

     total cpu time spent up to now is        5.8 secs

     total energy              =    -986.47921020 Ry
     estimated scf accuracy    <       0.56703204 Ry

     iteration # 26     ecut=    30.00 Ry     beta= 0.70
     Davidson diagonalization with overlap

---- Real-time Memory Report at c_bands before calling an iterative solver
           144 MiB given to the printing process from OS
             0 MiB allocation reported by mallinfo(arena+hblkhd)
        160353 MiB available memory on the node where the printing process lives
------------------
     ethr =  3.68E-04,  avg # of iterations =  1.0

     negative rho (up, down):  1.325E-01 0.000E+00

     total cpu time spent up to now is        5.9 secs

     total energy              =    -986.47012091 Ry
     estimated scf accuracy    <       0.48297198 Ry

     iteration # 27     ecut=    30.00 Ry     beta= 0.70
     Davidson diagonalization with overlap

---- Real-time Memory Report at c_bands before calling an iterative solver
           144 MiB given to the printing process from OS
             0 MiB allocation reported by mallinfo(arena+hblkhd)
        160353 MiB available memory on the node where the printing process lives
------------------
     ethr =  3.68E-04,  avg # of iterations =  1.0

     negative rho (up, down):  1.325E-01 0.000E+00

     total cpu time spent up to now is        6.1 secs

     total energy              =    -986.42942814 Ry
     estimated scf accuracy    <       4.10142334 Ry

     iteration # 28     ecut=    30.00 Ry     beta= 0.70
     Davidson diagonalization with overlap

---- Real-time Memory Report at c_bands before calling an iterative solver
           144 MiB given to the printing process from OS
             0 MiB allocation reported by mallinfo(arena+hblkhd)
        160353 MiB available memory on the node where the printing process lives
------------------
     ethr =  3.68E-04,  avg # of iterations =  2.0

     negative rho (up, down):  1.326E-01 0.000E+00

     total cpu time spent up to now is        6.2 secs

     total energy              =    -986.44038286 Ry
     estimated scf accuracy    <       2.82859350 Ry

     iteration # 29     ecut=    30.00 Ry     beta= 0.70
     Davidson diagonalization with overlap

---- Real-time Memory Report at c_bands before calling an iterative solver
           144 MiB given to the printing process from OS
             0 MiB allocation reported by mallinfo(arena+hblkhd)
        160353 MiB available memory on the node where the printing process lives
------------------
     ethr =  3.68E-04,  avg # of iterations =  1.0

     negative rho (up, down):  1.326E-01 0.000E+00

     total cpu time spent up to now is        6.3 secs

     total energy              =    -986.46339042 Ry
     estimated scf accuracy    <       2.27486939 Ry

     iteration # 30     ecut=    30.00 Ry     beta= 0.70
     Davidson diagonalization with overlap

---- Real-time Memory Report at c_bands before calling an iterative solver
           144 MiB given to the printing process from OS
             0 MiB allocation reported by mallinfo(arena+hblkhd)
        160353 MiB available memory on the node where the printing process lives
------------------
     ethr =  3.68E-04,  avg # of iterations =  1.0

     negative rho (up, down):  1.325E-01 0.000E+00

     total cpu time spent up to now is        6.5 secs

     total energy              =    -986.47313277 Ry
     estimated scf accuracy    <       0.37120023 Ry

     iteration # 31     ecut=    30.00 Ry     beta= 0.70
     Davidson diagonalization with overlap

---- Real-time Memory Report at c_bands before calling an iterative solver
           144 MiB given to the printing process from OS
             0 MiB allocation reported by mallinfo(arena+hblkhd)
        160354 MiB available memory on the node where the printing process lives
------------------
     ethr =  3.68E-04,  avg # of iterations =  1.0

     negative rho (up, down):  1.325E-01 0.000E+00

     total cpu time spent up to now is        6.6 secs

     total energy              =    -986.46899912 Ry
     estimated scf accuracy    <       0.42415529 Ry

     iteration # 32     ecut=    30.00 Ry     beta= 0.70
     Davidson diagonalization with overlap

---- Real-time Memory Report at c_bands before calling an iterative solver
           144 MiB given to the printing process from OS
             0 MiB allocation reported by mallinfo(arena+hblkhd)
        160354 MiB available memory on the node where the printing process lives
------------------
     ethr =  3.68E-04,  avg # of iterations =  1.0

     negative rho (up, down):  1.325E-01 0.000E+00

     total cpu time spent up to now is        6.7 secs

     total energy              =    -986.42143001 Ry
     estimated scf accuracy    <       4.40076872 Ry

     iteration # 33     ecut=    30.00 Ry     beta= 0.70
     Davidson diagonalization with overlap

---- Real-time Memory Report at c_bands before calling an iterative solver
           144 MiB given to the printing process from OS
             0 MiB allocation reported by mallinfo(arena+hblkhd)
        160354 MiB available memory on the node where the printing process lives
------------------
     ethr =  3.68E-04,  avg # of iterations =  1.0

     negative rho (up, down):  1.325E-01 0.000E+00

     total cpu time spent up to now is        6.8 secs

     total energy              =    -986.45539267 Ry
     estimated scf accuracy    <       1.45157492 Ry

     iteration # 34     ecut=    30.00 Ry     beta= 0.70
     Davidson diagonalization with overlap

---- Real-time Memory Report at c_bands before calling an iterative solver
           144 MiB given to the printing process from OS
             0 MiB allocation reported by mallinfo(arena+hblkhd)
        160354 MiB available memory on the node where the printing process lives
------------------
     ethr =  3.68E-04,  avg # of iterations =  1.0

     negative rho (up, down):  1.325E-01 0.000E+00

     total cpu time spent up to now is        7.0 secs

     total energy              =    -986.46689405 Ry
     estimated scf accuracy    <       0.47028703 Ry

     iteration # 35     ecut=    30.00 Ry     beta= 0.70
     Davidson diagonalization with overlap

---- Real-time Memory Report at c_bands before calling an iterative solver
           144 MiB given to the printing process from OS
             0 MiB allocation reported by mallinfo(arena+hblkhd)
        160354 MiB available memory on the node where the printing process lives
------------------
     ethr =  3.68E-04,  avg # of iterations =  1.0

     negative rho (up, down):  1.325E-01 0.000E+00

     total cpu time spent up to now is        7.1 secs

     total energy              =    -986.46447499 Ry
     estimated scf accuracy    <       1.03267352 Ry

     iteration # 36     ecut=    30.00 Ry     beta= 0.70
     Davidson diagonalization with overlap

---- Real-time Memory Report at c_bands before calling an iterative solver
           144 MiB given to the printing process from OS
             0 MiB allocation reported by mallinfo(arena+hblkhd)
        160354 MiB available memory on the node where the printing process lives
------------------
     ethr =  3.68E-04,  avg # of iterations =  1.0

     negative rho (up, down):  1.325E-01 0.000E+00

     total cpu time spent up to now is        7.2 secs

     total energy              =    -986.46884692 Ry
     estimated scf accuracy    <       0.58054616 Ry

     iteration # 37     ecut=    30.00 Ry     beta= 0.70
     Davidson diagonalization with overlap

---- Real-time Memory Report at c_bands before calling an iterative solver
           144 MiB given to the printing process from OS
             0 MiB allocation reported by mallinfo(arena+hblkhd)
        160354 MiB available memory on the node where the printing process lives
------------------
     ethr =  3.68E-04,  avg # of iterations =  1.0

     negative rho (up, down):  1.325E-01 0.000E+00

     total cpu time spent up to now is        7.3 secs

     total energy              =    -986.45579408 Ry
     estimated scf accuracy    <       2.81396259 Ry

     iteration # 38     ecut=    30.00 Ry     beta= 0.70
     Davidson diagonalization with overlap

---- Real-time Memory Report at c_bands before calling an iterative solver
           144 MiB given to the printing process from OS
             0 MiB allocation reported by mallinfo(arena+hblkhd)
        160354 MiB available memory on the node where the printing process lives
------------------
     ethr =  3.68E-04,  avg # of iterations =  1.0

     negative rho (up, down):  1.325E-01 0.000E+00

     total cpu time spent up to now is        7.5 secs

     total energy              =    -986.47181636 Ry
     estimated scf accuracy    <       0.40608053 Ry

     iteration # 39     ecut=    30.00 Ry     beta= 0.70
     Davidson diagonalization with overlap

---- Real-time Memory Report at c_bands before calling an iterative solver
           144 MiB given to the printing process from OS
             0 MiB allocation reported by mallinfo(arena+hblkhd)
        160354 MiB available memory on the node where the printing process lives
------------------
     ethr =  3.68E-04,  avg # of iterations =  1.0

     negative rho (up, down):  1.325E-01 0.000E+00

     total cpu time spent up to now is        7.6 secs

     total energy              =    -986.47321382 Ry
     estimated scf accuracy    <       0.19563526 Ry

     iteration # 40     ecut=    30.00 Ry     beta= 0.70
     Davidson diagonalization with overlap

---- Real-time Memory Report at c_bands before calling an iterative solver
           145 MiB given to the printing process from OS
             0 MiB allocation reported by mallinfo(arena+hblkhd)
        160354 MiB available memory on the node where the printing process lives
------------------
     ethr =  2.17E-04,  avg # of iterations =  1.0

     negative rho (up, down):  1.325E-01 0.000E+00

     total cpu time spent up to now is        7.7 secs

     total energy              =    -986.46405557 Ry
     estimated scf accuracy    <       0.73380439 Ry

     iteration # 41     ecut=    30.00 Ry     beta= 0.70
     Davidson diagonalization with overlap

---- Real-time Memory Report at c_bands before calling an iterative solver
           145 MiB given to the printing process from OS
             0 MiB allocation reported by mallinfo(arena+hblkhd)
        160354 MiB available memory on the node where the printing process lives
------------------
     ethr =  2.17E-04,  avg # of iterations =  1.0

     negative rho (up, down):  1.325E-01 0.000E+00

     total cpu time spent up to now is        7.9 secs

     total energy              =    -986.45546156 Ry
     estimated scf accuracy    <       1.03960657 Ry

     iteration # 42     ecut=    30.00 Ry     beta= 0.70
     Davidson diagonalization with overlap

---- Real-time Memory Report at c_bands before calling an iterative solver
           145 MiB given to the printing process from OS
             0 MiB allocation reported by mallinfo(arena+hblkhd)
        160354 MiB available memory on the node where the printing process lives
------------------
     ethr =  2.17E-04,  avg # of iterations =  1.0

     negative rho (up, down):  1.325E-01 0.000E+00

     total cpu time spent up to now is        8.0 secs

     total energy              =    -986.36920378 Ry
     estimated scf accuracy    <      10.53381219 Ry

     iteration # 43     ecut=    30.00 Ry     beta= 0.70
     Davidson diagonalization with overlap

---- Real-time Memory Report at c_bands before calling an iterative solver
           145 MiB given to the printing process from OS
             0 MiB allocation reported by mallinfo(arena+hblkhd)
        160354 MiB available memory on the node where the printing process lives
------------------
     ethr =  2.17E-04,  avg # of iterations =  2.0

     negative rho (up, down):  1.326E-01 0.000E+00

     total cpu time spent up to now is        8.1 secs

     total energy              =    -986.44452574 Ry
     estimated scf accuracy    <       6.42256227 Ry

     iteration # 44     ecut=    30.00 Ry     beta= 0.70
     Davidson diagonalization with overlap

---- Real-time Memory Report at c_bands before calling an iterative solver
           145 MiB given to the printing process from OS
             0 MiB allocation reported by mallinfo(arena+hblkhd)
        160354 MiB available memory on the node where the printing process lives
------------------
     ethr =  2.17E-04,  avg # of iterations =  1.0

     negative rho (up, down):  1.325E-01 0.000E+00

     total cpu time spent up to now is        8.2 secs

     total energy              =    -986.46171134 Ry
     estimated scf accuracy    <       0.43096156 Ry

     iteration # 45     ecut=    30.00 Ry     beta= 0.70
     Davidson diagonalization with overlap

---- Real-time Memory Report at c_bands before calling an iterative solver
           145 MiB given to the printing process from OS
             0 MiB allocation reported by mallinfo(arena+hblkhd)
        160354 MiB available memory on the node where the printing process lives
------------------
     ethr =  2.17E-04,  avg # of iterations =  1.0

     negative rho (up, down):  1.325E-01 0.000E+00

     total cpu time spent up to now is        8.4 secs

     total energy              =    -986.47374290 Ry
     estimated scf accuracy    <       0.84483732 Ry

     iteration # 46     ecut=    30.00 Ry     beta= 0.70
     Davidson diagonalization with overlap

---- Real-time Memory Report at c_bands before calling an iterative solver
           145 MiB given to the printing process from OS
             0 MiB allocation reported by mallinfo(arena+hblkhd)
        160354 MiB available memory on the node where the printing process lives
------------------
     ethr =  2.17E-04,  avg # of iterations =  1.0

     negative rho (up, down):  1.325E-01 0.000E+00

     total cpu time spent up to now is        8.5 secs

     total energy              =    -986.46584455 Ry
     estimated scf accuracy    <       0.57291791 Ry

     iteration # 47     ecut=    30.00 Ry     beta= 0.70
     Davidson diagonalization with overlap

---- Real-time Memory Report at c_bands before calling an iterative solver
           145 MiB given to the printing process from OS
             0 MiB allocation reported by mallinfo(arena+hblkhd)
        160354 MiB available memory on the node where the printing process lives
------------------
     ethr =  2.17E-04,  avg # of iterations =  1.0

     negative rho (up, down):  1.325E-01 0.000E+00

     total cpu time spent up to now is        8.6 secs

     total energy              =    -986.46605618 Ry
     estimated scf accuracy    <       1.78260998 Ry

     iteration # 48     ecut=    30.00 Ry     beta= 0.70
     Davidson diagonalization with overlap

---- Real-time Memory Report at c_bands before calling an iterative solver
           145 MiB given to the printing process from OS
             0 MiB allocation reported by mallinfo(arena+hblkhd)
        160355 MiB available memory on the node where the printing process lives
------------------
     ethr =  2.17E-04,  avg # of iterations =  1.0

     negative rho (up, down):  1.325E-01 0.000E+00

     total cpu time spent up to now is        8.8 secs

     total energy              =    -986.47225331 Ry
     estimated scf accuracy    <       0.24703513 Ry

     iteration # 49     ecut=    30.00 Ry     beta= 0.70
     Davidson diagonalization with overlap

---- Real-time Memory Report at c_bands before calling an iterative solver
           145 MiB given to the printing process from OS
             0 MiB allocation reported by mallinfo(arena+hblkhd)
        160355 MiB available memory on the node where the printing process lives
------------------
     ethr =  2.17E-04,  avg # of iterations =  1.0

     negative rho (up, down):  1.325E-01 0.000E+00

     total cpu time spent up to now is        8.9 secs

     total energy              =    -986.47013747 Ry
     estimated scf accuracy    <       0.19273364 Ry

     iteration # 50     ecut=    30.00 Ry     beta= 0.70
     Davidson diagonalization with overlap

---- Real-time Memory Report at c_bands before calling an iterative solver
           145 MiB given to the printing process from OS
             0 MiB allocation reported by mallinfo(arena+hblkhd)
        160355 MiB available memory on the node where the printing process lives
------------------
     ethr =  2.14E-04,  avg # of iterations =  1.0

     negative rho (up, down):  1.325E-01 0.000E+00

     total cpu time spent up to now is        9.0 secs

     total energy              =    -986.47176742 Ry
     estimated scf accuracy    <       0.15511260 Ry

     iteration # 51     ecut=    30.00 Ry     beta= 0.70
     Davidson diagonalization with overlap

---- Real-time Memory Report at c_bands before calling an iterative solver
           145 MiB given to the printing process from OS
             0 MiB allocation reported by mallinfo(arena+hblkhd)
        160355 MiB available memory on the node where the printing process lives
------------------
     ethr =  1.72E-04,  avg # of iterations =  1.0

     negative rho (up, down):  1.325E-01 0.000E+00

     total cpu time spent up to now is        9.2 secs

     total energy              =    -986.45617629 Ry
     estimated scf accuracy    <       0.89923226 Ry

     iteration # 52     ecut=    30.00 Ry     beta= 0.70
     Davidson diagonalization with overlap

---- Real-time Memory Report at c_bands before calling an iterative solver
           145 MiB given to the printing process from OS
             0 MiB allocation reported by mallinfo(arena+hblkhd)
        160353 MiB available memory on the node where the printing process lives
------------------
     ethr =  1.72E-04,  avg # of iterations =  1.0

     negative rho (up, down):  1.326E-01 0.000E+00

     total cpu time spent up to now is        9.3 secs

     total energy              =    -986.42258150 Ry
     estimated scf accuracy    <       7.59347566 Ry

     iteration # 53     ecut=    30.00 Ry     beta= 0.70
     Davidson diagonalization with overlap

---- Real-time Memory Report at c_bands before calling an iterative solver
           145 MiB given to the printing process from OS
             0 MiB allocation reported by mallinfo(arena+hblkhd)
        160353 MiB available memory on the node where the printing process lives
------------------
     ethr =  1.72E-04,  avg # of iterations =  2.0

     negative rho (up, down):  1.326E-01 0.000E+00

     total cpu time spent up to now is        9.4 secs

     total energy              =    -986.43682863 Ry
     estimated scf accuracy    <       7.08196489 Ry

     iteration # 54     ecut=    30.00 Ry     beta= 0.70
     Davidson diagonalization with overlap

---- Real-time Memory Report at c_bands before calling an iterative solver
           145 MiB given to the printing process from OS
             0 MiB allocation reported by mallinfo(arena+hblkhd)
        160353 MiB available memory on the node where the printing process lives
------------------
     ethr =  1.72E-04,  avg # of iterations =  1.0

     negative rho (up, down):  1.326E-01 0.000E+00

     total cpu time spent up to now is        9.6 secs

     total energy              =    -986.45623433 Ry
     estimated scf accuracy    <       0.99637154 Ry

     iteration # 55     ecut=    30.00 Ry     beta= 0.70
     Davidson diagonalization with overlap

---- Real-time Memory Report at c_bands before calling an iterative solver
           145 MiB given to the printing process from OS
             0 MiB allocation reported by mallinfo(arena+hblkhd)
        160354 MiB available memory on the node where the printing process lives
------------------
     ethr =  1.72E-04,  avg # of iterations =  1.0

     negative rho (up, down):  1.325E-01 0.000E+00

     total cpu time spent up to now is        9.7 secs

     total energy              =    -986.47044732 Ry
     estimated scf accuracy    <       0.34356214 Ry

     iteration # 56     ecut=    30.00 Ry     beta= 0.70
     Davidson diagonalization with overlap

---- Real-time Memory Report at c_bands before calling an iterative solver
           145 MiB given to the printing process from OS
             0 MiB allocation reported by mallinfo(arena+hblkhd)
        160354 MiB available memory on the node where the printing process lives
------------------
     ethr =  1.72E-04,  avg # of iterations =  1.0

     negative rho (up, down):  1.325E-01 0.000E+00

     total cpu time spent up to now is        9.8 secs

     total energy              =    -986.46668748 Ry
     estimated scf accuracy    <       1.60011531 Ry

     iteration # 57     ecut=    30.00 Ry     beta= 0.70
     Davidson diagonalization with overlap

---- Real-time Memory Report at c_bands before calling an iterative solver
           145 MiB given to the printing process from OS
             0 MiB allocation reported by mallinfo(arena+hblkhd)
        160354 MiB available memory on the node where the printing process lives
------------------
     ethr =  1.72E-04,  avg # of iterations =  1.0

     negative rho (up, down):  1.325E-01 0.000E+00

     total cpu time spent up to now is        9.9 secs

     total energy              =    -986.44801436 Ry
     estimated scf accuracy    <       0.67122814 Ry

     iteration # 58     ecut=    30.00 Ry     beta= 0.70
     Davidson diagonalization with overlap

---- Real-time Memory Report at c_bands before calling an iterative solver
           145 MiB given to the printing process from OS
             0 MiB allocation reported by mallinfo(arena+hblkhd)
        160354 MiB available memory on the node where the printing process lives
------------------
     ethr =  1.72E-04,  avg # of iterations =  2.0

     negative rho (up, down):  1.325E-01 0.000E+00

     total cpu time spent up to now is       10.1 secs

     total energy              =    -986.44678271 Ry
     estimated scf accuracy    <       1.25958381 Ry

     iteration # 59     ecut=    30.00 Ry     beta= 0.70
     Davidson diagonalization with overlap

---- Real-time Memory Report at c_bands before calling an iterative solver
           145 MiB given to the printing process from OS
             0 MiB allocation reported by mallinfo(arena+hblkhd)
        160354 MiB available memory on the node where the printing process lives
------------------
     ethr =  1.72E-04,  avg # of iterations =  2.0

     negative rho (up, down):  1.325E-01 0.000E+00

     total cpu time spent up to now is       10.2 secs

     total energy              =    -986.47090865 Ry
     estimated scf accuracy    <       0.47043067 Ry

     iteration # 60     ecut=    30.00 Ry     beta= 0.70
     Davidson diagonalization with overlap

---- Real-time Memory Report at c_bands before calling an iterative solver
           145 MiB given to the printing process from OS
             0 MiB allocation reported by mallinfo(arena+hblkhd)
        160354 MiB available memory on the node where the printing process lives
------------------
     ethr =  1.72E-04,  avg # of iterations =  1.0

     negative rho (up, down):  1.325E-01 0.000E+00

     total cpu time spent up to now is       10.4 secs

     total energy              =    -986.45933695 Ry
     estimated scf accuracy    <       0.65245465 Ry

     iteration # 61     ecut=    30.00 Ry     beta= 0.70
     Davidson diagonalization with overlap

---- Real-time Memory Report at c_bands before calling an iterative solver
           145 MiB given to the printing process from OS
             0 MiB allocation reported by mallinfo(arena+hblkhd)
        160354 MiB available memory on the node where the printing process lives
------------------
     ethr =  1.72E-04,  avg # of iterations =  2.0

     negative rho (up, down):  1.325E-01 0.000E+00

     total cpu time spent up to now is       10.5 secs

     total energy              =    -986.42119272 Ry
     estimated scf accuracy    <       2.62059712 Ry

     iteration # 62     ecut=    30.00 Ry     beta= 0.70
     Davidson diagonalization with overlap

---- Real-time Memory Report at c_bands before calling an iterative solver
           145 MiB given to the printing process from OS
             0 MiB allocation reported by mallinfo(arena+hblkhd)
        160355 MiB available memory on the node where the printing process lives
------------------
     ethr =  1.72E-04,  avg # of iterations =  2.0

     negative rho (up, down):  1.325E-01 0.000E+00

     total cpu time spent up to now is       10.7 secs

     total energy              =    -986.47419162 Ry
     estimated scf accuracy    <       0.19876733 Ry

     iteration # 63     ecut=    30.00 Ry     beta= 0.70
     Davidson diagonalization with overlap

---- Real-time Memory Report at c_bands before calling an iterative solver
           145 MiB given to the printing process from OS
             0 MiB allocation reported by mallinfo(arena+hblkhd)
        160355 MiB available memory on the node where the printing process lives
------------------
     ethr =  1.72E-04,  avg # of iterations =  1.0

     negative rho (up, down):  1.325E-01 0.000E+00

     total cpu time spent up to now is       10.8 secs

     total energy              =    -986.47208584 Ry
     estimated scf accuracy    <       0.42270560 Ry

     iteration # 64     ecut=    30.00 Ry     beta= 0.70
     Davidson diagonalization with overlap

---- Real-time Memory Report at c_bands before calling an iterative solver
           145 MiB given to the printing process from OS
             0 MiB allocation reported by mallinfo(arena+hblkhd)
        160355 MiB available memory on the node where the printing process lives
------------------
     ethr =  1.72E-04,  avg # of iterations =  1.0

     negative rho (up, down):  1.325E-01 0.000E+00

     total cpu time spent up to now is       10.9 secs

     total energy              =    -986.46283057 Ry
     estimated scf accuracy    <       1.61932483 Ry

     iteration # 65     ecut=    30.00 Ry     beta= 0.70
     Davidson diagonalization with overlap

---- Real-time Memory Report at c_bands before calling an iterative solver
           145 MiB given to the printing process from OS
             0 MiB allocation reported by mallinfo(arena+hblkhd)
        160355 MiB available memory on the node where the printing process lives
------------------
     ethr =  1.72E-04,  avg # of iterations =  1.0

     negative rho (up, down):  1.325E-01 0.000E+00

     total cpu time spent up to now is       11.0 secs

     total energy              =    -986.45263506 Ry
     estimated scf accuracy    <       0.91491127 Ry

     iteration # 66     ecut=    30.00 Ry     beta= 0.70
     Davidson diagonalization with overlap

---- Real-time Memory Report at c_bands before calling an iterative solver
           145 MiB given to the printing process from OS
             0 MiB allocation reported by mallinfo(arena+hblkhd)
        160355 MiB available memory on the node where the printing process lives
------------------
     ethr =  1.72E-04,  avg # of iterations =  1.0

     negative rho (up, down):  1.325E-01 0.000E+00

     total cpu time spent up to now is       11.2 secs

     total energy              =    -986.45577991 Ry
     estimated scf accuracy    <       2.14232654 Ry

     iteration # 67     ecut=    30.00 Ry     beta= 0.70
     Davidson diagonalization with overlap

---- Real-time Memory Report at c_bands before calling an iterative solver
           145 MiB given to the printing process from OS
             0 MiB allocation reported by mallinfo(arena+hblkhd)
        160355 MiB available memory on the node where the printing process lives
------------------
     ethr =  1.72E-04,  avg # of iterations =  1.0

     negative rho (up, down):  1.325E-01 0.000E+00

     total cpu time spent up to now is       11.3 secs

     total energy              =    -986.45144057 Ry
     estimated scf accuracy    <       1.55957779 Ry

     iteration # 68     ecut=    30.00 Ry     beta= 0.70
     Davidson diagonalization with overlap

---- Real-time Memory Report at c_bands before calling an iterative solver
           145 MiB given to the printing process from OS
             0 MiB allocation reported by mallinfo(arena+hblkhd)
        160355 MiB available memory on the node where the printing process lives
------------------
     ethr =  1.72E-04,  avg # of iterations =  1.0

     negative rho (up, down):  1.325E-01 0.000E+00

     total cpu time spent up to now is       11.4 secs

     total energy              =    -986.46820568 Ry
     estimated scf accuracy    <       0.53257170 Ry

     iteration # 69     ecut=    30.00 Ry     beta= 0.70
     Davidson diagonalization with overlap

---- Real-time Memory Report at c_bands before calling an iterative solver
           145 MiB given to the printing process from OS
             0 MiB allocation reported by mallinfo(arena+hblkhd)
        160355 MiB available memory on the node where the printing process lives
------------------
     ethr =  1.72E-04,  avg # of iterations =  1.0

     negative rho (up, down):  1.325E-01 0.000E+00

     total cpu time spent up to now is       11.5 secs

     total energy              =    -986.43308722 Ry
     estimated scf accuracy    <       3.66641777 Ry

     iteration # 70     ecut=    30.00 Ry     beta= 0.70
     Davidson diagonalization with overlap

---- Real-time Memory Report at c_bands before calling an iterative solver
           145 MiB given to the printing process from OS
             0 MiB allocation reported by mallinfo(arena+hblkhd)
        160356 MiB available memory on the node where the printing process lives
------------------
     ethr =  1.72E-04,  avg # of iterations =  1.0

     negative rho (up, down):  1.325E-01 0.000E+00

     total cpu time spent up to now is       11.7 secs

     total energy              =    -986.46068927 Ry
     estimated scf accuracy    <       0.71699279 Ry

     iteration # 71     ecut=    30.00 Ry     beta= 0.70
     Davidson diagonalization with overlap

---- Real-time Memory Report at c_bands before calling an iterative solver
           145 MiB given to the printing process from OS
             0 MiB allocation reported by mallinfo(arena+hblkhd)
        160356 MiB available memory on the node where the printing process lives
------------------
     ethr =  1.72E-04,  avg # of iterations =  1.0

     negative rho (up, down):  1.325E-01 0.000E+00

     total cpu time spent up to now is       11.8 secs

     total energy              =    -986.44891334 Ry
     estimated scf accuracy    <       1.01597009 Ry

     iteration # 72     ecut=    30.00 Ry     beta= 0.70
     Davidson diagonalization with overlap

---- Real-time Memory Report at c_bands before calling an iterative solver
           145 MiB given to the printing process from OS
             0 MiB allocation reported by mallinfo(arena+hblkhd)
        160356 MiB available memory on the node where the printing process lives
------------------
     ethr =  1.72E-04,  avg # of iterations =  1.0

     negative rho (up, down):  1.325E-01 0.000E+00

     total cpu time spent up to now is       11.9 secs

     total energy              =    -986.46152913 Ry
     estimated scf accuracy    <       1.94093295 Ry

     iteration # 73     ecut=    30.00 Ry     beta= 0.70
     Davidson diagonalization with overlap

---- Real-time Memory Report at c_bands before calling an iterative solver
           145 MiB given to the printing process from OS
             0 MiB allocation reported by mallinfo(arena+hblkhd)
        160356 MiB available memory on the node where the printing process lives
------------------
     ethr =  1.72E-04,  avg # of iterations =  1.0

     negative rho (up, down):  1.325E-01 0.000E+00

     total cpu time spent up to now is       12.1 secs

     total energy              =    -986.46454139 Ry
     estimated scf accuracy    <       0.44960801 Ry

     iteration # 74     ecut=    30.00 Ry     beta= 0.70
     Davidson diagonalization with overlap

---- Real-time Memory Report at c_bands before calling an iterative solver
           145 MiB given to the printing process from OS
             0 MiB allocation reported by mallinfo(arena+hblkhd)
        160356 MiB available memory on the node where the printing process lives
------------------
     ethr =  1.72E-04,  avg # of iterations =  1.0

     negative rho (up, down):  1.325E-01 0.000E+00

     total cpu time spent up to now is       12.2 secs

     total energy              =    -986.42786122 Ry
     estimated scf accuracy    <       3.41192513 Ry

     iteration # 75     ecut=    30.00 Ry     beta= 0.70
     Davidson diagonalization with overlap

---- Real-time Memory Report at c_bands before calling an iterative solver
           145 MiB given to the printing process from OS
             0 MiB allocation reported by mallinfo(arena+hblkhd)
        160356 MiB available memory on the node where the printing process lives
------------------
     ethr =  1.72E-04,  avg # of iterations =  2.0

     negative rho (up, down):  1.325E-01 0.000E+00

     total cpu time spent up to now is       12.3 secs

     WARNING: integrated charge=    90.00033664, expected=    90.00000000

     total energy              =    -986.45727894 Ry
     estimated scf accuracy    <       0.52728899 Ry

     iteration # 76     ecut=    30.00 Ry     beta= 0.70
     Davidson diagonalization with overlap

---- Real-time Memory Report at c_bands before calling an iterative solver
           145 MiB given to the printing process from OS
             0 MiB allocation reported by mallinfo(arena+hblkhd)
        160356 MiB available memory on the node where the printing process lives
------------------
     ethr =  1.72E-04,  avg # of iterations =  1.0

     negative rho (up, down):  1.325E-01 0.000E+00

     total cpu time spent up to now is       12.5 secs

     WARNING: integrated charge=    90.00065587, expected=    90.00000000

     total energy              =    -986.47254956 Ry
     estimated scf accuracy    <       0.54596196 Ry

     iteration # 77     ecut=    30.00 Ry     beta= 0.70
     Davidson diagonalization with overlap

---- Real-time Memory Report at c_bands before calling an iterative solver
           145 MiB given to the printing process from OS
             0 MiB allocation reported by mallinfo(arena+hblkhd)
        160356 MiB available memory on the node where the printing process lives
------------------
     ethr =  1.72E-04,  avg # of iterations =  1.0
     Minimization algorithm failed to find Fermi energy: reverting to bisection
     Possible cause: smearing is larger than the electronic band-gap.

     negative rho (up, down):  1.325E-01 0.000E+00

     total cpu time spent up to now is       12.6 secs

     WARNING: integrated charge=    90.00077543, expected=    90.00000000

     total energy              =    -986.47494434 Ry
     estimated scf accuracy    <       0.43221368 Ry

     iteration # 78     ecut=    30.00 Ry     beta= 0.70
     Davidson diagonalization with overlap

---- Real-time Memory Report at c_bands before calling an iterative solver
           145 MiB given to the printing process from OS
             0 MiB allocation reported by mallinfo(arena+hblkhd)
        160355 MiB available memory on the node where the printing process lives
------------------
     ethr =  1.72E-04,  avg # of iterations =  1.0

     negative rho (up, down):  1.325E-01 0.000E+00

     total cpu time spent up to now is       12.7 secs

     WARNING: integrated charge=    90.00090526, expected=    90.00000000

     total energy              =    -986.46939604 Ry
     estimated scf accuracy    <       0.15941937 Ry

     iteration # 79     ecut=    30.00 Ry     beta= 0.70
     Davidson diagonalization with overlap

---- Real-time Memory Report at c_bands before calling an iterative solver
           145 MiB given to the printing process from OS
             0 MiB allocation reported by mallinfo(arena+hblkhd)
        160355 MiB available memory on the node where the printing process lives
------------------
     ethr =  1.72E-04,  avg # of iterations =  2.0

     negative rho (up, down):  1.326E-01 0.000E+00

     total cpu time spent up to now is       12.8 secs

     WARNING: integrated charge=    90.00120422, expected=    90.00000000

     total energy              =    -986.38458317 Ry
     estimated scf accuracy    <       9.41886571 Ry

     iteration # 80     ecut=    30.00 Ry     beta= 0.70
     Davidson diagonalization with overlap

---- Real-time Memory Report at c_bands before calling an iterative solver
           145 MiB given to the printing process from OS
             0 MiB allocation reported by mallinfo(arena+hblkhd)
        160355 MiB available memory on the node where the printing process lives
------------------
     ethr =  1.72E-04,  avg # of iterations =  2.0

     negative rho (up, down):  1.326E-01 0.000E+00

     total cpu time spent up to now is       13.0 secs

     WARNING: integrated charge=    90.00071659, expected=    90.00000000

     total energy              =    -986.45608812 Ry
     estimated scf accuracy    <       3.56588120 Ry

     iteration # 81     ecut=    30.00 Ry     beta= 0.70
     Davidson diagonalization with overlap

---- Real-time Memory Report at c_bands before calling an iterative solver
           145 MiB given to the printing process from OS
             0 MiB allocation reported by mallinfo(arena+hblkhd)
        160355 MiB available memory on the node where the printing process lives
------------------
     ethr =  1.72E-04,  avg # of iterations =  1.0

     negative rho (up, down):  1.326E-01 0.000E+00

     total cpu time spent up to now is       13.1 secs

     WARNING: integrated charge=    90.00078680, expected=    90.00000000

     total energy              =    -986.44806142 Ry
     estimated scf accuracy    <       1.40090853 Ry

     iteration # 82     ecut=    30.00 Ry     beta= 0.70
     Davidson diagonalization with overlap

---- Real-time Memory Report at c_bands before calling an iterative solver
           145 MiB given to the printing process from OS
             0 MiB allocation reported by mallinfo(arena+hblkhd)
        160355 MiB available memory on the node where the printing process lives
------------------
     ethr =  1.72E-04,  avg # of iterations =  1.0

     negative rho (up, down):  1.325E-01 0.000E+00

     total cpu time spent up to now is       13.3 secs

     WARNING: integrated charge=    90.00089548, expected=    90.00000000

     total energy              =    -986.46416155 Ry
     estimated scf accuracy    <       1.08595517 Ry

     iteration # 83     ecut=    30.00 Ry     beta= 0.70
     Davidson diagonalization with overlap

---- Real-time Memory Report at c_bands before calling an iterative solver
           145 MiB given to the printing process from OS
             0 MiB allocation reported by mallinfo(arena+hblkhd)
        160355 MiB available memory on the node where the printing process lives
------------------
     ethr =  1.72E-04,  avg # of iterations =  1.0

     negative rho (up, down):  1.325E-01 0.000E+00

     total cpu time spent up to now is       13.4 secs

     WARNING: integrated charge=    90.00089020, expected=    90.00000000

     total energy              =    -986.46778934 Ry
     estimated scf accuracy    <       0.64328817 Ry

     iteration # 84     ecut=    30.00 Ry     beta= 0.70
     Davidson diagonalization with overlap

---- Real-time Memory Report at c_bands before calling an iterative solver
           145 MiB given to the printing process from OS
             0 MiB allocation reported by mallinfo(arena+hblkhd)
        160355 MiB available memory on the node where the printing process lives
------------------
     ethr =  1.72E-04,  avg # of iterations =  1.0

     negative rho (up, down):  1.325E-01 0.000E+00

     total cpu time spent up to now is       13.5 secs

     WARNING: integrated charge=    90.00022209, expected=    90.00000000

     total energy              =    -986.46459230 Ry
     estimated scf accuracy    <       1.35524114 Ry

     iteration # 85     ecut=    30.00 Ry     beta= 0.70
     Davidson diagonalization with overlap

---- Real-time Memory Report at c_bands before calling an iterative solver
           145 MiB given to the printing process from OS
             0 MiB allocation reported by mallinfo(arena+hblkhd)
        160355 MiB available memory on the node where the printing process lives
------------------
     ethr =  1.72E-04,  avg # of iterations =  1.0

     negative rho (up, down):  1.325E-01 0.000E+00

     total cpu time spent up to now is       13.7 secs

     WARNING: integrated charge=    90.00023011, expected=    90.00000000

     total energy              =    -986.46235354 Ry
     estimated scf accuracy    <       0.60456384 Ry

     iteration # 86     ecut=    30.00 Ry     beta= 0.70
     Davidson diagonalization with overlap

---- Real-time Memory Report at c_bands before calling an iterative solver
           145 MiB given to the printing process from OS
             0 MiB allocation reported by mallinfo(arena+hblkhd)
        160355 MiB available memory on the node where the printing process lives
------------------
     ethr =  1.72E-04,  avg # of iterations =  1.0

     negative rho (up, down):  1.325E-01 0.000E+00

     total cpu time spent up to now is       13.8 secs

     WARNING: integrated charge=    90.00020078, expected=    90.00000000

     total energy              =    -986.46793900 Ry
     estimated scf accuracy    <       0.94780080 Ry

     iteration # 87     ecut=    30.00 Ry     beta= 0.70
     Davidson diagonalization with overlap

---- Real-time Memory Report at c_bands before calling an iterative solver
           145 MiB given to the printing process from OS
             0 MiB allocation reported by mallinfo(arena+hblkhd)
        160355 MiB available memory on the node where the printing process lives
------------------
     ethr =  1.72E-04,  avg # of iterations =  1.0

     negative rho (up, down):  1.325E-01 0.000E+00

     total cpu time spent up to now is       13.9 secs

     WARNING: integrated charge=    90.00011556, expected=    90.00000000

     total energy              =    -986.46220605 Ry
     estimated scf accuracy    <       0.13113514 Ry

     iteration # 88     ecut=    30.00 Ry     beta= 0.70
     Davidson diagonalization with overlap

---- Real-time Memory Report at c_bands before calling an iterative solver
           145 MiB given to the printing process from OS
             0 MiB allocation reported by mallinfo(arena+hblkhd)
        160355 MiB available memory on the node where the printing process lives
------------------
     ethr =  1.46E-04,  avg # of iterations =  1.0

     negative rho (up, down):  1.325E-01 0.000E+00

     total cpu time spent up to now is       14.0 secs

     WARNING: integrated charge=    90.00011231, expected=    90.00000000

     total energy              =    -986.47576296 Ry
     estimated scf accuracy    <       0.46548547 Ry

     iteration # 89     ecut=    30.00 Ry     beta= 0.70
     Davidson diagonalization with overlap

---- Real-time Memory Report at c_bands before calling an iterative solver
           145 MiB given to the printing process from OS
             0 MiB allocation reported by mallinfo(arena+hblkhd)
        160355 MiB available memory on the node where the printing process lives
------------------
     ethr =  1.46E-04,  avg # of iterations =  1.0

     negative rho (up, down):  1.325E-01 0.000E+00

     total cpu time spent up to now is       14.2 secs

     WARNING: integrated charge=    90.00011506, expected=    90.00000000

     total energy              =    -986.47771707 Ry
     estimated scf accuracy    <       0.59235801 Ry

     iteration # 90     ecut=    30.00 Ry     beta= 0.70
     Davidson diagonalization with overlap

---- Real-time Memory Report at c_bands before calling an iterative solver
           145 MiB given to the printing process from OS
             0 MiB allocation reported by mallinfo(arena+hblkhd)
        160355 MiB available memory on the node where the printing process lives
------------------
     ethr =  1.46E-04,  avg # of iterations =  1.0

     negative rho (up, down):  1.325E-01 0.000E+00

     total cpu time spent up to now is       14.3 secs

     WARNING: integrated charge=    90.00011112, expected=    90.00000000

     total energy              =    -986.47771427 Ry
     estimated scf accuracy    <       0.20084284 Ry

     iteration # 91     ecut=    30.00 Ry     beta= 0.70
     Davidson diagonalization with overlap

---- Real-time Memory Report at c_bands before calling an iterative solver
           145 MiB given to the printing process from OS
             0 MiB allocation reported by mallinfo(arena+hblkhd)
        160355 MiB available memory on the node where the printing process lives
------------------
     ethr =  1.46E-04,  avg # of iterations =  1.0

     negative rho (up, down):  1.325E-01 0.000E+00

     total cpu time spent up to now is       14.4 secs

     WARNING: integrated charge=    90.00009844, expected=    90.00000000

     total energy              =    -986.47246116 Ry
     estimated scf accuracy    <       0.33026188 Ry

     iteration # 92     ecut=    30.00 Ry     beta= 0.70
     Davidson diagonalization with overlap

---- Real-time Memory Report at c_bands before calling an iterative solver
           145 MiB given to the printing process from OS
             0 MiB allocation reported by mallinfo(arena+hblkhd)
        160355 MiB available memory on the node where the printing process lives
------------------
     ethr =  1.46E-04,  avg # of iterations =  1.0

     negative rho (up, down):  1.325E-01 0.000E+00

     total cpu time spent up to now is       14.6 secs

     WARNING: integrated charge=    90.00006311, expected=    90.00000000

     total energy              =    -986.46450338 Ry
     estimated scf accuracy    <       0.77017066 Ry

     iteration # 93     ecut=    30.00 Ry     beta= 0.70
     Davidson diagonalization with overlap

---- Real-time Memory Report at c_bands before calling an iterative solver
           145 MiB given to the printing process from OS
             0 MiB allocation reported by mallinfo(arena+hblkhd)
        160356 MiB available memory on the node where the printing process lives
------------------
     ethr =  1.46E-04,  avg # of iterations =  1.0

     negative rho (up, down):  1.325E-01 0.000E+00

     total cpu time spent up to now is       14.7 secs

     WARNING: integrated charge=    90.00004664, expected=    90.00000000

     total energy              =    -986.43788138 Ry
     estimated scf accuracy    <       3.16632651 Ry

     iteration # 94     ecut=    30.00 Ry     beta= 0.70
     Davidson diagonalization with overlap

---- Real-time Memory Report at c_bands before calling an iterative solver
           145 MiB given to the printing process from OS
             0 MiB allocation reported by mallinfo(arena+hblkhd)
        160356 MiB available memory on the node where the printing process lives
------------------
     ethr =  1.46E-04,  avg # of iterations =  1.0

     negative rho (up, down):  1.325E-01 0.000E+00

     total cpu time spent up to now is       14.8 secs

     WARNING: integrated charge=    90.00004010, expected=    90.00000000

     total energy              =    -986.44200062 Ry
     estimated scf accuracy    <       2.62760766 Ry

     iteration # 95     ecut=    30.00 Ry     beta= 0.70
     Davidson diagonalization with overlap

---- Real-time Memory Report at c_bands before calling an iterative solver
           145 MiB given to the printing process from OS
             0 MiB allocation reported by mallinfo(arena+hblkhd)
        160356 MiB available memory on the node where the printing process lives
------------------
     ethr =  1.46E-04,  avg # of iterations =  1.0

     negative rho (up, down):  1.325E-01 0.000E+00

     total cpu time spent up to now is       14.9 secs

     WARNING: integrated charge=    90.00003555, expected=    90.00000000

     total energy              =    -986.45796892 Ry
     estimated scf accuracy    <       1.36592855 Ry

     iteration # 96     ecut=    30.00 Ry     beta= 0.70
     Davidson diagonalization with overlap

---- Real-time Memory Report at c_bands before calling an iterative solver
           145 MiB given to the printing process from OS
             0 MiB allocation reported by mallinfo(arena+hblkhd)
        160356 MiB available memory on the node where the printing process lives
------------------
     ethr =  1.46E-04,  avg # of iterations =  1.0

     negative rho (up, down):  1.325E-01 0.000E+00

     total cpu time spent up to now is       15.1 secs

     WARNING: integrated charge=    90.00002565, expected=    90.00000000

     total energy              =    -986.46326178 Ry
     estimated scf accuracy    <       0.34398357 Ry

     iteration # 97     ecut=    30.00 Ry     beta= 0.70
     Davidson diagonalization with overlap

---- Real-time Memory Report at c_bands before calling an iterative solver
           145 MiB given to the printing process from OS
             0 MiB allocation reported by mallinfo(arena+hblkhd)
        160356 MiB available memory on the node where the printing process lives
------------------
     ethr =  1.46E-04,  avg # of iterations =  1.0

     negative rho (up, down):  1.325E-01 0.000E+00

     total cpu time spent up to now is       15.2 secs

     WARNING: integrated charge=    90.00002351, expected=    90.00000000

     total energy              =    -986.45867792 Ry
     estimated scf accuracy    <       1.07931871 Ry

     iteration # 98     ecut=    30.00 Ry     beta= 0.70
     Davidson diagonalization with overlap

---- Real-time Memory Report at c_bands before calling an iterative solver
           145 MiB given to the printing process from OS
             0 MiB allocation reported by mallinfo(arena+hblkhd)
        160356 MiB available memory on the node where the printing process lives
------------------
     ethr =  1.46E-04,  avg # of iterations =  1.0

     negative rho (up, down):  1.325E-01 0.000E+00

     total cpu time spent up to now is       15.3 secs

     WARNING: integrated charge=    90.00001880, expected=    90.00000000

     total energy              =    -986.47375773 Ry
     estimated scf accuracy    <       0.28279878 Ry

     iteration # 99     ecut=    30.00 Ry     beta= 0.70
     Davidson diagonalization with overlap

---- Real-time Memory Report at c_bands before calling an iterative solver
           145 MiB given to the printing process from OS
             0 MiB allocation reported by mallinfo(arena+hblkhd)
        160356 MiB available memory on the node where the printing process lives
------------------
     ethr =  1.46E-04,  avg # of iterations =  1.0

     negative rho (up, down):  1.325E-01 0.000E+00

     total cpu time spent up to now is       15.4 secs

     WARNING: integrated charge=    90.00001050, expected=    90.00000000

     total energy              =    -986.47201515 Ry
     estimated scf accuracy    <       0.58978092 Ry

     iteration #100     ecut=    30.00 Ry     beta= 0.70
     Davidson diagonalization with overlap

---- Real-time Memory Report at c_bands before calling an iterative solver
           145 MiB given to the printing process from OS
             0 MiB allocation reported by mallinfo(arena+hblkhd)
        160356 MiB available memory on the node where the printing process lives
------------------
     ethr =  1.46E-04,  avg # of iterations =  1.0

     negative rho (up, down):  1.325E-01 0.000E+00

     total cpu time spent up to now is       15.6 secs

     WARNING: integrated charge=    90.00000999, expected=    90.00000000

     total energy              =    -986.47379103 Ry
     estimated scf accuracy    <       0.36320751 Ry

     End of self-consistent calculation

     convergence NOT achieved after 100 iterations: stopping

     Writing config to output data dir calculations/myprefix.save/
     Message from routine punch:
     wavefunctions written to file
 
     init_run     :      0.98s CPU      1.07s WALL (       1 calls)
     electrons    :     13.16s CPU     13.85s WALL (       1 calls)

     Called by init_run:
     wfcinit      :      0.04s CPU      0.07s WALL (       1 calls)
     wfcinit:atom :      0.00s CPU      0.00s WALL (       1 calls)
     wfcinit:wfcr :      0.04s CPU      0.07s WALL (       1 calls)
     potinit      :      0.37s CPU      0.39s WALL (       1 calls)
     hinit0       :      0.53s CPU      0.57s WALL (       1 calls)

     Called by electrons:
     c_bands      :      4.99s CPU      5.28s WALL (     100 calls)
     sum_band     :      1.99s CPU      2.11s WALL (     100 calls)
     v_of_rho     :      0.55s CPU      0.61s WALL (     101 calls)
     v_h          :      0.04s CPU      0.04s WALL (     101 calls)
     v_xc         :      0.51s CPU      0.57s WALL (     101 calls)
     newd         :      1.34s CPU      1.36s WALL (     101 calls)
     PAW_pot      :      3.92s CPU      3.93s WALL (     101 calls)
     mix_rho      :      0.24s CPU      0.25s WALL (     100 calls)

     Called by c_bands:
     init_us_2    :      0.02s CPU      0.03s WALL (     201 calls)
     init_us_2:cp :      0.02s CPU      0.03s WALL (     201 calls)
     regterg      :      4.90s CPU      5.09s WALL (     100 calls)

     Called by sum_band:
     sum_band:wei :      0.02s CPU      0.03s WALL (     100 calls)
     sum_band:loo :      0.40s CPU      0.48s WALL (     100 calls)
     sum_band:buf :      0.00s CPU      0.00s WALL (     100 calls)
     sum_band:ini :      0.01s CPU      0.01s WALL (     100 calls)
     sum_band:cal :      0.07s CPU      0.07s WALL (     100 calls)
     sum_band:bec :      0.01s CPU      0.01s WALL (     100 calls)
     addusdens    :      1.44s CPU      1.46s WALL (     100 calls)
     addusd:skk   :      0.01s CPU      0.01s WALL (     300 calls)
     addusd:dgemm :      0.36s CPU      0.37s WALL (     300 calls)
     addusd:qvan2 :      0.99s CPU      1.00s WALL (     300 calls)

     Called by *egterg:
     rdiaghg      :      2.83s CPU      2.88s WALL (     221 calls)
     regterg:over :      0.28s CPU      0.28s WALL (     121 calls)
     regterg:upda :      0.09s CPU      0.10s WALL (     121 calls)
     regterg:last :      0.12s CPU      0.12s WALL (     118 calls)
     rdiaghg:chol :      0.13s CPU      0.14s WALL (     221 calls)
     rdiaghg:inve :      0.02s CPU      0.03s WALL (     221 calls)
     rdiaghg:para :      0.18s CPU      0.18s WALL (     442 calls)
     h_psi        :      1.45s CPU      1.60s WALL (     222 calls)
     s_psi        :      0.01s CPU      0.02s WALL (     222 calls)
     g_psi        :      0.00s CPU      0.00s WALL (     121 calls)

     Called by h_psi:
     h_psi:calbec :      0.14s CPU      0.15s WALL (     222 calls)
     vloc_psi     :      1.28s CPU      1.41s WALL (     222 calls)
     add_vuspsi   :      0.02s CPU      0.03s WALL (     222 calls)

     General routines
     calbec       :      0.20s CPU      0.21s WALL (     322 calls)
     fft          :      0.69s CPU      0.74s WALL (    1111 calls)
     ffts         :      0.30s CPU      0.30s WALL (     201 calls)
     fftw         :      1.47s CPU      1.65s WALL (   13754 calls)
     interpolate  :      0.31s CPU      0.32s WALL (     101 calls)
     davcio       :      0.00s CPU      0.04s WALL (      19 calls)
 
     Parallel routines

     PAW routines
     PAW_pot      :      3.92s CPU      3.93s WALL (     101 calls)
     PAW_symme    :      0.08s CPU      0.09s WALL (     201 calls)
 
     PWSCF        :     14.91s CPU     16.21s WALL

 
   This run was terminated on:   3: 1: 8   3Mar2023            

=------------------------------------------------------------------------------=
   JOB DONE.
=------------------------------------------------------------------------------=
