
     Program PWSCF v.7.0 starts on  4Mar2023 at 20: 7:31 

     This program is part of the open-source Quantum ESPRESSO suite
     for quantum simulation of materials; please cite
         "P. Giannozzi et al., J. Phys.:Condens. Matter 21 395502 (2009);
         "P. Giannozzi et al., J. Phys.:Condens. Matter 29 465901 (2017);
         "P. Giannozzi et al., J. Chem. Phys. 152 154105 (2020);
          URL http://www.quantum-espresso.org", 
     in publications or presentations arising from this work. More details at
     http://www.quantum-espresso.org/quote

     Parallel version (MPI & OpenMP), running on      32 processor cores
     Number of MPI processes:                32
     Threads/MPI process:                     1

     MPI processes distributed on     1 nodes
     R & G space division:  proc/nbgrp/npool/nimage =      32
     167112 MiB available memory on the printing compute node when the environment starts
 
     Reading input from espresso_7510.pwi
Warning: card &CELL ignored
Warning: card / ignored

     Current dimensions of program PWSCF are:
     Max number of different atomic species (ntypx) = 10
     Max number of k-points (npk) =  40000
     Max angular momentum in pseudopotentials (lmaxx) =  4
     file C.pbe-n-kjpaw_psl.1.0.0.UPF: wavefunction(s)  2S 2P renormalized

     gamma-point specific algorithms are used
     Message from routine setup:
     using ibrav=0 with symmetry is DISCOURAGED, use correct ibrav instead

     Subspace diagonalization in iterative solution of the eigenvalue problem:
     one sub-group per band group will be used
     scalapack distributed-memory algorithm (size of sub-group:  5*  5 procs)

 
     Parallelization info
     --------------------
     sticks:   dense  smooth     PW     G-vecs:    dense   smooth      PW
     Min          50      24      5                  984      344      42
     Max          52      26      8                  990      352      46
     Sum        1621     815    203                31549    11107    1395
 
     Using Slab Decomposition
 


     bravais-lattice index     =            0
     lattice parameter (alat)  =      12.8277  a.u.
     unit-cell volume          =     503.2344 (a.u.)^3
     number of atoms/cell      =            3
     number of atomic types    =            2
     number of electrons       =        36.00
     number of Kohn-Sham states=           22
     kinetic-energy cutoff     =      30.0000  Ry
     charge density cutoff     =     240.0000  Ry
     scf convergence threshold =      1.0E-06
     mixing beta               =       0.7000
     number of iterations used =            8  plain     mixing
     Exchange-correlation= SLA  PW   PBX  PBC
                           (   1   4   3   4   0   0   0)

     celldm(1)=  12.827688  celldm(2)=   0.000000  celldm(3)=   0.000000
     celldm(4)=   0.000000  celldm(5)=   0.000000  celldm(6)=   0.000000

     crystal axes: (cart. coord. in units of alat)
               a(1) = (   1.000000   0.000000   0.000000 )  
               a(2) = (   0.855186   0.518321   0.000000 )  
               a(3) = (   0.855186   0.238931   0.459966 )  

     reciprocal axes: (cart. coord. in units 2 pi/alat)
               b(1) = (  1.000000 -1.649915 -1.002183 )  
               b(2) = (  0.000000  1.929305 -1.002183 )  
               b(3) = (  0.000000  0.000000  2.174072 )  


     PseudoPot. # 1 for Sm read from file:
     /home/pragov/projects/rrg-bengioy-ad/pragov/crystal_structure_design/SSSP/Sm.GGA-PBE-paw-v1.0.UPF
     MD5 check sum: 886f70968969f895acf876f5617e0641
     Pseudo is Projector augmented-wave + core cor, Zval = 16.0
     Generated using ATOMPAW code
     Shape of augmentation charge: BESSEL
     Using radial grid of 1107 points,  8 beta functions with: 
                l(1) =   0
                l(2) =   0
                l(3) =   1
                l(4) =   1
                l(5) =   2
                l(6) =   2
                l(7) =   3
                l(8) =   3
     Q(r) pseudized with 0 coefficients 


     PseudoPot. # 2 for C  read from file:
     /home/pragov/projects/rrg-bengioy-ad/pragov/crystal_structure_design/SSSP/C.pbe-n-kjpaw_psl.1.0.0.UPF
     MD5 check sum: 5d2aebdfa2cae82b50a7e79e9516da0f
     Pseudo is Projector augmented-wave + core cor, Zval =  4.0
     Generated using "atomic" code by A. Dal Corso  v.5.1
     Shape of augmentation charge: PSQ
     Using radial grid of 1073 points,  4 beta functions with: 
                l(1) =   0
                l(2) =   0
                l(3) =   1
                l(4) =   1
     Q(r) pseudized with 0 coefficients 


     atomic species   valence    mass     pseudopotential
        Sm            16.00   150.36000     Sm( 1.00)
        C              4.00    12.01100     C ( 1.00)

      2 Sym. Ops., with inversion, found


                                    s                        frac. trans.

      isym =  1     identity                                     

 cryst.   s( 1) = (     1          0          0      )
                  (     0          1          0      )
                  (     0          0          1      )

 cart.    s( 1) = (  1.0000000  0.0000000 -0.0000000 )
                  (  0.0000000  1.0000000 -0.0000000 )
                  (  0.0000000  0.0000000  1.0000000 )


      isym =  2     inversion                                    

 cryst.   s( 2) = (    -1          0          0      )
                  (     0         -1          0      )
                  (     0          0         -1      )

 cart.    s( 2) = ( -1.0000000 -0.0000000  0.0000000 )
                  (  0.0000000 -1.0000000  0.0000000 )
                  (  0.0000000  0.0000000 -1.0000000 )


   Cartesian axes

     site n.     atom                  positions (alat units)
         1           Sm  tau(   1) = (   0.6470661   0.1807841   0.1098110  )
         2           Sm  tau(   2) = (   2.0633059   0.5764681   0.3501554  )
         3           C   tau(   3) = (   1.3551860   0.3786261   0.2299832  )

   Crystallographic axes

     site n.     atom                  positions (cryst. coord.)
         1           Sm  tau(   1) = (  0.2387370  0.2387370  0.2387370  )
         2           Sm  tau(   2) = (  0.7612630  0.7612630  0.7612630  )
         3           C   tau(   3) = (  0.5000000  0.5000000  0.5000000  )

     number of k points=     1  Methfessel-Paxton smearing, width (Ry)=  0.0010
                       cart. coord. in units 2pi/alat
        k(    1) = (   0.0000000   0.0000000   0.0000000), wk =   2.0000000

                       cryst. coord.
        k(    1) = (   0.0000000   0.0000000   0.0000000), wk =   2.0000000

     Dense  grid:    15775 G-vectors     FFT dimensions: (  64,  64,  64)

     Smooth grid:     5554 G-vectors     FFT dimensions: (  45,  45,  45)

     Dynamical RAM for                 wfc:       0.01 MB

     Dynamical RAM for     wfc (w. buffer):       0.01 MB

     Dynamical RAM for           str. fact:       0.02 MB

     Dynamical RAM for           local pot:       0.00 MB

     Dynamical RAM for          nlocal pot:       0.02 MB

     Dynamical RAM for                qrad:       5.97 MB

     Dynamical RAM for          rho,v,vnew:       0.21 MB

     Dynamical RAM for               rhoin:       0.07 MB

     Dynamical RAM for            rho*nmix:       0.12 MB

     Dynamical RAM for           G-vectors:       0.03 MB

     Dynamical RAM for          h,s,v(r/c):       0.00 MB

     Dynamical RAM for          <psi|beta>:       0.01 MB

     Dynamical RAM for                 psi:       0.01 MB

     Dynamical RAM for                hpsi:       0.01 MB

     Dynamical RAM for                spsi:       0.01 MB

     Dynamical RAM for      wfcinit/wfcrot:       0.15 MB

     Dynamical RAM for           addusdens:       4.21 MB

     Dynamical RAM for          addusforce:       4.25 MB

     Dynamical RAM for         addusstress:       4.40 MB

     Estimated static dynamical RAM per process >       6.66 MB

     Estimated max dynamical RAM per process >      11.18 MB

     Estimated total dynamical RAM >     357.72 MB

     Check: negative core charge=   -0.000010

     Initial potential from superposition of free atoms

     starting charge      35.9888, renormalised to      36.0000
     Starting wfcs are   68 randomized atomic wfcs
     Checking if some PAW data can be deallocated... 
       PAW data deallocated on   10 nodes for type:  1
       PAW data deallocated on   22 nodes for type:  2

     total cpu time spent up to now is        1.1 secs

     Self-consistent Calculation

     iteration #  1     ecut=    30.00 Ry     beta= 0.70
     Davidson diagonalization with overlap

---- Real-time Memory Report at c_bands before calling an iterative solver
           159 MiB given to the printing process from OS
             0 MiB allocation reported by mallinfo(arena+hblkhd)
        165775 MiB available memory on the node where the printing process lives
------------------
     ethr =  1.00E-02,  avg # of iterations =  1.0

     total cpu time spent up to now is        1.3 secs

     total energy              =   -1225.31191601 Ry
     estimated scf accuracy    <       1.63729155 Ry

     iteration #  2     ecut=    30.00 Ry     beta= 0.70
     Davidson diagonalization with overlap

---- Real-time Memory Report at c_bands before calling an iterative solver
           172 MiB given to the printing process from OS
             0 MiB allocation reported by mallinfo(arena+hblkhd)
        165456 MiB available memory on the node where the printing process lives
------------------
     ethr =  4.55E-03,  avg # of iterations =  9.0

     total cpu time spent up to now is        1.6 secs

     total energy              =   -1224.15514824 Ry
     estimated scf accuracy    <      16.43005442 Ry

     iteration #  3     ecut=    30.00 Ry     beta= 0.70
     Davidson diagonalization with overlap

---- Real-time Memory Report at c_bands before calling an iterative solver
           174 MiB given to the printing process from OS
             0 MiB allocation reported by mallinfo(arena+hblkhd)
        165453 MiB available memory on the node where the printing process lives
------------------
     ethr =  4.55E-03,  avg # of iterations =  6.0

     total cpu time spent up to now is        1.9 secs

     total energy              =   -1225.86887198 Ry
     estimated scf accuracy    <      15.35067948 Ry

     iteration #  4     ecut=    30.00 Ry     beta= 0.70
     Davidson diagonalization with overlap

---- Real-time Memory Report at c_bands before calling an iterative solver
           174 MiB given to the printing process from OS
             0 MiB allocation reported by mallinfo(arena+hblkhd)
        165452 MiB available memory on the node where the printing process lives
------------------
     ethr =  4.55E-03,  avg # of iterations =  6.0

     total cpu time spent up to now is        2.1 secs

     total energy              =   -1226.15449997 Ry
     estimated scf accuracy    <      42.67241963 Ry

     iteration #  5     ecut=    30.00 Ry     beta= 0.70
     Davidson diagonalization with overlap

---- Real-time Memory Report at c_bands before calling an iterative solver
           175 MiB given to the printing process from OS
             0 MiB allocation reported by mallinfo(arena+hblkhd)
        165446 MiB available memory on the node where the printing process lives
------------------
     ethr =  4.55E-03,  avg # of iterations =  6.0

     total cpu time spent up to now is        2.4 secs

     total energy              =   -1226.45415998 Ry
     estimated scf accuracy    <       0.46631826 Ry

     iteration #  6     ecut=    30.00 Ry     beta= 0.70
     Davidson diagonalization with overlap

---- Real-time Memory Report at c_bands before calling an iterative solver
           176 MiB given to the printing process from OS
             0 MiB allocation reported by mallinfo(arena+hblkhd)
        165446 MiB available memory on the node where the printing process lives
------------------
     ethr =  1.30E-03,  avg # of iterations =  2.0

     total cpu time spent up to now is        2.7 secs

     total energy              =   -1226.45448848 Ry
     estimated scf accuracy    <       1.37164975 Ry

     iteration #  7     ecut=    30.00 Ry     beta= 0.70
     Davidson diagonalization with overlap

---- Real-time Memory Report at c_bands before calling an iterative solver
           176 MiB given to the printing process from OS
             0 MiB allocation reported by mallinfo(arena+hblkhd)
        165446 MiB available memory on the node where the printing process lives
------------------
     ethr =  1.30E-03,  avg # of iterations =  1.0

     total cpu time spent up to now is        2.9 secs

     total energy              =   -1226.46072120 Ry
     estimated scf accuracy    <       0.72618525 Ry

     iteration #  8     ecut=    30.00 Ry     beta= 0.70
     Davidson diagonalization with overlap

---- Real-time Memory Report at c_bands before calling an iterative solver
           176 MiB given to the printing process from OS
             0 MiB allocation reported by mallinfo(arena+hblkhd)
        165446 MiB available memory on the node where the printing process lives
------------------
     ethr =  1.30E-03,  avg # of iterations =  4.0

     total cpu time spent up to now is        3.2 secs

     total energy              =   -1226.48493855 Ry
     estimated scf accuracy    <       0.18796635 Ry

     iteration #  9     ecut=    30.00 Ry     beta= 0.70
     Davidson diagonalization with overlap

---- Real-time Memory Report at c_bands before calling an iterative solver
           176 MiB given to the printing process from OS
             0 MiB allocation reported by mallinfo(arena+hblkhd)
        165446 MiB available memory on the node where the printing process lives
------------------
     ethr =  5.22E-04,  avg # of iterations = 12.0

     total cpu time spent up to now is        3.4 secs

     total energy              =   -1226.55208020 Ry
     estimated scf accuracy    <       4.10627408 Ry

     iteration # 10     ecut=    30.00 Ry     beta= 0.70
     Davidson diagonalization with overlap

---- Real-time Memory Report at c_bands before calling an iterative solver
           176 MiB given to the printing process from OS
             0 MiB allocation reported by mallinfo(arena+hblkhd)
        165446 MiB available memory on the node where the printing process lives
------------------
     ethr =  5.22E-04,  avg # of iterations =  1.0

     total cpu time spent up to now is        3.7 secs

     total energy              =   -1226.57568464 Ry
     estimated scf accuracy    <       1.75833516 Ry

     iteration # 11     ecut=    30.00 Ry     beta= 0.70
     Davidson diagonalization with overlap

---- Real-time Memory Report at c_bands before calling an iterative solver
           176 MiB given to the printing process from OS
             0 MiB allocation reported by mallinfo(arena+hblkhd)
        165446 MiB available memory on the node where the printing process lives
------------------
     ethr =  5.22E-04,  avg # of iterations =  1.0

     total cpu time spent up to now is        3.9 secs

     total energy              =   -1226.55037424 Ry
     estimated scf accuracy    <       1.68293228 Ry

     iteration # 12     ecut=    30.00 Ry     beta= 0.70
     Davidson diagonalization with overlap

---- Real-time Memory Report at c_bands before calling an iterative solver
           177 MiB given to the printing process from OS
             0 MiB allocation reported by mallinfo(arena+hblkhd)
        165445 MiB available memory on the node where the printing process lives
------------------
     ethr =  5.22E-04,  avg # of iterations =  1.0

     total cpu time spent up to now is        4.2 secs

     total energy              =   -1226.48859778 Ry
     estimated scf accuracy    <       1.02493575 Ry

     iteration # 13     ecut=    30.00 Ry     beta= 0.70
     Davidson diagonalization with overlap

---- Real-time Memory Report at c_bands before calling an iterative solver
           177 MiB given to the printing process from OS
             0 MiB allocation reported by mallinfo(arena+hblkhd)
        165445 MiB available memory on the node where the printing process lives
------------------
     ethr =  5.22E-04,  avg # of iterations =  7.0

     total cpu time spent up to now is        4.4 secs

     total energy              =   -1226.50307830 Ry
     estimated scf accuracy    <       1.69016185 Ry

     iteration # 14     ecut=    30.00 Ry     beta= 0.70
     Davidson diagonalization with overlap

---- Real-time Memory Report at c_bands before calling an iterative solver
           177 MiB given to the printing process from OS
             0 MiB allocation reported by mallinfo(arena+hblkhd)
        165445 MiB available memory on the node where the printing process lives
------------------
     ethr =  5.22E-04,  avg # of iterations =  2.0

     total cpu time spent up to now is        4.7 secs

     total energy              =   -1226.52997312 Ry
     estimated scf accuracy    <       0.32444824 Ry

     iteration # 15     ecut=    30.00 Ry     beta= 0.70
     Davidson diagonalization with overlap

---- Real-time Memory Report at c_bands before calling an iterative solver
           177 MiB given to the printing process from OS
             0 MiB allocation reported by mallinfo(arena+hblkhd)
        165445 MiB available memory on the node where the printing process lives
------------------
     ethr =  5.22E-04,  avg # of iterations =  1.0

     total cpu time spent up to now is        4.9 secs

     total energy              =   -1226.54312155 Ry
     estimated scf accuracy    <       0.04258582 Ry

     iteration # 16     ecut=    30.00 Ry     beta= 0.70
     Davidson diagonalization with overlap

---- Real-time Memory Report at c_bands before calling an iterative solver
           177 MiB given to the printing process from OS
             0 MiB allocation reported by mallinfo(arena+hblkhd)
        165446 MiB available memory on the node where the printing process lives
------------------
     ethr =  1.18E-04,  avg # of iterations =  2.0

     total cpu time spent up to now is        5.2 secs

     total energy              =   -1226.54299108 Ry
     estimated scf accuracy    <       0.47031044 Ry

     iteration # 17     ecut=    30.00 Ry     beta= 0.70
     Davidson diagonalization with overlap

---- Real-time Memory Report at c_bands before calling an iterative solver
           177 MiB given to the printing process from OS
             0 MiB allocation reported by mallinfo(arena+hblkhd)
        165447 MiB available memory on the node where the printing process lives
------------------
     ethr =  1.18E-04,  avg # of iterations =  2.0

     total cpu time spent up to now is        5.4 secs

     total energy              =   -1226.53317128 Ry
     estimated scf accuracy    <       0.06426462 Ry

     iteration # 18     ecut=    30.00 Ry     beta= 0.70
     Davidson diagonalization with overlap

---- Real-time Memory Report at c_bands before calling an iterative solver
           177 MiB given to the printing process from OS
             0 MiB allocation reported by mallinfo(arena+hblkhd)
        165447 MiB available memory on the node where the printing process lives
------------------
     ethr =  1.18E-04,  avg # of iterations =  8.0

     total cpu time spent up to now is        5.7 secs

     total energy              =   -1226.50215393 Ry
     estimated scf accuracy    <       0.32501469 Ry

     iteration # 19     ecut=    30.00 Ry     beta= 0.70
     Davidson diagonalization with overlap

---- Real-time Memory Report at c_bands before calling an iterative solver
           177 MiB given to the printing process from OS
             0 MiB allocation reported by mallinfo(arena+hblkhd)
        165447 MiB available memory on the node where the printing process lives
------------------
     ethr =  1.18E-04,  avg # of iterations =  9.0

     total cpu time spent up to now is        5.9 secs

     total energy              =   -1226.55157138 Ry
     estimated scf accuracy    <       0.48944490 Ry

     iteration # 20     ecut=    30.00 Ry     beta= 0.70
     Davidson diagonalization with overlap

---- Real-time Memory Report at c_bands before calling an iterative solver
           177 MiB given to the printing process from OS
             0 MiB allocation reported by mallinfo(arena+hblkhd)
        165447 MiB available memory on the node where the printing process lives
------------------
     ethr =  1.18E-04,  avg # of iterations =  1.0

     total cpu time spent up to now is        6.2 secs

     total energy              =   -1226.55103707 Ry
     estimated scf accuracy    <       0.11710652 Ry

     iteration # 21     ecut=    30.00 Ry     beta= 0.70
     Davidson diagonalization with overlap

---- Real-time Memory Report at c_bands before calling an iterative solver
           177 MiB given to the printing process from OS
             0 MiB allocation reported by mallinfo(arena+hblkhd)
        165447 MiB available memory on the node where the printing process lives
------------------
     ethr =  1.18E-04,  avg # of iterations =  1.0

     total cpu time spent up to now is        6.4 secs

     total energy              =   -1226.55068314 Ry
     estimated scf accuracy    <       0.05889974 Ry

     iteration # 22     ecut=    30.00 Ry     beta= 0.70
     Davidson diagonalization with overlap

---- Real-time Memory Report at c_bands before calling an iterative solver
           177 MiB given to the printing process from OS
             0 MiB allocation reported by mallinfo(arena+hblkhd)
        165447 MiB available memory on the node where the printing process lives
------------------
     ethr =  1.18E-04,  avg # of iterations =  1.0

     total cpu time spent up to now is        6.7 secs

     total energy              =   -1226.54836999 Ry
     estimated scf accuracy    <       0.02743333 Ry

     iteration # 23     ecut=    30.00 Ry     beta= 0.70
     Davidson diagonalization with overlap

---- Real-time Memory Report at c_bands before calling an iterative solver
           177 MiB given to the printing process from OS
             0 MiB allocation reported by mallinfo(arena+hblkhd)
        165447 MiB available memory on the node where the printing process lives
------------------
     ethr =  7.62E-05,  avg # of iterations =  1.0

     total cpu time spent up to now is        6.9 secs

     total energy              =   -1226.55234695 Ry
     estimated scf accuracy    <       0.03883423 Ry

     iteration # 24     ecut=    30.00 Ry     beta= 0.70
     Davidson diagonalization with overlap

---- Real-time Memory Report at c_bands before calling an iterative solver
           177 MiB given to the printing process from OS
             0 MiB allocation reported by mallinfo(arena+hblkhd)
        165448 MiB available memory on the node where the printing process lives
------------------
     ethr =  7.62E-05,  avg # of iterations =  1.0

     total cpu time spent up to now is        7.2 secs

     total energy              =   -1226.55173634 Ry
     estimated scf accuracy    <       0.03262107 Ry

     iteration # 25     ecut=    30.00 Ry     beta= 0.70
     Davidson diagonalization with overlap

---- Real-time Memory Report at c_bands before calling an iterative solver
           177 MiB given to the printing process from OS
             0 MiB allocation reported by mallinfo(arena+hblkhd)
        165448 MiB available memory on the node where the printing process lives
------------------
     ethr =  7.62E-05,  avg # of iterations =  1.0

     total cpu time spent up to now is        7.4 secs

     total energy              =   -1226.55265223 Ry
     estimated scf accuracy    <       0.02922296 Ry

     iteration # 26     ecut=    30.00 Ry     beta= 0.70
     Davidson diagonalization with overlap

---- Real-time Memory Report at c_bands before calling an iterative solver
           177 MiB given to the printing process from OS
             0 MiB allocation reported by mallinfo(arena+hblkhd)
        165448 MiB available memory on the node where the printing process lives
------------------
     ethr =  7.62E-05,  avg # of iterations =  1.0

     total cpu time spent up to now is        7.6 secs

     total energy              =   -1226.55197115 Ry
     estimated scf accuracy    <       0.00898024 Ry

     iteration # 27     ecut=    30.00 Ry     beta= 0.70
     Davidson diagonalization with overlap

---- Real-time Memory Report at c_bands before calling an iterative solver
           177 MiB given to the printing process from OS
             0 MiB allocation reported by mallinfo(arena+hblkhd)
        165448 MiB available memory on the node where the printing process lives
------------------
     ethr =  2.49E-05,  avg # of iterations =  2.0

     total cpu time spent up to now is        7.9 secs

     total energy              =   -1226.55112085 Ry
     estimated scf accuracy    <       0.09778118 Ry

     iteration # 28     ecut=    30.00 Ry     beta= 0.70
     Davidson diagonalization with overlap

---- Real-time Memory Report at c_bands before calling an iterative solver
           177 MiB given to the printing process from OS
             0 MiB allocation reported by mallinfo(arena+hblkhd)
        165448 MiB available memory on the node where the printing process lives
------------------
     ethr =  2.49E-05,  avg # of iterations =  1.0

     total cpu time spent up to now is        8.1 secs

     total energy              =   -1226.55307252 Ry
     estimated scf accuracy    <       0.02857660 Ry

     iteration # 29     ecut=    30.00 Ry     beta= 0.70
     Davidson diagonalization with overlap

---- Real-time Memory Report at c_bands before calling an iterative solver
           177 MiB given to the printing process from OS
             0 MiB allocation reported by mallinfo(arena+hblkhd)
        165448 MiB available memory on the node where the printing process lives
------------------
     ethr =  2.49E-05,  avg # of iterations =  1.0

     total cpu time spent up to now is        8.4 secs

     total energy              =   -1226.55330129 Ry
     estimated scf accuracy    <       0.00462717 Ry

     iteration # 30     ecut=    30.00 Ry     beta= 0.70
     Davidson diagonalization with overlap

---- Real-time Memory Report at c_bands before calling an iterative solver
           177 MiB given to the printing process from OS
             0 MiB allocation reported by mallinfo(arena+hblkhd)
        165448 MiB available memory on the node where the printing process lives
------------------
     ethr =  1.29E-05,  avg # of iterations =  2.0

     total cpu time spent up to now is        8.6 secs

     total energy              =   -1226.55335949 Ry
     estimated scf accuracy    <       0.00221392 Ry

     iteration # 31     ecut=    30.00 Ry     beta= 0.70
     Davidson diagonalization with overlap

---- Real-time Memory Report at c_bands before calling an iterative solver
           177 MiB given to the printing process from OS
             0 MiB allocation reported by mallinfo(arena+hblkhd)
        165448 MiB available memory on the node where the printing process lives
------------------
     ethr =  6.15E-06,  avg # of iterations =  2.0

     total cpu time spent up to now is        8.9 secs

     total energy              =   -1226.55301121 Ry
     estimated scf accuracy    <       0.00131955 Ry

     iteration # 32     ecut=    30.00 Ry     beta= 0.70
     Davidson diagonalization with overlap

---- Real-time Memory Report at c_bands before calling an iterative solver
           177 MiB given to the printing process from OS
             0 MiB allocation reported by mallinfo(arena+hblkhd)
        165448 MiB available memory on the node where the printing process lives
------------------
     c_bands:  1 eigenvalues not converged
     ethr =  3.67E-06,  avg # of iterations = 20.0

     total cpu time spent up to now is        9.2 secs

     total energy              =   -1226.54916360 Ry
     estimated scf accuracy    <       0.14759271 Ry

     iteration # 33     ecut=    30.00 Ry     beta= 0.70
     Davidson diagonalization with overlap

---- Real-time Memory Report at c_bands before calling an iterative solver
           177 MiB given to the printing process from OS
             0 MiB allocation reported by mallinfo(arena+hblkhd)
        165448 MiB available memory on the node where the printing process lives
------------------
     ethr =  3.67E-06,  avg # of iterations =  7.0

     total cpu time spent up to now is        9.4 secs

     total energy              =   -1226.55360831 Ry
     estimated scf accuracy    <       0.00188209 Ry

     iteration # 34     ecut=    30.00 Ry     beta= 0.70
     Davidson diagonalization with overlap

---- Real-time Memory Report at c_bands before calling an iterative solver
           177 MiB given to the printing process from OS
             0 MiB allocation reported by mallinfo(arena+hblkhd)
        165448 MiB available memory on the node where the printing process lives
------------------
     ethr =  3.67E-06,  avg # of iterations =  1.0

     total cpu time spent up to now is        9.9 secs

     total energy              =   -1226.55349562 Ry
     estimated scf accuracy    <       0.00099200 Ry

     iteration # 35     ecut=    30.00 Ry     beta= 0.70
     Davidson diagonalization with overlap

---- Real-time Memory Report at c_bands before calling an iterative solver
           177 MiB given to the printing process from OS
             0 MiB allocation reported by mallinfo(arena+hblkhd)
        165449 MiB available memory on the node where the printing process lives
------------------
     ethr =  2.76E-06,  avg # of iterations =  9.0

     total cpu time spent up to now is       10.1 secs

     total energy              =   -1226.55361491 Ry
     estimated scf accuracy    <       0.01322813 Ry

     iteration # 36     ecut=    30.00 Ry     beta= 0.70
     Davidson diagonalization with overlap

---- Real-time Memory Report at c_bands before calling an iterative solver
           177 MiB given to the printing process from OS
             0 MiB allocation reported by mallinfo(arena+hblkhd)
        165449 MiB available memory on the node where the printing process lives
------------------
     ethr =  2.76E-06,  avg # of iterations =  1.0

     total cpu time spent up to now is       10.4 secs

     total energy              =   -1226.55375103 Ry
     estimated scf accuracy    <       0.00164571 Ry

     iteration # 37     ecut=    30.00 Ry     beta= 0.70
     Davidson diagonalization with overlap

---- Real-time Memory Report at c_bands before calling an iterative solver
           177 MiB given to the printing process from OS
             0 MiB allocation reported by mallinfo(arena+hblkhd)
        165449 MiB available memory on the node where the printing process lives
------------------
     ethr =  2.76E-06,  avg # of iterations =  1.0

     total cpu time spent up to now is       10.6 secs

     total energy              =   -1226.55374600 Ry
     estimated scf accuracy    <       0.00045087 Ry

     iteration # 38     ecut=    30.00 Ry     beta= 0.70
     Davidson diagonalization with overlap

---- Real-time Memory Report at c_bands before calling an iterative solver
           178 MiB given to the printing process from OS
             0 MiB allocation reported by mallinfo(arena+hblkhd)
        165449 MiB available memory on the node where the printing process lives
------------------
     ethr =  1.25E-06,  avg # of iterations =  2.0

     total cpu time spent up to now is       10.9 secs

     total energy              =   -1226.55375174 Ry
     estimated scf accuracy    <       0.00444537 Ry

     iteration # 39     ecut=    30.00 Ry     beta= 0.70
     Davidson diagonalization with overlap

---- Real-time Memory Report at c_bands before calling an iterative solver
           178 MiB given to the printing process from OS
             0 MiB allocation reported by mallinfo(arena+hblkhd)
        165449 MiB available memory on the node where the printing process lives
------------------
     ethr =  1.25E-06,  avg # of iterations =  1.0

     total cpu time spent up to now is       11.1 secs

     total energy              =   -1226.55363479 Ry
     estimated scf accuracy    <       0.00065278 Ry

     iteration # 40     ecut=    30.00 Ry     beta= 0.70
     Davidson diagonalization with overlap

---- Real-time Memory Report at c_bands before calling an iterative solver
           178 MiB given to the printing process from OS
             0 MiB allocation reported by mallinfo(arena+hblkhd)
        165450 MiB available memory on the node where the printing process lives
------------------
     ethr =  1.25E-06,  avg # of iterations = 15.0

     total cpu time spent up to now is       11.4 secs

     total energy              =   -1226.55373495 Ry
     estimated scf accuracy    <       0.00156308 Ry

     iteration # 41     ecut=    30.00 Ry     beta= 0.70
     Davidson diagonalization with overlap

---- Real-time Memory Report at c_bands before calling an iterative solver
           178 MiB given to the printing process from OS
             0 MiB allocation reported by mallinfo(arena+hblkhd)
        165450 MiB available memory on the node where the printing process lives
------------------
     ethr =  1.25E-06,  avg # of iterations =  1.0

     total cpu time spent up to now is       11.7 secs

     total energy              =   -1226.55386865 Ry
     estimated scf accuracy    <       0.00026907 Ry

     iteration # 42     ecut=    30.00 Ry     beta= 0.70
     Davidson diagonalization with overlap

---- Real-time Memory Report at c_bands before calling an iterative solver
           178 MiB given to the printing process from OS
             0 MiB allocation reported by mallinfo(arena+hblkhd)
        165450 MiB available memory on the node where the printing process lives
------------------
     ethr =  7.47E-07,  avg # of iterations =  1.0

     total cpu time spent up to now is       11.9 secs

     total energy              =   -1226.55381661 Ry
     estimated scf accuracy    <       0.00037899 Ry

     iteration # 43     ecut=    30.00 Ry     beta= 0.70
     Davidson diagonalization with overlap

---- Real-time Memory Report at c_bands before calling an iterative solver
           178 MiB given to the printing process from OS
             0 MiB allocation reported by mallinfo(arena+hblkhd)
        165450 MiB available memory on the node where the printing process lives
------------------
     ethr =  7.47E-07,  avg # of iterations = 16.0

     total cpu time spent up to now is       12.2 secs

     total energy              =   -1226.55366246 Ry
     estimated scf accuracy    <       0.00407134 Ry

     iteration # 44     ecut=    30.00 Ry     beta= 0.70
     Davidson diagonalization with overlap

---- Real-time Memory Report at c_bands before calling an iterative solver
           178 MiB given to the printing process from OS
             0 MiB allocation reported by mallinfo(arena+hblkhd)
        165450 MiB available memory on the node where the printing process lives
------------------
     ethr =  7.47E-07,  avg # of iterations =  2.0

     total cpu time spent up to now is       12.4 secs

     total energy              =   -1226.55377122 Ry
     estimated scf accuracy    <       0.00042602 Ry

     iteration # 45     ecut=    30.00 Ry     beta= 0.70
     Davidson diagonalization with overlap

---- Real-time Memory Report at c_bands before calling an iterative solver
           178 MiB given to the printing process from OS
             0 MiB allocation reported by mallinfo(arena+hblkhd)
        165450 MiB available memory on the node where the printing process lives
------------------
     ethr =  7.47E-07,  avg # of iterations =  9.0

     total cpu time spent up to now is       12.7 secs

     total energy              =   -1226.55382813 Ry
     estimated scf accuracy    <       0.00039826 Ry

     iteration # 46     ecut=    30.00 Ry     beta= 0.70
     Davidson diagonalization with overlap

---- Real-time Memory Report at c_bands before calling an iterative solver
           178 MiB given to the printing process from OS
             0 MiB allocation reported by mallinfo(arena+hblkhd)
        165450 MiB available memory on the node where the printing process lives
------------------
     ethr =  7.47E-07,  avg # of iterations =  1.0

     total cpu time spent up to now is       12.9 secs

     total energy              =   -1226.55382412 Ry
     estimated scf accuracy    <       0.00547239 Ry

     iteration # 47     ecut=    30.00 Ry     beta= 0.70
     Davidson diagonalization with overlap

---- Real-time Memory Report at c_bands before calling an iterative solver
           178 MiB given to the printing process from OS
             0 MiB allocation reported by mallinfo(arena+hblkhd)
        165451 MiB available memory on the node where the printing process lives
------------------
     ethr =  7.47E-07,  avg # of iterations =  2.0

     total cpu time spent up to now is       13.2 secs

     total energy              =   -1226.55386682 Ry
     estimated scf accuracy    <       0.00013388 Ry

     iteration # 48     ecut=    30.00 Ry     beta= 0.70
     Davidson diagonalization with overlap

---- Real-time Memory Report at c_bands before calling an iterative solver
           178 MiB given to the printing process from OS
             0 MiB allocation reported by mallinfo(arena+hblkhd)
        165451 MiB available memory on the node where the printing process lives
------------------
     ethr =  3.72E-07,  avg # of iterations =  2.0

     total cpu time spent up to now is       13.4 secs

     total energy              =   -1226.55387637 Ry
     estimated scf accuracy    <       0.00133682 Ry

     iteration # 49     ecut=    30.00 Ry     beta= 0.70
     Davidson diagonalization with overlap

---- Real-time Memory Report at c_bands before calling an iterative solver
           178 MiB given to the printing process from OS
             0 MiB allocation reported by mallinfo(arena+hblkhd)
        165451 MiB available memory on the node where the printing process lives
------------------
     ethr =  3.72E-07,  avg # of iterations =  7.0

     total cpu time spent up to now is       13.7 secs

     total energy              =   -1226.55382062 Ry
     estimated scf accuracy    <       0.00176045 Ry

     iteration # 50     ecut=    30.00 Ry     beta= 0.70
     Davidson diagonalization with overlap

---- Real-time Memory Report at c_bands before calling an iterative solver
           178 MiB given to the printing process from OS
             0 MiB allocation reported by mallinfo(arena+hblkhd)
        165451 MiB available memory on the node where the printing process lives
------------------
     ethr =  3.72E-07,  avg # of iterations =  2.0

     total cpu time spent up to now is       13.9 secs

     total energy              =   -1226.55387141 Ry
     estimated scf accuracy    <       0.00031918 Ry

     iteration # 51     ecut=    30.00 Ry     beta= 0.70
     Davidson diagonalization with overlap

---- Real-time Memory Report at c_bands before calling an iterative solver
           178 MiB given to the printing process from OS
             0 MiB allocation reported by mallinfo(arena+hblkhd)
        165451 MiB available memory on the node where the printing process lives
------------------
     ethr =  3.72E-07,  avg # of iterations =  2.0

     total cpu time spent up to now is       14.2 secs

     total energy              =   -1226.55388516 Ry
     estimated scf accuracy    <       0.00005576 Ry

     iteration # 52     ecut=    30.00 Ry     beta= 0.70
     Davidson diagonalization with overlap

---- Real-time Memory Report at c_bands before calling an iterative solver
           178 MiB given to the printing process from OS
             0 MiB allocation reported by mallinfo(arena+hblkhd)
        165451 MiB available memory on the node where the printing process lives
------------------
     ethr =  1.55E-07,  avg # of iterations =  2.0

     total cpu time spent up to now is       14.4 secs

     total energy              =   -1226.55388067 Ry
     estimated scf accuracy    <       0.00004633 Ry

     iteration # 53     ecut=    30.00 Ry     beta= 0.70
     Davidson diagonalization with overlap

---- Real-time Memory Report at c_bands before calling an iterative solver
           178 MiB given to the printing process from OS
             0 MiB allocation reported by mallinfo(arena+hblkhd)
        165451 MiB available memory on the node where the printing process lives
------------------
     ethr =  1.29E-07,  avg # of iterations = 10.0

     total cpu time spent up to now is       14.7 secs

     total energy              =   -1226.55388813 Ry
     estimated scf accuracy    <       0.00054739 Ry

     iteration # 54     ecut=    30.00 Ry     beta= 0.70
     Davidson diagonalization with overlap

---- Real-time Memory Report at c_bands before calling an iterative solver
           178 MiB given to the printing process from OS
             0 MiB allocation reported by mallinfo(arena+hblkhd)
        165451 MiB available memory on the node where the printing process lives
------------------
     ethr =  1.29E-07,  avg # of iterations = 11.0

     total cpu time spent up to now is       15.0 secs

     total energy              =   -1226.55383299 Ry
     estimated scf accuracy    <       0.00105519 Ry

     iteration # 55     ecut=    30.00 Ry     beta= 0.70
     Davidson diagonalization with overlap

---- Real-time Memory Report at c_bands before calling an iterative solver
           178 MiB given to the printing process from OS
             0 MiB allocation reported by mallinfo(arena+hblkhd)
        165451 MiB available memory on the node where the printing process lives
------------------
     ethr =  1.29E-07,  avg # of iterations = 16.0

     total cpu time spent up to now is       15.3 secs

     total energy              =   -1226.55391268 Ry
     estimated scf accuracy    <       0.00005629 Ry

     iteration # 56     ecut=    30.00 Ry     beta= 0.70
     Davidson diagonalization with overlap

---- Real-time Memory Report at c_bands before calling an iterative solver
           178 MiB given to the printing process from OS
             0 MiB allocation reported by mallinfo(arena+hblkhd)
        165451 MiB available memory on the node where the printing process lives
------------------
     ethr =  1.29E-07,  avg # of iterations =  1.0

     total cpu time spent up to now is       15.5 secs

     total energy              =   -1226.55391512 Ry
     estimated scf accuracy    <       0.00003414 Ry

     iteration # 57     ecut=    30.00 Ry     beta= 0.70
     Davidson diagonalization with overlap

---- Real-time Memory Report at c_bands before calling an iterative solver
           178 MiB given to the printing process from OS
             0 MiB allocation reported by mallinfo(arena+hblkhd)
        165451 MiB available memory on the node where the printing process lives
------------------
     ethr =  9.48E-08,  avg # of iterations =  2.0

     total cpu time spent up to now is       15.7 secs

     total energy              =   -1226.55391662 Ry
     estimated scf accuracy    <       0.00023633 Ry

     iteration # 58     ecut=    30.00 Ry     beta= 0.70
     Davidson diagonalization with overlap

---- Real-time Memory Report at c_bands before calling an iterative solver
           178 MiB given to the printing process from OS
             0 MiB allocation reported by mallinfo(arena+hblkhd)
        165451 MiB available memory on the node where the printing process lives
------------------
     ethr =  9.48E-08,  avg # of iterations =  1.0

     total cpu time spent up to now is       16.0 secs

     total energy              =   -1226.55391489 Ry
     estimated scf accuracy    <       0.00008921 Ry

     iteration # 59     ecut=    30.00 Ry     beta= 0.70
     Davidson diagonalization with overlap

---- Real-time Memory Report at c_bands before calling an iterative solver
           178 MiB given to the printing process from OS
             0 MiB allocation reported by mallinfo(arena+hblkhd)
        165451 MiB available memory on the node where the printing process lives
------------------
     ethr =  9.48E-08,  avg # of iterations =  2.0

     total cpu time spent up to now is       16.2 secs

     total energy              =   -1226.55390002 Ry
     estimated scf accuracy    <       0.00064129 Ry

     iteration # 60     ecut=    30.00 Ry     beta= 0.70
     Davidson diagonalization with overlap

---- Real-time Memory Report at c_bands before calling an iterative solver
           178 MiB given to the printing process from OS
             0 MiB allocation reported by mallinfo(arena+hblkhd)
        165451 MiB available memory on the node where the printing process lives
------------------
     ethr =  9.48E-08,  avg # of iterations =  1.0

     total cpu time spent up to now is       16.5 secs

     total energy              =   -1226.55391419 Ry
     estimated scf accuracy    <       0.00003039 Ry

     iteration # 61     ecut=    30.00 Ry     beta= 0.70
     Davidson diagonalization with overlap

---- Real-time Memory Report at c_bands before calling an iterative solver
           178 MiB given to the printing process from OS
             0 MiB allocation reported by mallinfo(arena+hblkhd)
        165451 MiB available memory on the node where the printing process lives
------------------
     ethr =  8.44E-08,  avg # of iterations = 12.0

     total cpu time spent up to now is       16.7 secs

     total energy              =   -1226.55393126 Ry
     estimated scf accuracy    <       0.00004105 Ry

     iteration # 62     ecut=    30.00 Ry     beta= 0.70
     Davidson diagonalization with overlap

---- Real-time Memory Report at c_bands before calling an iterative solver
           178 MiB given to the printing process from OS
             0 MiB allocation reported by mallinfo(arena+hblkhd)
        165451 MiB available memory on the node where the printing process lives
------------------
     ethr =  8.44E-08,  avg # of iterations =  2.0

     total cpu time spent up to now is       17.0 secs

     total energy              =   -1226.55393282 Ry
     estimated scf accuracy    <       0.00001041 Ry

     iteration # 63     ecut=    30.00 Ry     beta= 0.70
     Davidson diagonalization with overlap

---- Real-time Memory Report at c_bands before calling an iterative solver
           178 MiB given to the printing process from OS
             0 MiB allocation reported by mallinfo(arena+hblkhd)
        165451 MiB available memory on the node where the printing process lives
------------------
     ethr =  2.89E-08,  avg # of iterations = 10.0

     total cpu time spent up to now is       17.3 secs

     total energy              =   -1226.55392977 Ry
     estimated scf accuracy    <       0.00017973 Ry

     iteration # 64     ecut=    30.00 Ry     beta= 0.70
     Davidson diagonalization with overlap

---- Real-time Memory Report at c_bands before calling an iterative solver
           178 MiB given to the printing process from OS
             0 MiB allocation reported by mallinfo(arena+hblkhd)
        165451 MiB available memory on the node where the printing process lives
------------------
     ethr =  2.89E-08,  avg # of iterations =  1.0

     total cpu time spent up to now is       17.5 secs

     total energy              =   -1226.55393258 Ry
     estimated scf accuracy    <       0.00001569 Ry

     iteration # 65     ecut=    30.00 Ry     beta= 0.70
     Davidson diagonalization with overlap

---- Real-time Memory Report at c_bands before calling an iterative solver
           178 MiB given to the printing process from OS
             0 MiB allocation reported by mallinfo(arena+hblkhd)
        165451 MiB available memory on the node where the printing process lives
------------------
     ethr =  2.89E-08,  avg # of iterations =  2.0

     total cpu time spent up to now is       17.7 secs

     total energy              =   -1226.55393170 Ry
     estimated scf accuracy    <       0.00005854 Ry

     iteration # 66     ecut=    30.00 Ry     beta= 0.70
     Davidson diagonalization with overlap

---- Real-time Memory Report at c_bands before calling an iterative solver
           178 MiB given to the printing process from OS
             0 MiB allocation reported by mallinfo(arena+hblkhd)
        165451 MiB available memory on the node where the printing process lives
------------------
     ethr =  2.89E-08,  avg # of iterations =  1.0

     total cpu time spent up to now is       18.0 secs

     total energy              =   -1226.55393299 Ry
     estimated scf accuracy    <       0.00001361 Ry

     iteration # 67     ecut=    30.00 Ry     beta= 0.70
     Davidson diagonalization with overlap

---- Real-time Memory Report at c_bands before calling an iterative solver
           178 MiB given to the printing process from OS
             0 MiB allocation reported by mallinfo(arena+hblkhd)
        165452 MiB available memory on the node where the printing process lives
------------------
     ethr =  2.89E-08,  avg # of iterations =  2.0

     total cpu time spent up to now is       18.2 secs

     total energy              =   -1226.55392619 Ry
     estimated scf accuracy    <       0.00121823 Ry

     iteration # 68     ecut=    30.00 Ry     beta= 0.70
     Davidson diagonalization with overlap

---- Real-time Memory Report at c_bands before calling an iterative solver
           178 MiB given to the printing process from OS
             0 MiB allocation reported by mallinfo(arena+hblkhd)
        165452 MiB available memory on the node where the printing process lives
------------------
     c_bands:  2 eigenvalues not converged
     ethr =  2.89E-08,  avg # of iterations = 20.0

     total cpu time spent up to now is       18.5 secs

     total energy              =   -1226.55390502 Ry
     estimated scf accuracy    <       0.00064525 Ry

     iteration # 69     ecut=    30.00 Ry     beta= 0.70
     Davidson diagonalization with overlap

---- Real-time Memory Report at c_bands before calling an iterative solver
           178 MiB given to the printing process from OS
             0 MiB allocation reported by mallinfo(arena+hblkhd)
        165452 MiB available memory on the node where the printing process lives
------------------
     ethr =  2.89E-08,  avg # of iterations = 10.0

     total cpu time spent up to now is       18.8 secs

     total energy              =   -1226.55393648 Ry
     estimated scf accuracy    <       0.00002540 Ry

     iteration # 70     ecut=    30.00 Ry     beta= 0.70
     Davidson diagonalization with overlap

---- Real-time Memory Report at c_bands before calling an iterative solver
           179 MiB given to the printing process from OS
             0 MiB allocation reported by mallinfo(arena+hblkhd)
        165452 MiB available memory on the node where the printing process lives
------------------
     ethr =  2.89E-08,  avg # of iterations =  7.0

     total cpu time spent up to now is       19.1 secs

     total energy              =   -1226.55393845 Ry
     estimated scf accuracy    <       0.00004553 Ry

     iteration # 71     ecut=    30.00 Ry     beta= 0.70
     Davidson diagonalization with overlap

---- Real-time Memory Report at c_bands before calling an iterative solver
           179 MiB given to the printing process from OS
             0 MiB allocation reported by mallinfo(arena+hblkhd)
        165452 MiB available memory on the node where the printing process lives
------------------
     ethr =  2.89E-08,  avg # of iterations =  2.0

     total cpu time spent up to now is       19.3 secs

     total energy              =   -1226.55394167 Ry
     estimated scf accuracy    <       0.00001015 Ry

     iteration # 72     ecut=    30.00 Ry     beta= 0.70
     Davidson diagonalization with overlap

---- Real-time Memory Report at c_bands before calling an iterative solver
           179 MiB given to the printing process from OS
             0 MiB allocation reported by mallinfo(arena+hblkhd)
        165452 MiB available memory on the node where the printing process lives
------------------
     ethr =  2.82E-08,  avg # of iterations =  2.0

     total cpu time spent up to now is       19.6 secs

     total energy              =   -1226.55394190 Ry
     estimated scf accuracy    <       0.00001983 Ry

     iteration # 73     ecut=    30.00 Ry     beta= 0.70
     Davidson diagonalization with overlap

---- Real-time Memory Report at c_bands before calling an iterative solver
           179 MiB given to the printing process from OS
             0 MiB allocation reported by mallinfo(arena+hblkhd)
        165452 MiB available memory on the node where the printing process lives
------------------
     ethr =  2.82E-08,  avg # of iterations =  1.0

     total cpu time spent up to now is       19.8 secs

     total energy              =   -1226.55394292 Ry
     estimated scf accuracy    <       0.00000479 Ry

     iteration # 74     ecut=    30.00 Ry     beta= 0.70
     Davidson diagonalization with overlap

---- Real-time Memory Report at c_bands before calling an iterative solver
           179 MiB given to the printing process from OS
             0 MiB allocation reported by mallinfo(arena+hblkhd)
        165452 MiB available memory on the node where the printing process lives
------------------
     ethr =  1.33E-08,  avg # of iterations = 10.0

     total cpu time spent up to now is       20.1 secs

     total energy              =   -1226.55394557 Ry
     estimated scf accuracy    <       0.00004608 Ry

     iteration # 75     ecut=    30.00 Ry     beta= 0.70
     Davidson diagonalization with overlap

---- Real-time Memory Report at c_bands before calling an iterative solver
           179 MiB given to the printing process from OS
             0 MiB allocation reported by mallinfo(arena+hblkhd)
        165452 MiB available memory on the node where the printing process lives
------------------
     ethr =  1.33E-08,  avg # of iterations =  2.0

     total cpu time spent up to now is       20.3 secs

     total energy              =   -1226.55394602 Ry
     estimated scf accuracy    <       0.00001928 Ry

     iteration # 76     ecut=    30.00 Ry     beta= 0.70
     Davidson diagonalization with overlap

---- Real-time Memory Report at c_bands before calling an iterative solver
           179 MiB given to the printing process from OS
             0 MiB allocation reported by mallinfo(arena+hblkhd)
        165452 MiB available memory on the node where the printing process lives
------------------
     ethr =  1.33E-08,  avg # of iterations =  1.0

     total cpu time spent up to now is       20.6 secs

     total energy              =   -1226.55394708 Ry
     estimated scf accuracy    <       0.00000644 Ry

     iteration # 77     ecut=    30.00 Ry     beta= 0.70
     Davidson diagonalization with overlap

---- Real-time Memory Report at c_bands before calling an iterative solver
           179 MiB given to the printing process from OS
             0 MiB allocation reported by mallinfo(arena+hblkhd)
        165452 MiB available memory on the node where the printing process lives
------------------
     ethr =  1.33E-08,  avg # of iterations =  2.0

     total cpu time spent up to now is       20.8 secs

     total energy              =   -1226.55394707 Ry
     estimated scf accuracy    <       0.00001004 Ry

     iteration # 78     ecut=    30.00 Ry     beta= 0.70
     Davidson diagonalization with overlap

---- Real-time Memory Report at c_bands before calling an iterative solver
           179 MiB given to the printing process from OS
             0 MiB allocation reported by mallinfo(arena+hblkhd)
        165452 MiB available memory on the node where the printing process lives
------------------
     ethr =  1.33E-08,  avg # of iterations =  2.0

     total cpu time spent up to now is       21.0 secs

     total energy              =   -1226.55394635 Ry
     estimated scf accuracy    <       0.00002123 Ry

     iteration # 79     ecut=    30.00 Ry     beta= 0.70
     Davidson diagonalization with overlap

---- Real-time Memory Report at c_bands before calling an iterative solver
           179 MiB given to the printing process from OS
             0 MiB allocation reported by mallinfo(arena+hblkhd)
        165453 MiB available memory on the node where the printing process lives
------------------
     ethr =  1.33E-08,  avg # of iterations =  1.0

     total cpu time spent up to now is       21.3 secs

     total energy              =   -1226.55394723 Ry
     estimated scf accuracy    <       0.00000414 Ry

     iteration # 80     ecut=    30.00 Ry     beta= 0.70
     Davidson diagonalization with overlap

---- Real-time Memory Report at c_bands before calling an iterative solver
           179 MiB given to the printing process from OS
             0 MiB allocation reported by mallinfo(arena+hblkhd)
        165453 MiB available memory on the node where the printing process lives
------------------
     ethr =  1.15E-08,  avg # of iterations = 10.0

     total cpu time spent up to now is       21.6 secs

     total energy              =   -1226.55394574 Ry
     estimated scf accuracy    <       0.00005149 Ry

     iteration # 81     ecut=    30.00 Ry     beta= 0.70
     Davidson diagonalization with overlap

---- Real-time Memory Report at c_bands before calling an iterative solver
           179 MiB given to the printing process from OS
             0 MiB allocation reported by mallinfo(arena+hblkhd)
        165453 MiB available memory on the node where the printing process lives
------------------
     ethr =  1.15E-08,  avg # of iterations =  2.0

     total cpu time spent up to now is       21.8 secs

     total energy              =   -1226.55394809 Ry
     estimated scf accuracy    <       0.00000630 Ry

     iteration # 82     ecut=    30.00 Ry     beta= 0.70
     Davidson diagonalization with overlap

---- Real-time Memory Report at c_bands before calling an iterative solver
           179 MiB given to the printing process from OS
             0 MiB allocation reported by mallinfo(arena+hblkhd)
        165453 MiB available memory on the node where the printing process lives
------------------
     ethr =  1.15E-08,  avg # of iterations =  2.0

     total cpu time spent up to now is       22.0 secs

     total energy              =   -1226.55394837 Ry
     estimated scf accuracy    <       0.00001185 Ry

     iteration # 83     ecut=    30.00 Ry     beta= 0.70
     Davidson diagonalization with overlap

---- Real-time Memory Report at c_bands before calling an iterative solver
           179 MiB given to the printing process from OS
             0 MiB allocation reported by mallinfo(arena+hblkhd)
        165453 MiB available memory on the node where the printing process lives
------------------
     ethr =  1.15E-08,  avg # of iterations =  6.0

     total cpu time spent up to now is       22.3 secs

     total energy              =   -1226.55394962 Ry
     estimated scf accuracy    <       0.00002001 Ry

     iteration # 84     ecut=    30.00 Ry     beta= 0.70
     Davidson diagonalization with overlap

---- Real-time Memory Report at c_bands before calling an iterative solver
           179 MiB given to the printing process from OS
             0 MiB allocation reported by mallinfo(arena+hblkhd)
        165453 MiB available memory on the node where the printing process lives
------------------
     ethr =  1.15E-08,  avg # of iterations = 10.0

     total cpu time spent up to now is       22.6 secs

     total energy              =   -1226.55395138 Ry
     estimated scf accuracy    <       0.00002297 Ry

     iteration # 85     ecut=    30.00 Ry     beta= 0.70
     Davidson diagonalization with overlap

---- Real-time Memory Report at c_bands before calling an iterative solver
           179 MiB given to the printing process from OS
             0 MiB allocation reported by mallinfo(arena+hblkhd)
        165453 MiB available memory on the node where the printing process lives
------------------
     ethr =  1.15E-08,  avg # of iterations =  2.0

     total cpu time spent up to now is       22.8 secs

     total energy              =   -1226.55395069 Ry
     estimated scf accuracy    <       0.00002509 Ry

     iteration # 86     ecut=    30.00 Ry     beta= 0.70
     Davidson diagonalization with overlap

---- Real-time Memory Report at c_bands before calling an iterative solver
           179 MiB given to the printing process from OS
             0 MiB allocation reported by mallinfo(arena+hblkhd)
        165453 MiB available memory on the node where the printing process lives
------------------
     ethr =  1.15E-08,  avg # of iterations =  1.0

     total cpu time spent up to now is       23.1 secs

     total energy              =   -1226.55395309 Ry
     estimated scf accuracy    <       0.00000321 Ry

     iteration # 87     ecut=    30.00 Ry     beta= 0.70
     Davidson diagonalization with overlap

---- Real-time Memory Report at c_bands before calling an iterative solver
           179 MiB given to the printing process from OS
             0 MiB allocation reported by mallinfo(arena+hblkhd)
        165453 MiB available memory on the node where the printing process lives
------------------
     ethr =  8.91E-09,  avg # of iterations =  7.0

     total cpu time spent up to now is       23.3 secs

     total energy              =   -1226.55395424 Ry
     estimated scf accuracy    <       0.00000596 Ry

     iteration # 88     ecut=    30.00 Ry     beta= 0.70
     Davidson diagonalization with overlap

---- Real-time Memory Report at c_bands before calling an iterative solver
           179 MiB given to the printing process from OS
             0 MiB allocation reported by mallinfo(arena+hblkhd)
        165453 MiB available memory on the node where the printing process lives
------------------
     ethr =  8.91E-09,  avg # of iterations =  8.0

     total cpu time spent up to now is       23.6 secs

     total energy              =   -1226.55395175 Ry
     estimated scf accuracy    <       0.00001636 Ry

     iteration # 89     ecut=    30.00 Ry     beta= 0.70
     Davidson diagonalization with overlap

---- Real-time Memory Report at c_bands before calling an iterative solver
           179 MiB given to the printing process from OS
             0 MiB allocation reported by mallinfo(arena+hblkhd)
        165453 MiB available memory on the node where the printing process lives
------------------
     ethr =  8.91E-09,  avg # of iterations =  2.0

     total cpu time spent up to now is       23.9 secs

     total energy              =   -1226.55395307 Ry
     estimated scf accuracy    <       0.00000603 Ry

     iteration # 90     ecut=    30.00 Ry     beta= 0.70
     Davidson diagonalization with overlap

---- Real-time Memory Report at c_bands before calling an iterative solver
           179 MiB given to the printing process from OS
             0 MiB allocation reported by mallinfo(arena+hblkhd)
        165448 MiB available memory on the node where the printing process lives
------------------
     ethr =  8.91E-09,  avg # of iterations =  2.0

     total cpu time spent up to now is       24.1 secs

     total energy              =   -1226.55395229 Ry
     estimated scf accuracy    <       0.00005310 Ry

     iteration # 91     ecut=    30.00 Ry     beta= 0.70
     Davidson diagonalization with overlap

---- Real-time Memory Report at c_bands before calling an iterative solver
           179 MiB given to the printing process from OS
             0 MiB allocation reported by mallinfo(arena+hblkhd)
        165447 MiB available memory on the node where the printing process lives
------------------
     ethr =  8.91E-09,  avg # of iterations =  2.0

     total cpu time spent up to now is       24.4 secs

     total energy              =   -1226.55395190 Ry
     estimated scf accuracy    <       0.00000561 Ry

     iteration # 92     ecut=    30.00 Ry     beta= 0.70
     Davidson diagonalization with overlap

---- Real-time Memory Report at c_bands before calling an iterative solver
           179 MiB given to the printing process from OS
             0 MiB allocation reported by mallinfo(arena+hblkhd)
        165448 MiB available memory on the node where the printing process lives
------------------
     ethr =  8.91E-09,  avg # of iterations = 14.0

     total cpu time spent up to now is       24.9 secs

     total energy              =   -1226.55393964 Ry
     estimated scf accuracy    <       0.00030347 Ry

     iteration # 93     ecut=    30.00 Ry     beta= 0.70
     Davidson diagonalization with overlap

---- Real-time Memory Report at c_bands before calling an iterative solver
           179 MiB given to the printing process from OS
             0 MiB allocation reported by mallinfo(arena+hblkhd)
        165449 MiB available memory on the node where the printing process lives
------------------
     ethr =  8.91E-09,  avg # of iterations = 11.0

     total cpu time spent up to now is       25.2 secs

     total energy              =   -1226.55395494 Ry
     estimated scf accuracy    <       0.00002350 Ry

     iteration # 94     ecut=    30.00 Ry     beta= 0.70
     Davidson diagonalization with overlap

---- Real-time Memory Report at c_bands before calling an iterative solver
           179 MiB given to the printing process from OS
             0 MiB allocation reported by mallinfo(arena+hblkhd)
        165447 MiB available memory on the node where the printing process lives
------------------
     ethr =  8.91E-09,  avg # of iterations =  2.0

     total cpu time spent up to now is       25.4 secs

     total energy              =   -1226.55395549 Ry
     estimated scf accuracy    <       0.00000620 Ry

     iteration # 95     ecut=    30.00 Ry     beta= 0.70
     Davidson diagonalization with overlap

---- Real-time Memory Report at c_bands before calling an iterative solver
           179 MiB given to the printing process from OS
             0 MiB allocation reported by mallinfo(arena+hblkhd)
        165445 MiB available memory on the node where the printing process lives
------------------
     ethr =  8.91E-09,  avg # of iterations = 10.0

     total cpu time spent up to now is       25.7 secs

     total energy              =   -1226.55395600 Ry
     estimated scf accuracy    <       0.00000574 Ry

     iteration # 96     ecut=    30.00 Ry     beta= 0.70
     Davidson diagonalization with overlap

---- Real-time Memory Report at c_bands before calling an iterative solver
           179 MiB given to the printing process from OS
             0 MiB allocation reported by mallinfo(arena+hblkhd)
        165447 MiB available memory on the node where the printing process lives
------------------
     ethr =  8.91E-09,  avg # of iterations =  2.0

     total cpu time spent up to now is       25.9 secs

     total energy              =   -1226.55395491 Ry
     estimated scf accuracy    <       0.00000348 Ry

     iteration # 97     ecut=    30.00 Ry     beta= 0.70
     Davidson diagonalization with overlap

---- Real-time Memory Report at c_bands before calling an iterative solver
           179 MiB given to the printing process from OS
             0 MiB allocation reported by mallinfo(arena+hblkhd)
        165448 MiB available memory on the node where the printing process lives
------------------
     ethr =  8.91E-09,  avg # of iterations =  8.0

     total cpu time spent up to now is       26.2 secs

     total energy              =   -1226.55395642 Ry
     estimated scf accuracy    <       0.00015082 Ry

     iteration # 98     ecut=    30.00 Ry     beta= 0.70
     Davidson diagonalization with overlap

---- Real-time Memory Report at c_bands before calling an iterative solver
           179 MiB given to the printing process from OS
             0 MiB allocation reported by mallinfo(arena+hblkhd)
        165449 MiB available memory on the node where the printing process lives
------------------
     ethr =  8.91E-09,  avg # of iterations =  1.0

     total cpu time spent up to now is       26.4 secs

     total energy              =   -1226.55395755 Ry
     estimated scf accuracy    <       0.00003892 Ry

     iteration # 99     ecut=    30.00 Ry     beta= 0.70
     Davidson diagonalization with overlap

---- Real-time Memory Report at c_bands before calling an iterative solver
           179 MiB given to the printing process from OS
             0 MiB allocation reported by mallinfo(arena+hblkhd)
        165449 MiB available memory on the node where the printing process lives
------------------
     ethr =  8.91E-09,  avg # of iterations =  1.0

     total cpu time spent up to now is       26.7 secs

     total energy              =   -1226.55395803 Ry
     estimated scf accuracy    <       0.00000177 Ry

     iteration #100     ecut=    30.00 Ry     beta= 0.70
     Davidson diagonalization with overlap

---- Real-time Memory Report at c_bands before calling an iterative solver
           179 MiB given to the printing process from OS
             0 MiB allocation reported by mallinfo(arena+hblkhd)
        165449 MiB available memory on the node where the printing process lives
------------------
     ethr =  4.90E-09,  avg # of iterations =  2.0

     total cpu time spent up to now is       26.9 secs

     total energy              =   -1226.55395764 Ry
     estimated scf accuracy    <       0.00000668 Ry

     End of self-consistent calculation

     convergence NOT achieved after 100 iterations: stopping

     Writing config to output data dir calculations/myprefix.save/
     Message from routine punch:
     wavefunctions written to file
 
     init_run     :      0.71s CPU      0.76s WALL (       1 calls)
     electrons    :     25.45s CPU     25.83s WALL (       1 calls)

     Called by init_run:
     wfcinit      :      0.02s CPU      0.03s WALL (       1 calls)
     wfcinit:atom :      0.00s CPU      0.00s WALL (       1 calls)
     wfcinit:wfcr :      0.02s CPU      0.03s WALL (       1 calls)
     potinit      :      0.33s CPU      0.35s WALL (       1 calls)
     hinit0       :      0.33s CPU      0.34s WALL (       1 calls)

     Called by electrons:
     c_bands      :      2.02s CPU      2.12s WALL (     100 calls)
     sum_band     :      0.92s CPU      0.96s WALL (     100 calls)
     v_of_rho     :      0.35s CPU      0.36s WALL (     101 calls)
     v_h          :      0.02s CPU      0.02s WALL (     101 calls)
     v_xc         :      0.33s CPU      0.34s WALL (     101 calls)
     newd         :      0.71s CPU      0.73s WALL (     101 calls)
     PAW_pot      :     21.49s CPU     21.67s WALL (     101 calls)
     mix_rho      :      0.10s CPU      0.11s WALL (     100 calls)

     Called by c_bands:
     init_us_2    :      0.01s CPU      0.01s WALL (     201 calls)
     init_us_2:cp :      0.01s CPU      0.01s WALL (     201 calls)
     regterg      :      1.99s CPU      2.07s WALL (     100 calls)

     Called by sum_band:
     sum_band:wei :      0.01s CPU      0.01s WALL (     100 calls)
     sum_band:loo :      0.12s CPU      0.15s WALL (     100 calls)
     sum_band:buf :      0.00s CPU      0.00s WALL (     100 calls)
     sum_band:ini :      0.00s CPU      0.01s WALL (     100 calls)
     sum_band:cal :      0.02s CPU      0.02s WALL (     100 calls)
     sum_band:bec :      0.00s CPU      0.00s WALL (     100 calls)
     addusdens    :      0.72s CPU      0.73s WALL (     100 calls)
     addusd:skk   :      0.00s CPU      0.00s WALL (     200 calls)
     addusd:dgemm :      0.15s CPU      0.16s WALL (     200 calls)
     addusd:qvan2 :      0.53s CPU      0.53s WALL (     200 calls)

     Called by *egterg:
     rdiaghg      :      1.07s CPU      1.10s WALL (     539 calls)
     regterg:over :      0.15s CPU      0.16s WALL (     439 calls)
     regterg:upda :      0.06s CPU      0.06s WALL (     439 calls)
     regterg:last :      0.07s CPU      0.08s WALL (     195 calls)
     rdiaghg:chol :      0.07s CPU      0.08s WALL (     539 calls)
     rdiaghg:inve :      0.02s CPU      0.02s WALL (     539 calls)
     rdiaghg:para :      0.10s CPU      0.10s WALL (    1078 calls)
     h_psi        :      0.58s CPU      0.64s WALL (     540 calls)
     s_psi        :      0.00s CPU      0.00s WALL (     540 calls)
     g_psi        :      0.00s CPU      0.00s WALL (     439 calls)

     Called by h_psi:
     h_psi:calbec :      0.05s CPU      0.06s WALL (     540 calls)
     vloc_psi     :      0.51s CPU      0.57s WALL (     540 calls)
     add_vuspsi   :      0.01s CPU      0.01s WALL (     540 calls)

     General routines
     calbec       :      0.07s CPU      0.07s WALL (     640 calls)
     fft          :      0.40s CPU      0.41s WALL (    1111 calls)
     ffts         :      0.13s CPU      0.13s WALL (     201 calls)
     fftw         :      0.57s CPU      0.64s WALL (    6762 calls)
     interpolate  :      0.14s CPU      0.14s WALL (     101 calls)
     davcio       :      0.00s CPU      0.00s WALL (      19 calls)
 
     Parallel routines

     PAW routines
     PAW_pot      :     21.49s CPU     21.67s WALL (     101 calls)
     PAW_symme    :      0.04s CPU      0.05s WALL (     201 calls)
 
     PWSCF        :     26.44s CPU     27.10s WALL

 
   This run was terminated on:  20: 7:58   4Mar2023            

=------------------------------------------------------------------------------=
   JOB DONE.
=------------------------------------------------------------------------------=
