
     Program PWSCF v.7.0 starts on  3Mar2023 at 16:36:23 

     This program is part of the open-source Quantum ESPRESSO suite
     for quantum simulation of materials; please cite
         "P. Giannozzi et al., J. Phys.:Condens. Matter 21 395502 (2009);
         "P. Giannozzi et al., J. Phys.:Condens. Matter 29 465901 (2017);
         "P. Giannozzi et al., J. Chem. Phys. 152 154105 (2020);
          URL http://www.quantum-espresso.org", 
     in publications or presentations arising from this work. More details at
     http://www.quantum-espresso.org/quote

     Parallel version (MPI & OpenMP), running on      32 processor cores
     Number of MPI processes:                32
     Threads/MPI process:                     1

     MPI processes distributed on     1 nodes
     R & G space division:  proc/nbgrp/npool/nimage =      32
     174130 MiB available memory on the printing compute node when the environment starts
 
     Reading input from espresso_950.pwi
Warning: card &CELL ignored
Warning: card / ignored

     Current dimensions of program PWSCF are:
     Max number of different atomic species (ntypx) = 10
     Max number of k-points (npk) =  40000
     Max angular momentum in pseudopotentials (lmaxx) =  4
     file O.pbe-n-kjpaw_psl.0.1.UPF: wavefunction(s)  2P renormalized

     gamma-point specific algorithms are used
     Message from routine setup:
     using ibrav=0 with symmetry is DISCOURAGED, use correct ibrav instead

     Subspace diagonalization in iterative solution of the eigenvalue problem:
     one sub-group per band group will be used
     scalapack distributed-memory algorithm (size of sub-group:  5*  5 procs)

 
     Parallelization info
     --------------------
     sticks:   dense  smooth     PW     G-vecs:    dense   smooth      PW
     Min          53      26      5                  938      330      39
     Max          56      28      8                  944      338      44
     Sum        1729     871    215                30117    10693    1331
 
     Using Slab Decomposition
 


     bravais-lattice index     =            0
     lattice parameter (alat)  =      10.0511  a.u.
     unit-cell volume          =     479.8993 (a.u.)^3
     number of atoms/cell      =            5
     number of atomic types    =            3
     number of electrons       =        42.00
     number of Kohn-Sham states=           25
     kinetic-energy cutoff     =      30.0000  Ry
     charge density cutoff     =     240.0000  Ry
     scf convergence threshold =      1.0E-06
     mixing beta               =       0.7000
     number of iterations used =            8  plain     mixing
     Exchange-correlation=  SLA  PW   PBX  PBC
                           (   1   4   3   4   0   0   0)

     celldm(1)=  10.051093  celldm(2)=   0.000000  celldm(3)=   0.000000
     celldm(4)=   0.000000  celldm(5)=   0.000000  celldm(6)=   0.000000

     crystal axes: (cart. coord. in units of alat)
               a(1) = (   1.000000   0.000000   0.000000 )  
               a(2) = (   0.441333   0.897343   0.000000 )  
               a(3) = (  -0.697416  -0.486018   0.526686 )  

     reciprocal axes: (cart. coord. in units 2 pi/alat)
               b(1) = (  1.000000 -0.491822  0.870312 )  
               b(2) = (  0.000000  1.114401  1.028353 )  
               b(3) = (  0.000000  0.000000  1.898665 )  


     PseudoPot. # 1 for Sb read from file:
     /home/pragov/projects/rrg-bengioy-ad/pragov/crystal_structure_design/SSSP/sb_pbe_v1.4.uspp.F.UPF
     MD5 check sum: 9bc50dfb53373b713f5709b9110fe27f
     Pseudo is Ultrasoft + core correction, Zval = 15.0
     Generated by new atomic code, or converted to UPF format
     Using radial grid of  891 points,  6 beta functions with: 
                l(1) =   0
                l(2) =   0
                l(3) =   1
                l(4) =   1
                l(5) =   2
                l(6) =   2
     Q(r) pseudized with  8 coefficients,  rinner =    1.350   1.350   1.350
                                                       1.350   1.350

     PseudoPot. # 2 for O  read from file:
     /home/pragov/projects/rrg-bengioy-ad/pragov/crystal_structure_design/SSSP/O.pbe-n-kjpaw_psl.0.1.UPF
     MD5 check sum: 0234752ac141de4415c5fc33072bef88
     Pseudo is Projector augmented-wave + core cor, Zval =  6.0
     Generated using "atomic" code by A. Dal Corso  v.5.0.99 svn rev. 10869
     Shape of augmentation charge: BESSEL
     Using radial grid of 1095 points,  4 beta functions with: 
                l(1) =   0
                l(2) =   0
                l(3) =   1
                l(4) =   1
     Q(r) pseudized with 0 coefficients 


     PseudoPot. # 3 for F  read from file:
     /home/pragov/projects/rrg-bengioy-ad/pragov/crystal_structure_design/SSSP/f_pbe_v1.4.uspp.F.UPF
     MD5 check sum: 4c38b6a325caf53ec0e86aed9459de46
     Pseudo is Ultrasoft, Zval =  7.0
     Generated by new atomic code, or converted to UPF format
     Using radial grid of  799 points,  4 beta functions with: 
                l(1) =   0
                l(2) =   0
                l(3) =   1
                l(4) =   1
     Q(r) pseudized with  8 coefficients,  rinner =    0.950   0.950   0.950


     atomic species   valence    mass     pseudopotential
        Sb            15.00   121.76000     Sb( 1.00)
        O              6.00    15.99900     O ( 1.00)
        F              7.00    18.99840     F ( 1.00)

      2 Sym. Ops., with inversion, found


                                    s                        frac. trans.

      isym =  1     identity                                     

 cryst.   s( 1) = (     1          0          0      )
                  (     0          1          0      )
                  (     0          0          1      )

 cart.    s( 1) = (  1.0000000 -0.0000000  0.0000000 )
                  (  0.0000000  1.0000000 -0.0000000 )
                  (  0.0000000  0.0000000  1.0000000 )


      isym =  2     inversion                                    

 cryst.   s( 2) = (    -1          0          0      )
                  (     0         -1          0      )
                  (     0          0         -1      )

 cart.    s( 2) = ( -1.0000000  0.0000000 -0.0000000 )
                  (  0.0000000 -1.0000000  0.0000000 )
                  (  0.0000000  0.0000000 -1.0000000 )


   Cartesian axes

     site n.     atom                  positions (alat units)
         1           Sb  tau(   1) = (   0.0000000   0.0000000   0.0000000  )
         2           O   tau(   2) = (  -0.1280412   0.2056626   0.2633429  )
         3           F   tau(   3) = (   1.1396060   0.7094943   0.0000000  )
         4           F   tau(   4) = (   0.1512922  -0.2430090   0.2633429  )
         5           F   tau(   5) = (   0.3017273   0.1878489   0.0000000  )

   Crystallographic axes

     site n.     atom                  positions (cryst. coord.)
         1           Sb  tau(   1) = (  0.0000000  0.0000000  0.0000000  )
         2           O   tau(   2) = ( -0.0000000  0.5000000  0.5000000  )
         3           F   tau(   3) = (  0.7906610  0.7906610  0.0000000  )
         4           F   tau(   4) = (  0.5000000 -0.0000000  0.5000000  )
         5           F   tau(   5) = (  0.2093390  0.2093390  0.0000000  )

     number of k points=     1  Methfessel-Paxton smearing, width (Ry)=  0.0010
                       cart. coord. in units 2pi/alat
        k(    1) = (   0.0000000   0.0000000   0.0000000), wk =   2.0000000

                       cryst. coord.
        k(    1) = (   0.0000000   0.0000000   0.0000000), wk =   2.0000000

     Dense  grid:    15059 G-vectors     FFT dimensions: (  50,  50,  50)

     Smooth grid:     5347 G-vectors     FFT dimensions: (  36,  36,  36)

     Dynamical RAM for                 wfc:       0.01 MB

     Dynamical RAM for     wfc (w. buffer):       0.01 MB

     Dynamical RAM for           str. fact:       0.02 MB

     Dynamical RAM for           local pot:       0.00 MB

     Dynamical RAM for          nlocal pot:       0.02 MB

     Dynamical RAM for                qrad:       3.73 MB

     Dynamical RAM for          rho,v,vnew:       0.14 MB

     Dynamical RAM for               rhoin:       0.05 MB

     Dynamical RAM for            rho*nmix:       0.12 MB

     Dynamical RAM for           G-vectors:       0.03 MB

     Dynamical RAM for          h,s,v(r/c):       0.00 MB

     Dynamical RAM for          <psi|beta>:       0.01 MB

     Dynamical RAM for                 psi:       0.02 MB

     Dynamical RAM for                hpsi:       0.02 MB

     Dynamical RAM for                spsi:       0.02 MB

     Dynamical RAM for      wfcinit/wfcrot:       0.03 MB

     Dynamical RAM for           addusdens:       1.36 MB

     Dynamical RAM for          addusforce:       1.41 MB

     Dynamical RAM for         addusstress:       1.45 MB

     Estimated static dynamical RAM per process >       4.21 MB

     Estimated max dynamical RAM per process >       5.77 MB

     Estimated total dynamical RAM >     184.60 MB

     Check: negative core charge=   -0.000007

     Initial potential from superposition of free atoms

     starting charge      41.0000, renormalised to      42.0000
     Starting wfcs are   25 randomized atomic wfcs
     Checking if some PAW data can be deallocated... 
       PAW data deallocated on   25 nodes for type:  2

     total cpu time spent up to now is        0.8 secs

     Self-consistent Calculation

     iteration #  1     ecut=    30.00 Ry     beta= 0.70
     Davidson diagonalization with overlap

---- Real-time Memory Report at c_bands before calling an iterative solver
           129 MiB given to the printing process from OS
             0 MiB allocation reported by mallinfo(arena+hblkhd)
        173455 MiB available memory on the node where the printing process lives
------------------
     ethr =  1.00E-02,  avg # of iterations =  4.0

     total cpu time spent up to now is        0.9 secs

     total energy              =    -371.98750866 Ry
     estimated scf accuracy    <       0.90358383 Ry

     iteration #  2     ecut=    30.00 Ry     beta= 0.70
     Davidson diagonalization with overlap

---- Real-time Memory Report at c_bands before calling an iterative solver
           133 MiB given to the printing process from OS
             0 MiB allocation reported by mallinfo(arena+hblkhd)
        173430 MiB available memory on the node where the printing process lives
------------------
     ethr =  2.15E-03,  avg # of iterations =  3.0

     total cpu time spent up to now is        0.9 secs

     total energy              =    -371.62825809 Ry
     estimated scf accuracy    <       2.85083767 Ry

     iteration #  3     ecut=    30.00 Ry     beta= 0.70
     Davidson diagonalization with overlap

---- Real-time Memory Report at c_bands before calling an iterative solver
           135 MiB given to the printing process from OS
             0 MiB allocation reported by mallinfo(arena+hblkhd)
        173424 MiB available memory on the node where the printing process lives
------------------
     ethr =  2.15E-03,  avg # of iterations =  2.0

     total cpu time spent up to now is        0.9 secs

     total energy              =    -372.37193094 Ry
     estimated scf accuracy    <       0.45159470 Ry

     iteration #  4     ecut=    30.00 Ry     beta= 0.70
     Davidson diagonalization with overlap

---- Real-time Memory Report at c_bands before calling an iterative solver
           135 MiB given to the printing process from OS
             0 MiB allocation reported by mallinfo(arena+hblkhd)
        173424 MiB available memory on the node where the printing process lives
------------------
     ethr =  1.08E-03,  avg # of iterations =  2.0

     total cpu time spent up to now is        1.0 secs

     total energy              =    -372.38875147 Ry
     estimated scf accuracy    <       0.10398664 Ry

     iteration #  5     ecut=    30.00 Ry     beta= 0.70
     Davidson diagonalization with overlap

---- Real-time Memory Report at c_bands before calling an iterative solver
           135 MiB given to the printing process from OS
             0 MiB allocation reported by mallinfo(arena+hblkhd)
        173424 MiB available memory on the node where the printing process lives
------------------
     ethr =  2.48E-04,  avg # of iterations =  2.0

     total cpu time spent up to now is        1.0 secs

     total energy              =    -372.38361261 Ry
     estimated scf accuracy    <       0.03994361 Ry

     iteration #  6     ecut=    30.00 Ry     beta= 0.70
     Davidson diagonalization with overlap

---- Real-time Memory Report at c_bands before calling an iterative solver
           136 MiB given to the printing process from OS
             0 MiB allocation reported by mallinfo(arena+hblkhd)
        173424 MiB available memory on the node where the printing process lives
------------------
     ethr =  9.51E-05,  avg # of iterations =  1.0

     total cpu time spent up to now is        1.0 secs

     total energy              =    -372.37776634 Ry
     estimated scf accuracy    <       0.01481475 Ry

     iteration #  7     ecut=    30.00 Ry     beta= 0.70
     Davidson diagonalization with overlap

---- Real-time Memory Report at c_bands before calling an iterative solver
           136 MiB given to the printing process from OS
             0 MiB allocation reported by mallinfo(arena+hblkhd)
        173424 MiB available memory on the node where the printing process lives
------------------
     ethr =  3.53E-05,  avg # of iterations =  2.0

     total cpu time spent up to now is        1.1 secs

     total energy              =    -372.38026953 Ry
     estimated scf accuracy    <       0.00006881 Ry

     iteration #  8     ecut=    30.00 Ry     beta= 0.70
     Davidson diagonalization with overlap

---- Real-time Memory Report at c_bands before calling an iterative solver
           137 MiB given to the printing process from OS
             0 MiB allocation reported by mallinfo(arena+hblkhd)
        173424 MiB available memory on the node where the printing process lives
------------------
     ethr =  1.64E-07,  avg # of iterations =  3.0

     total cpu time spent up to now is        1.1 secs

     total energy              =    -372.38028598 Ry
     estimated scf accuracy    <       0.00001263 Ry

     iteration #  9     ecut=    30.00 Ry     beta= 0.70
     Davidson diagonalization with overlap

---- Real-time Memory Report at c_bands before calling an iterative solver
           137 MiB given to the printing process from OS
             0 MiB allocation reported by mallinfo(arena+hblkhd)
        173423 MiB available memory on the node where the printing process lives
------------------
     ethr =  3.01E-08,  avg # of iterations =  2.0

     total cpu time spent up to now is        1.1 secs

     total energy              =    -372.38028873 Ry
     estimated scf accuracy    <       0.00000166 Ry

     iteration # 10     ecut=    30.00 Ry     beta= 0.70
     Davidson diagonalization with overlap

---- Real-time Memory Report at c_bands before calling an iterative solver
           137 MiB given to the printing process from OS
             0 MiB allocation reported by mallinfo(arena+hblkhd)
        173422 MiB available memory on the node where the printing process lives
------------------
     ethr =  3.95E-09,  avg # of iterations =  2.0

     total cpu time spent up to now is        1.2 secs

     End of self-consistent calculation

          k = 0.0000 0.0000 0.0000 (   666 PWs)   bands (ev):

   -26.0167 -25.6696 -25.5786 -25.3954 -25.2965 -19.7171 -18.9338 -18.4049
   -12.7116  -3.6969  -2.4291  -2.3868  -2.3183   0.0524   0.1443   0.2634
     0.3564   0.9509   1.3064   3.0406   3.0774   4.4451  12.2661  13.7738
    14.6061

     occupation numbers 
     1.0000   1.0000   1.0000   1.0000   1.0000   1.0000   1.0000   1.0000
     1.0000   1.0000   1.0000   1.0000   1.0000   1.0000   1.0000   1.0000
     1.0000   1.0000   1.0000   1.0000   1.0000  -0.0000  -0.0000  -0.0000
    -0.0000

     the Fermi energy is     3.2405 ev

!    total energy              =    -372.38028861 Ry
     estimated scf accuracy    <       0.00000053 Ry
     smearing contrib. (-TS)   =       0.00000000 Ry
     internal energy E=F+TS    =    -372.38028861 Ry

     The total energy is F=E-TS. E is the sum of the following terms:
     one-electron contribution =    -202.43907749 Ry
     hartree contribution      =     124.10837879 Ry
     xc contribution           =     -79.70858311 Ry
     ewald contribution        =    -204.83089568 Ry
     one-center paw contrib.   =      -9.51011112 Ry
      -> PAW hartree energy AE =       0.00000000 Ry
      -> PAW hartree energy PS =       0.00000000 Ry
      -> PAW xc energy AE      =       0.00000000 Ry
      -> PAW xc energy PS      =       0.00000000 Ry
      -> total E_H with PAW    =     124.10837879 Ry
      -> total E_XC with PAW   =     -79.70858311 Ry

     convergence has been achieved in  10 iterations

     Forces acting on atoms (cartesian axes, Ry/au):

     atom    1 type  1   force =     0.00000000    0.00000000    0.00000000
     atom    2 type  2   force =     0.00000000    0.00000000    0.00000000
     atom    3 type  3   force =     0.02829323    0.01761556    0.00000011
     atom    4 type  3   force =     0.00000000    0.00000000    0.00000000
     atom    5 type  3   force =    -0.02829323   -0.01761556   -0.00000011
     The non-local contrib.  to forces
     atom    1 type  1   force =     0.00000000    0.00000000    0.00000000
     atom    2 type  2   force =     0.00000000    0.00000000    0.00000000
     atom    3 type  3   force =     1.50171241    0.93493380    0.00000010
     atom    4 type  3   force =     0.00000000    0.00000000    0.00000000
     atom    5 type  3   force =    -1.50171241   -0.93493380   -0.00000010
     The ionic contribution  to forces
     atom    1 type  1   force =    -0.00000000   -0.00000000   -0.00000000
     atom    2 type  2   force =    -0.00000000    0.00000000   -0.00000000
     atom    3 type  3   force =   -10.91963993   -6.79833469   -0.00000000
     atom    4 type  3   force =     0.00000000   -0.00000000    0.00000000
     atom    5 type  3   force =    10.91963993    6.79833469    0.00000000
     The local contribution  to forces
     atom    1 type  1   force =     0.00022194    0.00015638    0.00000303
     atom    2 type  2   force =    -0.00079172   -0.00049607    0.00000189
     atom    3 type  3   force =     9.44604858    5.88090987    0.00000152
     atom    4 type  3   force =    -0.00005806   -0.00003672    0.00000760
     atom    5 type  3   force =    -9.44618235   -5.88098788    0.00000162
     The core correction contribution to forces
     atom    1 type  1   force =    -0.00000603   -0.00000284   -0.00000014
     atom    2 type  2   force =    -0.00000899   -0.00000560    0.00000008
     atom    3 type  3   force =     0.00000000    0.00000000    0.00000000
     atom    4 type  3   force =     0.00000000    0.00000000    0.00000000
     atom    5 type  3   force =     0.00000000    0.00000000    0.00000000
     The Hubbard contrib.    to forces
     atom    1 type  1   force =     0.00000000    0.00000000    0.00000000
     atom    2 type  2   force =     0.00000000    0.00000000    0.00000000
     atom    3 type  3   force =     0.00000000    0.00000000    0.00000000
     atom    4 type  3   force =     0.00000000    0.00000000    0.00000000
     atom    5 type  3   force =     0.00000000    0.00000000    0.00000000
     The SCF correction term to forces
     atom    1 type  1   force =    -0.00030041   -0.00020835   -0.00001107
     atom    2 type  2   force =     0.00022801    0.00014391    0.00000284
     atom    3 type  3   force =     0.00011049    0.00006718   -0.00000202
     atom    4 type  3   force =     0.00002506    0.00001670   -0.00001025
     atom    5 type  3   force =    -0.00010007   -0.00006796   -0.00000214

     Total force =     0.047134     Total SCF correction =     0.000489


     Computing stress (Cartesian axis) and pressure

          total   stress  (Ry/bohr**3)                   (kbar)     P=     -309.95
  -0.00223315  -0.00013894  -0.00005862         -328.51      -20.44       -8.62
  -0.00013894  -0.00209648   0.00009415          -20.44     -308.40       13.85
  -0.00005862   0.00009415  -0.00199145           -8.62       13.85     -292.95

     kinetic stress (kbar)  21595.60   -288.09      8.60
                             -288.09  21878.98    -13.81
                                8.60    -13.81  22055.62

     local   stress (kbar)  -8271.37    951.20   1095.49
                              951.20  -9207.01  -1759.60
                             1095.49  -1759.60 -10145.46

     nonloc. stress (kbar)   1290.31    -41.65   -108.31
                              -41.65   1331.28    173.96
                             -108.31    173.96   1391.44

     hartree stress (kbar)  12142.01   -581.19   -354.71
                             -581.19  12713.69    569.75
                             -354.71    569.75  13187.64

     exc-cor stress (kbar)   1135.16     -0.42     -4.46
                               -0.42   1135.57      7.16
                               -4.46      7.16   1137.24

     corecor stress (kbar)  -7170.63      0.18      2.41
                                0.18  -7170.80     -3.87
                                2.41     -3.87  -7171.67

     ewald   stress (kbar) -21049.59    -60.47   -647.64
                              -60.47 -20990.12   1040.26
                             -647.64   1040.26 -20747.76

     hubbard stress (kbar)      0.00      0.00      0.00
                                0.00      0.00      0.00
                                0.00      0.00      0.00

     DFT-D   stress (kbar)      0.00      0.00      0.00
                                0.00      0.00      0.00
                                0.00      0.00      0.00

     XDM     stress (kbar)      0.00      0.00      0.00
                                0.00      0.00      0.00
                                0.00      0.00      0.00

     dft-nl  stress (kbar)      0.00      0.00      0.00
                                0.00      0.00      0.00
                                0.00      0.00      0.00

     TS-vdW  stress (kbar)      0.00      0.00      0.00
                                0.00      0.00      0.00
                                0.00      0.00      0.00


                                0.00      0.00      0.00
                                0.00      0.00      0.00


                                0.00      0.00      0.00


     Writing all to output data dir calculations/myprefix.save/
 
     init_run     :      0.51s CPU      0.55s WALL (       1 calls)
     electrons    :      0.36s CPU      0.44s WALL (       1 calls)
     forces       :      0.03s CPU      0.03s WALL (       1 calls)
     stress       :      0.07s CPU      0.07s WALL (       1 calls)

     Called by init_run:
     wfcinit      :      0.01s CPU      0.02s WALL (       1 calls)
     wfcinit:atom :      0.00s CPU      0.00s WALL (       1 calls)
     wfcinit:wfcr :      0.01s CPU      0.02s WALL (       1 calls)
     potinit      :      0.27s CPU      0.28s WALL (       1 calls)
     hinit0       :      0.22s CPU      0.23s WALL (       1 calls)

     Called by electrons:
     c_bands      :      0.15s CPU      0.16s WALL (      10 calls)
     sum_band     :      0.04s CPU      0.04s WALL (      10 calls)
     v_of_rho     :      0.03s CPU      0.03s WALL (      11 calls)
     v_h          :      0.00s CPU      0.00s WALL (      11 calls)
     v_xc         :      0.03s CPU      0.03s WALL (      13 calls)
     newd         :      0.03s CPU      0.03s WALL (      11 calls)
     PAW_pot      :      0.12s CPU      0.12s WALL (      11 calls)
     mix_rho      :      0.01s CPU      0.01s WALL (      10 calls)

     Called by c_bands:
     init_us_2    :      0.00s CPU      0.00s WALL (      21 calls)
     init_us_2:cp :      0.00s CPU      0.00s WALL (      21 calls)
     regterg      :      0.15s CPU      0.15s WALL (      10 calls)

     Called by sum_band:
     sum_band:wei :      0.00s CPU      0.00s WALL (      10 calls)
     sum_band:loo :      0.01s CPU      0.01s WALL (      10 calls)
     sum_band:buf :      0.00s CPU      0.00s WALL (      10 calls)
     sum_band:ini :      0.00s CPU      0.00s WALL (      10 calls)
     sum_band:cal :      0.00s CPU      0.00s WALL (      10 calls)
     sum_band:bec :      0.00s CPU      0.00s WALL (      10 calls)
     addusdens    :      0.02s CPU      0.02s WALL (      10 calls)
     addusd:skk   :      0.00s CPU      0.00s WALL (      30 calls)
     addusd:dgemm :      0.00s CPU      0.00s WALL (      30 calls)
     addusd:qvan2 :      0.02s CPU      0.02s WALL (      30 calls)

     Called by *egterg:
     rdiaghg      :      0.08s CPU      0.08s WALL (      33 calls)
     regterg:over :      0.01s CPU      0.01s WALL (      23 calls)
     regterg:upda :      0.01s CPU      0.01s WALL (      23 calls)
     regterg:last :      0.01s CPU      0.01s WALL (      19 calls)
     rdiaghg:chol :      0.01s CPU      0.01s WALL (      33 calls)
     rdiaghg:inve :      0.00s CPU      0.00s WALL (      33 calls)
     rdiaghg:para :      0.01s CPU      0.01s WALL (      66 calls)
     h_psi        :      0.05s CPU      0.06s WALL (      34 calls)
     s_psi        :      0.00s CPU      0.00s WALL (      34 calls)
     g_psi        :      0.00s CPU      0.00s WALL (      23 calls)

     Called by h_psi:
     h_psi:calbec :      0.00s CPU      0.01s WALL (      34 calls)
     vloc_psi     :      0.04s CPU      0.05s WALL (      34 calls)
     add_vuspsi   :      0.00s CPU      0.00s WALL (      34 calls)

     General routines
     calbec       :      0.01s CPU      0.01s WALL (      49 calls)
     fft          :      0.18s CPU      0.19s WALL (     139 calls)
     ffts         :      0.24s CPU      0.24s WALL (      21 calls)
     fftw         :      0.05s CPU      0.06s WALL (     772 calls)
     interpolate  :      0.24s CPU      0.24s WALL (      11 calls)
 
     Parallel routines

     PAW routines
     PAW_pot      :      0.12s CPU      0.12s WALL (      11 calls)
     PAW_symme    :      0.00s CPU      0.00s WALL (      21 calls)
 
     PWSCF        :      1.24s CPU      1.74s WALL

 
   This run was terminated on:  16:36:24   3Mar2023            

=------------------------------------------------------------------------------=
   JOB DONE.
=------------------------------------------------------------------------------=
