
     Program PWSCF v.7.0 starts on  3Mar2023 at 14:24:43 

     This program is part of the open-source Quantum ESPRESSO suite
     for quantum simulation of materials; please cite
         "P. Giannozzi et al., J. Phys.:Condens. Matter 21 395502 (2009);
         "P. Giannozzi et al., J. Phys.:Condens. Matter 29 465901 (2017);
         "P. Giannozzi et al., J. Chem. Phys. 152 154105 (2020);
          URL http://www.quantum-espresso.org", 
     in publications or presentations arising from this work. More details at
     http://www.quantum-espresso.org/quote

     Parallel version (MPI & OpenMP), running on      32 processor cores
     Number of MPI processes:                32
     Threads/MPI process:                     1

     MPI processes distributed on     1 nodes
     R & G space division:  proc/nbgrp/npool/nimage =      32
     174242 MiB available memory on the printing compute node when the environment starts
 
     Reading input from espresso_593.pwi
Warning: card &CELL ignored
Warning: card / ignored

     Current dimensions of program PWSCF are:
     Max number of different atomic species (ntypx) = 10
     Max number of k-points (npk) =  40000
     Max angular momentum in pseudopotentials (lmaxx) =  4
     file K.pbe-spn-kjpaw_psl.1.0.0.UPF: wavefunction(s)  3S renormalized

     gamma-point specific algorithms are used
     Message from routine setup:
     using ibrav=0 with symmetry is DISCOURAGED, use correct ibrav instead

     Subspace diagonalization in iterative solution of the eigenvalue problem:
     one sub-group per band group will be used
     scalapack distributed-memory algorithm (size of sub-group:  5*  5 procs)

 
     Parallelization info
     --------------------
     sticks:   dense  smooth     PW     G-vecs:    dense   smooth      PW
     Min          47      24      5                 2643      928     110
     Max          52      25      8                 2656      940     126
     Sum        1555     769    199                84735    29961    3791
 
     Using Slab Decomposition
 


     bravais-lattice index     =            0
     lattice parameter (alat)  =       9.7114  a.u.
     unit-cell volume          =    1349.8562 (a.u.)^3
     number of atoms/cell      =           14
     number of atomic types    =            4
     number of electrons       =        88.00
     number of Kohn-Sham states=           53
     kinetic-energy cutoff     =      30.0000  Ry
     charge density cutoff     =     240.0000  Ry
     scf convergence threshold =      1.0E-06
     mixing beta               =       0.7000
     number of iterations used =            8  plain     mixing
     Exchange-correlation=  SLA  PW   PBX  PBC
                           (   1   4   3   4   0   0   0)

     celldm(1)=   9.711406  celldm(2)=   0.000000  celldm(3)=   0.000000
     celldm(4)=   0.000000  celldm(5)=   0.000000  celldm(6)=   0.000000

     crystal axes: (cart. coord. in units of alat)
               a(1) = (   1.000000   0.000000   0.000000 )  
               a(2) = (  -0.500000   0.866025   0.000000 )  
               a(3) = (   0.000000   0.000000   1.701808 )  

     reciprocal axes: (cart. coord. in units 2 pi/alat)
               b(1) = (  1.000000  0.577350  0.000000 )  
               b(2) = (  0.000000  1.154701  0.000000 )  
               b(3) = (  0.000000  0.000000  0.587610 )  


     PseudoPot. # 1 for K  read from file:
     /home/pragov/projects/rrg-bengioy-ad/pragov/crystal_structure_design/SSSP/K.pbe-spn-kjpaw_psl.1.0.0.UPF
     MD5 check sum: 7d58810084cac21f60fbe77ea2b688fd
     Pseudo is Projector augmented-wave + core cor, Zval =  9.0
     Generated using "atomic" code by A. Dal Corso  v.5.1
     Shape of augmentation charge: PSQ
     Using radial grid of 1165 points,  6 beta functions with: 
                l(1) =   0
                l(2) =   0
                l(3) =   1
                l(4) =   1
                l(5) =   2
                l(6) =   2
     Q(r) pseudized with 0 coefficients 


     PseudoPot. # 2 for Li read from file:
     /home/pragov/projects/rrg-bengioy-ad/pragov/crystal_structure_design/SSSP/li_pbe_v1.4.uspp.F.UPF
     MD5 check sum: e912e257baa3777c20ea3d68f190483c
     Pseudo is Ultrasoft, Zval =  3.0
     Generated by new atomic code, or converted to UPF format
     Using radial grid of  751 points,  5 beta functions with: 
                l(1) =   0
                l(2) =   0
                l(3) =   0
                l(4) =   1
                l(5) =   1
     Q(r) pseudized with 10 coefficients,  rinner =    1.150   1.150   1.150


     PseudoPot. # 3 for Be read from file:
     /home/pragov/projects/rrg-bengioy-ad/pragov/crystal_structure_design/SSSP/be_pbe_v1.4.uspp.F.UPF
     MD5 check sum: 5ecff1440924c7c98ad504bef30f5264
     Pseudo is Ultrasoft, Zval =  4.0
     Generated by new atomic code, or converted to UPF format
     Using radial grid of  769 points,  6 beta functions with: 
                l(1) =   0
                l(2) =   0
                l(3) =   0
                l(4) =   1
                l(5) =   1
                l(6) =   2
     Q(r) pseudized with 10 coefficients,  rinner =    1.000   1.000   1.000
                                                       1.000   1.000

     PseudoPot. # 4 for F  read from file:
     /home/pragov/projects/rrg-bengioy-ad/pragov/crystal_structure_design/SSSP/f_pbe_v1.4.uspp.F.UPF
     MD5 check sum: 4c38b6a325caf53ec0e86aed9459de46
     Pseudo is Ultrasoft, Zval =  7.0
     Generated by new atomic code, or converted to UPF format
     Using radial grid of  799 points,  4 beta functions with: 
                l(1) =   0
                l(2) =   0
                l(3) =   1
                l(4) =   1
     Q(r) pseudized with  8 coefficients,  rinner =    0.950   0.950   0.950


     atomic species   valence    mass     pseudopotential
        K              9.00    39.09830     K ( 1.00)
        Li             3.00     6.94000     Li( 1.00)
        Be             4.00     9.01218     Be( 1.00)
        F              7.00    18.99840     F ( 1.00)

      6 Sym. Ops. (no inversion) found ( 3 have fractional translation)


                                    s                        frac. trans.

      isym =  1     identity                                     

 cryst.   s( 1) = (     1          0          0      )
                  (     0          1          0      )
                  (     0          0          1      )

 cart.    s( 1) = (  1.0000000  0.0000000  0.0000000 )
                  (  0.0000000  1.0000000  0.0000000 )
                  (  0.0000000  0.0000000  1.0000000 )


      isym =  2     180 deg rotation - cart. axis [0,0,1]        

 cryst.   s( 2) = (    -1          0          0      )    f =(  0.0000000 )
                  (     0         -1          0      )       (  0.0000000 )
                  (     0          0          1      )       ( -0.5000000 )

 cart.    s( 2) = ( -1.0000000 -0.0000000  0.0000000 )    f =(  0.0000000 )
                  (  0.0000000 -1.0000000  0.0000000 )       (  0.0000000 )
                  (  0.0000000  0.0000000  1.0000000 )       ( -0.8509041 )


      isym =  3      60 deg rotation - cryst. axis [0,0,1]       

 cryst.   s( 3) = (     1          1          0      )    f =(  0.0000000 )
                  (    -1          0          0      )       (  0.0000000 )
                  (     0          0          1      )       ( -0.5000000 )

 cart.    s( 3) = (  0.4999999 -0.8660255  0.0000000 )    f =(  0.0000000 )
                  (  0.8660253  0.5000001  0.0000000 )       (  0.0000000 )
                  (  0.0000000  0.0000000  1.0000000 )       ( -0.8509041 )


      isym =  4      60 deg rotation - cryst. axis [0,0,-1]      

 cryst.   s( 4) = (     0         -1          0      )    f =(  0.0000000 )
                  (     1          1          0      )       (  0.0000000 )
                  (     0          0          1      )       ( -0.5000000 )

 cart.    s( 4) = (  0.5000001  0.8660255  0.0000000 )    f =(  0.0000000 )
                  ( -0.8660253  0.4999999  0.0000000 )       (  0.0000000 )
                  (  0.0000000  0.0000000  1.0000000 )       ( -0.8509041 )


      isym =  5     120 deg rotation - cryst. axis [0,0,1]       

 cryst.   s( 5) = (     0          1          0      )
                  (    -1         -1          0      )
                  (     0          0          1      )

 cart.    s( 5) = ( -0.5000001 -0.8660255  0.0000000 )
                  (  0.8660253 -0.4999999  0.0000000 )
                  (  0.0000000  0.0000000  1.0000000 )


      isym =  6     120 deg rotation - cryst. axis [0,0,-1]      

 cryst.   s( 6) = (    -1         -1          0      )
                  (     1          0          0      )
                  (     0          0          1      )

 cart.    s( 6) = ( -0.4999999  0.8660255  0.0000000 )
                  ( -0.8660253 -0.5000001  0.0000000 )
                  (  0.0000000  0.0000000  1.0000000 )


   Cartesian axes

     site n.     atom                  positions (alat units)
         1           K   tau(   1) = (   0.0000000   0.0000000   0.8477676  )
         2           K   tau(   2) = (   0.0000000   0.0000000   1.6986717  )
         3           Li  tau(   3) = (   0.5000005   0.2886748   0.5159916  )
         4           Li  tau(   4) = (  -0.0000006   0.5773505   1.3668957  )
         5           Be  tau(   5) = (  -0.0000006   0.5773505   0.3326933  )
         6           Be  tau(   6) = (   0.5000005   0.2886748   1.1835974  )
         7           F   tau(   7) = (   0.2893574   0.5737981   0.4271317  )
         8           F   tau(   8) = (   0.6416025   0.0363081   1.2780358  )
         9           F   tau(   9) = (  -0.0000006   0.5773505   0.0275472  )
        10           F   tau(  10) = (   0.5000005   0.2886748   0.8784512  )
        11           F   tau(  11) = (  -0.1416026   0.8297172   0.4271317  )
        12           F   tau(  12) = (   0.2106425   0.2922273   1.2780358  )
        13           F   tau(  13) = (   0.6477549   0.5374900   1.2780358  )
        14           F   tau(  14) = (  -0.1477550   0.3285354   0.4271317  )

   Crystallographic axes

     site n.     atom                  positions (cryst. coord.)
         1           K   tau(   1) = (  0.0000000  0.0000000  0.4981570  )
         2           K   tau(   2) = (  0.0000000  0.0000000  0.9981570  )
         3           Li  tau(   3) = (  0.6666670  0.3333330  0.3032020  )
         4           Li  tau(   4) = (  0.3333330  0.6666670  0.8032020  )
         5           Be  tau(   5) = (  0.3333330  0.6666670  0.1954940  )
         6           Be  tau(   6) = (  0.6666670  0.3333330  0.6954940  )
         7           F   tau(   7) = (  0.6206400  0.6625650  0.2509870  )
         8           F   tau(   8) = (  0.6625650  0.0419250  0.7509870  )
         9           F   tau(   9) = (  0.3333330  0.6666670  0.0161870  )
        10           F   tau(  10) = (  0.6666670  0.3333330  0.5161870  )
        11           F   tau(  11) = (  0.3374350  0.9580750  0.2509870  )
        12           F   tau(  12) = (  0.3793600  0.3374350  0.7509870  )
        13           F   tau(  13) = (  0.9580750  0.6206400  0.7509870  )
        14           F   tau(  14) = (  0.0419250  0.3793600  0.2509870  )

     number of k points=     1  Methfessel-Paxton smearing, width (Ry)=  0.0010
                       cart. coord. in units 2pi/alat
        k(    1) = (   0.0000000   0.0000000   0.0000000), wk =   2.0000000

                       cryst. coord.
        k(    1) = (   0.0000000   0.0000000   0.0000000), wk =   2.0000000

     Dense  grid:    42368 G-vectors     FFT dimensions: (  48,  48,  90)

     Smooth grid:    14981 G-vectors     FFT dimensions: (  36,  36,  60)

     Dynamical RAM for                 wfc:       0.05 MB

     Dynamical RAM for     wfc (w. buffer):       0.05 MB

     Dynamical RAM for           str. fact:       0.08 MB

     Dynamical RAM for           local pot:       0.00 MB

     Dynamical RAM for          nlocal pot:       0.13 MB

     Dynamical RAM for                qrad:       4.98 MB

     Dynamical RAM for          rho,v,vnew:       0.22 MB

     Dynamical RAM for               rhoin:       0.07 MB

     Dynamical RAM for            rho*nmix:       0.32 MB

     Dynamical RAM for           G-vectors:       0.08 MB

     Dynamical RAM for          h,s,v(r/c):       0.01 MB

     Dynamical RAM for          <psi|beta>:       0.06 MB

     Dynamical RAM for                 psi:       0.09 MB

     Dynamical RAM for                hpsi:       0.09 MB

     Dynamical RAM for                spsi:       0.09 MB

     Dynamical RAM for      wfcinit/wfcrot:       0.23 MB

     Dynamical RAM for           addusdens:       3.92 MB

     Dynamical RAM for          addusforce:       4.24 MB

     Dynamical RAM for         addusstress:       4.06 MB

     Estimated static dynamical RAM per process >       5.97 MB

     Estimated max dynamical RAM per process >      10.54 MB

     Estimated total dynamical RAM >     337.15 MB

     Check: negative core charge=   -0.000003

     Initial potential from superposition of free atoms

     starting charge      87.0605, renormalised to      88.0000
     Starting wfcs are   68 randomized atomic wfcs
     Checking if some PAW data can be deallocated... 
       PAW data deallocated on   26 nodes for type:  1

     total cpu time spent up to now is        1.3 secs

     Self-consistent Calculation

     iteration #  1     ecut=    30.00 Ry     beta= 0.70
     Davidson diagonalization with overlap

---- Real-time Memory Report at c_bands before calling an iterative solver
           147 MiB given to the printing process from OS
             0 MiB allocation reported by mallinfo(arena+hblkhd)
        173246 MiB available memory on the node where the printing process lives
------------------
     ethr =  1.00E-02,  avg # of iterations =  5.0

     Threshold (ethr) on eigenvalues was too large:
     Diagonalizing with lowered threshold

     Davidson diagonalization with overlap

---- Real-time Memory Report at c_bands before calling an iterative solver
           154 MiB given to the printing process from OS
             0 MiB allocation reported by mallinfo(arena+hblkhd)
        173151 MiB available memory on the node where the printing process lives
------------------
     ethr =  9.79E-04,  avg # of iterations =  2.0

     total cpu time spent up to now is        1.4 secs

     total energy              =    -701.85231977 Ry
     estimated scf accuracy    <       0.84118174 Ry

     iteration #  2     ecut=    30.00 Ry     beta= 0.70
     Davidson diagonalization with overlap

---- Real-time Memory Report at c_bands before calling an iterative solver
           160 MiB given to the printing process from OS
             0 MiB allocation reported by mallinfo(arena+hblkhd)
        173113 MiB available memory on the node where the printing process lives
------------------
     ethr =  9.56E-04,  avg # of iterations =  8.0

     total cpu time spent up to now is        1.6 secs

     total energy              =    -702.05346048 Ry
     estimated scf accuracy    <       0.56660597 Ry

     iteration #  3     ecut=    30.00 Ry     beta= 0.70
     Davidson diagonalization with overlap

---- Real-time Memory Report at c_bands before calling an iterative solver
           161 MiB given to the printing process from OS
             0 MiB allocation reported by mallinfo(arena+hblkhd)
        173109 MiB available memory on the node where the printing process lives
------------------
     ethr =  6.44E-04,  avg # of iterations =  2.0

     total cpu time spent up to now is        1.7 secs

     total energy              =    -702.16940677 Ry
     estimated scf accuracy    <       0.00682890 Ry

     iteration #  4     ecut=    30.00 Ry     beta= 0.70
     Davidson diagonalization with overlap

---- Real-time Memory Report at c_bands before calling an iterative solver
           161 MiB given to the printing process from OS
             0 MiB allocation reported by mallinfo(arena+hblkhd)
        173109 MiB available memory on the node where the printing process lives
------------------
     ethr =  7.76E-06,  avg # of iterations = 16.0

     total cpu time spent up to now is        1.9 secs

     total energy              =    -702.17058424 Ry
     estimated scf accuracy    <       0.00099521 Ry

     iteration #  5     ecut=    30.00 Ry     beta= 0.70
     Davidson diagonalization with overlap

---- Real-time Memory Report at c_bands before calling an iterative solver
           162 MiB given to the printing process from OS
             0 MiB allocation reported by mallinfo(arena+hblkhd)
        173109 MiB available memory on the node where the printing process lives
------------------
     ethr =  1.13E-06,  avg # of iterations =  2.0

     total cpu time spent up to now is        2.0 secs

     total energy              =    -702.17068811 Ry
     estimated scf accuracy    <       0.00010555 Ry

     iteration #  6     ecut=    30.00 Ry     beta= 0.70
     Davidson diagonalization with overlap

---- Real-time Memory Report at c_bands before calling an iterative solver
           162 MiB given to the printing process from OS
             0 MiB allocation reported by mallinfo(arena+hblkhd)
        173109 MiB available memory on the node where the printing process lives
------------------
     ethr =  1.20E-07,  avg # of iterations =  2.0

     total cpu time spent up to now is        2.2 secs

     total energy              =    -702.17071135 Ry
     estimated scf accuracy    <       0.00001492 Ry

     iteration #  7     ecut=    30.00 Ry     beta= 0.70
     Davidson diagonalization with overlap

---- Real-time Memory Report at c_bands before calling an iterative solver
           162 MiB given to the printing process from OS
             0 MiB allocation reported by mallinfo(arena+hblkhd)
        173100 MiB available memory on the node where the printing process lives
------------------
     ethr =  1.70E-08,  avg # of iterations =  2.0

     total cpu time spent up to now is        2.3 secs

     total energy              =    -702.17071466 Ry
     estimated scf accuracy    <       0.00000157 Ry

     iteration #  8     ecut=    30.00 Ry     beta= 0.70
     Davidson diagonalization with overlap

---- Real-time Memory Report at c_bands before calling an iterative solver
           163 MiB given to the printing process from OS
             0 MiB allocation reported by mallinfo(arena+hblkhd)
        173100 MiB available memory on the node where the printing process lives
------------------
     ethr =  1.78E-09,  avg # of iterations =  2.0

     total cpu time spent up to now is        2.4 secs

     End of self-consistent calculation

          k = 0.0000 0.0000 0.0000 (  1896 PWs)   bands (ev):

   -95.8859 -95.8827 -41.3130 -41.3126 -26.4756 -26.4681 -20.7919 -20.7421
   -20.3196 -20.2459 -20.2419 -20.2418 -20.2413 -20.2410  -9.9922  -9.9922
    -9.9836  -9.9836  -9.9369  -9.9104  -3.8301  -3.4945  -3.1794  -3.1794
    -3.1713  -3.1713  -3.0236  -2.9327  -1.9177  -1.9177  -1.8556  -1.6101
    -1.6101  -1.2868  -1.2867  -1.2473  -1.1353  -1.0769  -1.0769  -1.0659
    -0.8041  -0.8041  -0.7050  -0.7049   6.1989   7.9506   9.2893  10.2131
    10.4608  10.4615  10.6606  10.6606  11.4210

     occupation numbers 
     1.0000   1.0000   1.0000   1.0000   1.0000   1.0000   1.0000   1.0000
     1.0000   1.0000   1.0000   1.0000   1.0000   1.0000   1.0000   1.0000
     1.0000   1.0000   1.0000   1.0000   1.0000   1.0000   1.0000   1.0000
     1.0000   1.0000   1.0000   1.0000   1.0000   1.0000   1.0000   1.0000
     1.0000   1.0000   1.0000   1.0000   1.0000   1.0000   1.0000   1.0000
     1.0000   1.0000   1.0000   1.0000  -0.0000  -0.0000  -0.0000  -0.0000
    -0.0000  -0.0000  -0.0000  -0.0000  -0.0000

     the Fermi energy is     4.8334 ev

!    total energy              =    -702.17071499 Ry
     estimated scf accuracy    <       0.00000005 Ry
     smearing contrib. (-TS)   =       0.00000000 Ry
     internal energy E=F+TS    =    -702.17071499 Ry

     The total energy is F=E-TS. E is the sum of the following terms:
     one-electron contribution =    -365.55379553 Ry
     hartree contribution      =     211.90289250 Ry
     xc contribution           =    -115.21081813 Ry
     ewald contribution        =    -322.47521459 Ry
     one-center paw contrib.   =    -110.83377924 Ry
      -> PAW hartree energy AE =      37.68553224 Ry
      -> PAW hartree energy PS =     -37.47539209 Ry
      -> PAW xc energy AE      =     -66.21668762 Ry
      -> PAW xc energy PS      =      10.58965785 Ry
      -> total E_H with PAW    =     212.11303265 Ry
      -> total E_XC with PAW   =    -170.83784789 Ry

     convergence has been achieved in   8 iterations

     Forces acting on atoms (cartesian axes, Ry/au):

     atom    1 type  1   force =     0.00000000    0.00000000   -0.00015830
     atom    2 type  1   force =    -0.00000000   -0.00000000   -0.00015830
     atom    3 type  2   force =     0.00000000    0.00000000    0.00085686
     atom    4 type  2   force =     0.00000000    0.00000000    0.00085686
     atom    5 type  3   force =     0.00000000    0.00000000   -0.00345553
     atom    6 type  3   force =     0.00000000    0.00000000   -0.00345553
     atom    7 type  4   force =     0.00737950    0.00055381    0.00185783
     atom    8 type  4   force =     0.00416936   -0.00611393    0.00185783
     atom    9 type  4   force =     0.00000000    0.00000000   -0.00281652
     atom   10 type  4   force =     0.00000000   -0.00000000   -0.00281652
     atom   11 type  4   force =    -0.00416936    0.00611393    0.00185783
     atom   12 type  4   force =    -0.00737950   -0.00055381    0.00185783
     atom   13 type  4   force =     0.00321014    0.00666774    0.00185783
     atom   14 type  4   force =    -0.00321014   -0.00666774    0.00185783
     The non-local contrib.  to forces
     atom    1 type  1   force =     0.00000000   -0.00000000    0.00773628
     atom    2 type  1   force =     0.00000000    0.00000000    0.00773628
     atom    3 type  2   force =     0.00000000    0.00000000   -0.02221909
     atom    4 type  2   force =     0.00000000    0.00000000   -0.02221909
     atom    5 type  3   force =    -0.00000000   -0.00000000   -0.00093320
     atom    6 type  3   force =     0.00000000    0.00000000   -0.00093320
     atom    7 type  4   force =    -0.73903691   -0.18538624   -0.24008182
     atom    8 type  4   force =    -0.53006755    0.54733164   -0.24008182
     atom    9 type  4   force =     0.00000000    0.00000000    0.65618293
     atom   10 type  4   force =     0.00000000    0.00000000    0.65618293
     atom   11 type  4   force =     0.53006755   -0.54733164   -0.24008182
     atom   12 type  4   force =     0.73903691    0.18538624   -0.24008182
     atom   13 type  4   force =    -0.20896936   -0.73271788   -0.24008182
     atom   14 type  4   force =     0.20896936    0.73271788   -0.24008182
     The ionic contribution  to forces
     atom    1 type  1   force =     0.00000817   -0.00000470   -0.11968644
     atom    2 type  1   force =    -0.00000817    0.00000470   -0.11968644
     atom    3 type  2   force =    -0.00001458    0.00000932   -0.73497723
     atom    4 type  2   force =     0.00001458   -0.00000932   -0.73497723
     atom    5 type  3   force =     0.00002282   -0.00001117    0.45933782
     atom    6 type  3   force =    -0.00002282    0.00001117    0.45933782
     atom    7 type  4   force =     5.44759988    0.68922083    1.90067553
     atom    8 type  4   force =     3.32071837   -4.37317764    1.90069632
     atom    9 type  4   force =     0.00000971   -0.00000550   -5.30672582
     atom   10 type  4   force =    -0.00000971    0.00000550   -5.30672582
     atom   11 type  4   force =    -3.32071837    4.37317764    1.90069632
     atom   12 type  4   force =    -5.44759988   -0.68922083    1.90067553
     atom   13 type  4   force =     2.12688755    5.06239856    1.90067983
     atom   14 type  4   force =    -2.12688755   -5.06239856    1.90067983
     The local contribution  to forces
     atom    1 type  1   force =    -0.00000466   -0.00001031    0.11214560
     atom    2 type  1   force =     0.00001476    0.00000488    0.11213413
     atom    3 type  2   force =     0.00001390   -0.00000726    0.75800512
     atom    4 type  2   force =    -0.00000724    0.00000863    0.75800891
     atom    5 type  3   force =    -0.00002002    0.00001273   -0.46191766
     atom    6 type  3   force =     0.00001631   -0.00002509   -0.46192782
     atom    7 type  4   force =    -4.70115281   -0.50330476   -1.65879179
     atom    8 type  4   force =    -2.78649384    3.81969373   -1.65881268
     atom    9 type  4   force =    -0.00000773    0.00000926    4.64756925
     atom   10 type  4   force =     0.00001303    0.00000194    4.64755968
     atom   11 type  4   force =     2.78647819   -3.81969291   -1.65882258
     atom   12 type  4   force =     4.70115613    0.50329077   -1.65879554
     atom   13 type  4   force =    -1.91469744   -4.32302492   -1.65881635
     atom   14 type  4   force =     1.91467804    4.32299284   -1.65880468
     The core correction contribution to forces
     atom    1 type  1   force =     0.00000011   -0.00000022   -0.00030885
     atom    2 type  1   force =     0.00000022    0.00000019   -0.00030976
     atom    3 type  2   force =     0.00000000    0.00000000    0.00000000
     atom    4 type  2   force =     0.00000000    0.00000000    0.00000000
     atom    5 type  3   force =     0.00000000    0.00000000    0.00000000
     atom    6 type  3   force =     0.00000000    0.00000000    0.00000000
     atom    7 type  4   force =     0.00000000    0.00000000    0.00000000
     atom    8 type  4   force =     0.00000000    0.00000000    0.00000000
     atom    9 type  4   force =     0.00000000    0.00000000    0.00000000
     atom   10 type  4   force =     0.00000000    0.00000000    0.00000000
     atom   11 type  4   force =     0.00000000    0.00000000    0.00000000
     atom   12 type  4   force =     0.00000000    0.00000000    0.00000000
     atom   13 type  4   force =     0.00000000    0.00000000    0.00000000
     atom   14 type  4   force =     0.00000000    0.00000000    0.00000000
     The Hubbard contrib.    to forces
     atom    1 type  1   force =     0.00000000    0.00000000    0.00000000
     atom    2 type  1   force =     0.00000000    0.00000000    0.00000000
     atom    3 type  2   force =     0.00000000    0.00000000    0.00000000
     atom    4 type  2   force =     0.00000000    0.00000000    0.00000000
     atom    5 type  3   force =     0.00000000    0.00000000    0.00000000
     atom    6 type  3   force =     0.00000000    0.00000000    0.00000000
     atom    7 type  4   force =     0.00000000    0.00000000    0.00000000
     atom    8 type  4   force =     0.00000000    0.00000000    0.00000000
     atom    9 type  4   force =     0.00000000    0.00000000    0.00000000
     atom   10 type  4   force =     0.00000000    0.00000000    0.00000000
     atom   11 type  4   force =     0.00000000    0.00000000    0.00000000
     atom   12 type  4   force =     0.00000000    0.00000000    0.00000000
     atom   13 type  4   force =     0.00000000    0.00000000    0.00000000
     atom   14 type  4   force =     0.00000000    0.00000000    0.00000000
     The SCF correction term to forces
     atom    1 type  1   force =    -0.00000237    0.00001283   -0.00009099
     atom    2 type  1   force =    -0.00000864   -0.00000991   -0.00010605
     atom    3 type  2   force =     0.00000110   -0.00000514   -0.00000795
     atom    4 type  2   force =    -0.00000685   -0.00000128   -0.00001937
     atom    5 type  3   force =    -0.00000445    0.00000174   -0.00001475
     atom    6 type  3   force =     0.00001261    0.00002547    0.00002030
     atom    7 type  4   force =    -0.00000733    0.00001099    0.00001034
     atom    8 type  4   force =     0.00001023    0.00006582   -0.00001385
     atom    9 type  4   force =     0.00000105   -0.00000433    0.00008390
     atom   10 type  4   force =    -0.00000114   -0.00000343    0.00012029
     atom   11 type  4   force =    -0.00002620   -0.00000195    0.00002244
     atom   12 type  4   force =     0.00005862    0.00000315   -0.00001742
     atom   13 type  4   force =    -0.00003725   -0.00001787    0.00000583
     atom   14 type  4   force =     0.00001683   -0.00000116    0.00001197

     Total force =     0.019763     Total SCF correction =     0.000235


     Computing stress (Cartesian axis) and pressure

          total   stress  (Ry/bohr**3)                   (kbar)     P=     -105.65
  -0.00068005  -0.00000000   0.00000000         -100.04       -0.00        0.00
  -0.00000000  -0.00068005   0.00000000           -0.00     -100.04        0.00
   0.00000000  -0.00000000  -0.00079443            0.00       -0.00     -116.86

     kinetic stress (kbar)  14768.48      0.00      0.00
                                0.00  14768.49      0.00
                                0.00      0.00  14786.79

     local   stress (kbar)  -9073.35      0.02      0.00
                                0.02  -9073.36      0.01
                                0.00      0.01  -6976.34

     nonloc. stress (kbar)   1435.80      0.00     -0.00
                                0.00   1435.80     -0.00
                               -0.00     -0.00   1429.21

     hartree stress (kbar)   8050.80     -0.01     -0.00
                               -0.01   8050.80     -0.00
                               -0.00     -0.00   6991.22

     exc-cor stress (kbar)  -3334.96     -0.00      0.00
                               -0.00  -3334.96      0.00
                                0.00      0.00  -3334.76

     corecor stress (kbar)   -587.91     -0.00     -0.00
                               -0.00   -587.91      0.00
                               -0.00      0.00   -587.98

     ewald   stress (kbar) -11358.91     -0.01     -0.00
                               -0.01 -11358.90     -0.00
                               -0.00     -0.00 -12425.01

     hubbard stress (kbar)      0.00      0.00      0.00
                                0.00      0.00      0.00
                                0.00      0.00      0.00

     DFT-D   stress (kbar)      0.00      0.00      0.00
                                0.00      0.00      0.00
                                0.00      0.00      0.00

     XDM     stress (kbar)      0.00      0.00      0.00
                                0.00      0.00      0.00
                                0.00      0.00      0.00

     dft-nl  stress (kbar)      0.00      0.00      0.00
                                0.00      0.00      0.00
                                0.00      0.00      0.00

     TS-vdW  stress (kbar)      0.00      0.00      0.00
                                0.00      0.00      0.00
                                0.00      0.00      0.00


                                0.00      0.00      0.00
                                0.00      0.00      0.00


                                0.00      0.00      0.00


     Writing all to output data dir calculations/myprefix.save/
 
     init_run     :      0.87s CPU      0.91s WALL (       1 calls)
     electrons    :      1.15s CPU      1.27s WALL (       1 calls)
     forces       :      0.06s CPU      0.06s WALL (       1 calls)
     stress       :      0.13s CPU      0.13s WALL (       1 calls)

     Called by init_run:
     wfcinit      :      0.02s CPU      0.03s WALL (       1 calls)
     wfcinit:atom :      0.00s CPU      0.00s WALL (       1 calls)
     wfcinit:wfcr :      0.02s CPU      0.03s WALL (       1 calls)
     potinit      :      0.39s CPU      0.40s WALL (       1 calls)
     hinit0       :      0.44s CPU      0.44s WALL (       1 calls)

     Called by electrons:
     c_bands      :      0.36s CPU      0.37s WALL (       9 calls)
     sum_band     :      0.12s CPU      0.13s WALL (       9 calls)
     v_of_rho     :      0.03s CPU      0.04s WALL (       9 calls)
     v_h          :      0.00s CPU      0.00s WALL (       9 calls)
     v_xc         :      0.03s CPU      0.04s WALL (      11 calls)
     newd         :      0.08s CPU      0.09s WALL (       9 calls)
     PAW_pot      :      0.62s CPU      0.64s WALL (       9 calls)
     mix_rho      :      0.01s CPU      0.01s WALL (       9 calls)

     Called by c_bands:
     init_us_2    :      0.00s CPU      0.00s WALL (      19 calls)
     init_us_2:cp :      0.00s CPU      0.00s WALL (      19 calls)
     regterg      :      0.35s CPU      0.37s WALL (       9 calls)

     Called by sum_band:
     sum_band:wei :      0.00s CPU      0.00s WALL (       9 calls)
     sum_band:loo :      0.02s CPU      0.02s WALL (       9 calls)
     sum_band:buf :      0.00s CPU      0.00s WALL (       9 calls)
     sum_band:ini :      0.00s CPU      0.00s WALL (       9 calls)
     sum_band:cal :      0.00s CPU      0.00s WALL (       9 calls)
     sum_band:bec :      0.00s CPU      0.00s WALL (       9 calls)
     addusdens    :      0.08s CPU      0.08s WALL (       9 calls)
     addusd:skk   :      0.00s CPU      0.00s WALL (      36 calls)
     addusd:dgemm :      0.02s CPU      0.02s WALL (      36 calls)
     addusd:qvan2 :      0.05s CPU      0.05s WALL (      36 calls)

     Called by *egterg:
     rdiaghg      :      0.21s CPU      0.22s WALL (      49 calls)
     regterg:over :      0.02s CPU      0.02s WALL (      41 calls)
     regterg:upda :      0.01s CPU      0.01s WALL (      41 calls)
     regterg:last :      0.01s CPU      0.01s WALL (      20 calls)
     rdiaghg:chol :      0.01s CPU      0.01s WALL (      49 calls)
     rdiaghg:inve :      0.00s CPU      0.00s WALL (      49 calls)
     rdiaghg:para :      0.02s CPU      0.02s WALL (      98 calls)
     h_psi        :      0.11s CPU      0.12s WALL (      51 calls)
     s_psi        :      0.00s CPU      0.00s WALL (      51 calls)
     g_psi        :      0.00s CPU      0.00s WALL (      41 calls)

     Called by h_psi:
     h_psi:calbec :      0.01s CPU      0.01s WALL (      51 calls)
     vloc_psi     :      0.10s CPU      0.10s WALL (      51 calls)
     add_vuspsi   :      0.00s CPU      0.00s WALL (      51 calls)

     General routines
     calbec       :      0.02s CPU      0.02s WALL (      65 calls)
     fft          :      0.39s CPU      0.40s WALL (     118 calls)
     ffts         :      0.29s CPU      0.29s WALL (      18 calls)
     fftw         :      0.10s CPU      0.11s WALL (    1617 calls)
     interpolate  :      0.29s CPU      0.29s WALL (       9 calls)
 
     Parallel routines

     PAW routines
     PAW_pot      :      0.62s CPU      0.64s WALL (       9 calls)
     PAW_symme    :      0.00s CPU      0.00s WALL (      18 calls)
 
     PWSCF        :      2.65s CPU      3.27s WALL

 
   This run was terminated on:  14:24:46   3Mar2023            

=------------------------------------------------------------------------------=
   JOB DONE.
=------------------------------------------------------------------------------=
