
     Program PWSCF v.7.0 starts on  4Mar2023 at 21:16:27 

     This program is part of the open-source Quantum ESPRESSO suite
     for quantum simulation of materials; please cite
         "P. Giannozzi et al., J. Phys.:Condens. Matter 21 395502 (2009);
         "P. Giannozzi et al., J. Phys.:Condens. Matter 29 465901 (2017);
         "P. Giannozzi et al., J. Chem. Phys. 152 154105 (2020);
          URL http://www.quantum-espresso.org", 
     in publications or presentations arising from this work. More details at
     http://www.quantum-espresso.org/quote

     Parallel version (MPI & OpenMP), running on      32 processor cores
     Number of MPI processes:                32
     Threads/MPI process:                     1

     MPI processes distributed on     1 nodes
     R & G space division:  proc/nbgrp/npool/nimage =      32
     167197 MiB available memory on the printing compute node when the environment starts
 
     Reading input from espresso_7706.pwi
Warning: card &CELL ignored
Warning: card / ignored

     Current dimensions of program PWSCF are:
     Max number of different atomic species (ntypx) = 10
     Max number of k-points (npk) =  40000
     Max angular momentum in pseudopotentials (lmaxx) =  4
     file Mg.pbe-n-kjpaw_psl.0.3.0.UPF: wavefunction(s)  3S renormalized

     gamma-point specific algorithms are used
     Message from routine setup:
     using ibrav=0 with symmetry is DISCOURAGED, use correct ibrav instead

     Subspace diagonalization in iterative solution of the eigenvalue problem:
     one sub-group per band group will be used
     scalapack distributed-memory algorithm (size of sub-group:  5*  5 procs)

 
     Parallelization info
     --------------------
     sticks:   dense  smooth     PW     G-vecs:    dense   smooth      PW
     Min          56      28      6                 2730      960     116
     Max          58      30      8                 2738      972     128
     Sum        1821     909    229                87443    30911    3883
 
     Using Slab Decomposition
 


     bravais-lattice index     =            0
     lattice parameter (alat)  =      13.4257  a.u.
     unit-cell volume          =    1393.1737 (a.u.)^3
     number of atoms/cell      =            6
     number of atomic types    =            2
     number of electrons       =       100.00
     number of Kohn-Sham states=           60
     kinetic-energy cutoff     =      30.0000  Ry
     charge density cutoff     =     240.0000  Ry
     scf convergence threshold =      1.0E-06
     mixing beta               =       0.7000
     number of iterations used =            8  plain     mixing
     Exchange-correlation= SLA  PW   PBX  PBC
                           (   1   4   3   4   0   0   0)

     celldm(1)=  13.425744  celldm(2)=   0.000000  celldm(3)=   0.000000
     celldm(4)=   0.000000  celldm(5)=   0.000000  celldm(6)=   0.000000

     crystal axes: (cart. coord. in units of alat)
               a(1) = (   1.000000   0.000000   0.000000 )  
               a(2) = (   0.849455   0.527662   0.000000 )  
               a(3) = (   0.312485   0.089154   1.091025 )  

     reciprocal axes: (cart. coord. in units 2 pi/alat)
               b(1) = (  1.000000 -1.609847 -0.154864 )  
               b(2) = (  0.000000  1.895154 -0.154864 )  
               b(3) = (  0.000000  0.000000  0.916569 )  


     PseudoPot. # 1 for Yb read from file:
     /home/pragov/projects/rrg-bengioy-ad/pragov/crystal_structure_design/SSSP/Yb.GGA-PBE-paw-v1.0.UPF
     MD5 check sum: 43b6465ad8021f06e3edb42ae292e187
     Pseudo is Projector augmented-wave + core cor, Zval = 24.0
     Generated using ATOMPAW code
     Shape of augmentation charge: BESSEL
     Using radial grid of 1117 points,  8 beta functions with: 
                l(1) =   0
                l(2) =   0
                l(3) =   1
                l(4) =   1
                l(5) =   2
                l(6) =   2
                l(7) =   3
                l(8) =   3
     Q(r) pseudized with 0 coefficients 


     PseudoPot. # 2 for Mg read from file:
     /home/pragov/projects/rrg-bengioy-ad/pragov/crystal_structure_design/SSSP/Mg.pbe-n-kjpaw_psl.0.3.0.UPF
     MD5 check sum: 24ecedc7f3e3cbe212e682f4413594e4
     Pseudo is Projector augmented-wave + core cor, Zval =  2.0
     Generated using "atomic" code by A. Dal Corso  v.5.0.99 svn rev. 10869
     Shape of augmentation charge: PSQ
     Using radial grid of 1129 points,  4 beta functions with: 
                l(1) =   0
                l(2) =   0
                l(3) =   1
                l(4) =   1
     Q(r) pseudized with 0 coefficients 


     atomic species   valence    mass     pseudopotential
        Yb            24.00   173.05400     Yb( 1.00)
        Mg             2.00    24.30500     Mg( 1.00)

      2 Sym. Ops., with inversion, found


                                    s                        frac. trans.

      isym =  1     identity                                     

 cryst.   s( 1) = (     1          0          0      )
                  (     0          1          0      )
                  (     0          0          1      )

 cart.    s( 1) = (  1.0000000 -0.0000000 -0.0000000 )
                  (  0.0000000  1.0000000 -0.0000000 )
                  (  0.0000000  0.0000000  1.0000000 )


      isym =  2     inversion                                    

 cryst.   s( 2) = (    -1          0          0      )
                  (     0         -1          0      )
                  (     0          0         -1      )

 cart.    s( 2) = ( -1.0000000  0.0000000  0.0000000 )
                  (  0.0000000 -1.0000000  0.0000000 )
                  (  0.0000000  0.0000000 -1.0000000 )


   Cartesian axes

     site n.     atom                  positions (alat units)
         1           Yb  tau(   1) = (   0.2803207   0.0799773   0.8298968  )
         2           Yb  tau(   2) = (   0.7877747   0.2247573   0.6891306  )
         3           Yb  tau(   3) = (   1.3741653   0.3920585   0.4018943  )
         4           Yb  tau(   4) = (   1.8816193   0.5368384   0.2611281  )
         5           Mg  tau(   5) = (   0.6295210   0.1796065   0.0474738  )
         6           Mg  tau(   6) = (   1.5324189   0.4372093   1.0435511  )

   Crystallographic axes

     site n.     atom                  positions (cryst. coord.)
         1           Yb  tau(   1) = (  0.0230480  0.0230480  0.7606580  )
         2           Yb  tau(   2) = (  0.3192280  0.3192280  0.6316360  )
         3           Yb  tau(   3) = (  0.6807720  0.6807720  0.3683640  )
         4           Yb  tau(   4) = (  0.9769520  0.9769520  0.2393420  )
         5           Mg  tau(   5) = (  0.3330300  0.3330300  0.0435130  )
         6           Mg  tau(   6) = (  0.6669700  0.6669700  0.9564870  )

     number of k points=     1  Methfessel-Paxton smearing, width (Ry)=  0.0010
                       cart. coord. in units 2pi/alat
        k(    1) = (   0.0000000   0.0000000   0.0000000), wk =   2.0000000

                       cryst. coord.
        k(    1) = (   0.0000000   0.0000000   0.0000000), wk =   2.0000000

     Dense  grid:    43722 G-vectors     FFT dimensions: (  72,  72,  75)

     Smooth grid:    15456 G-vectors     FFT dimensions: (  48,  48,  54)

     Dynamical RAM for                 wfc:       0.05 MB

     Dynamical RAM for     wfc (w. buffer):       0.05 MB

     Dynamical RAM for           str. fact:       0.04 MB

     Dynamical RAM for           local pot:       0.00 MB

     Dynamical RAM for          nlocal pot:       0.13 MB

     Dynamical RAM for                qrad:       5.97 MB

     Dynamical RAM for          rho,v,vnew:       0.42 MB

     Dynamical RAM for               rhoin:       0.14 MB

     Dynamical RAM for            rho*nmix:       0.33 MB

     Dynamical RAM for           G-vectors:       0.08 MB

     Dynamical RAM for          h,s,v(r/c):       0.01 MB

     Dynamical RAM for          <psi|beta>:       0.07 MB

     Dynamical RAM for                 psi:       0.11 MB

     Dynamical RAM for                hpsi:       0.11 MB

     Dynamical RAM for                spsi:       0.11 MB

     Dynamical RAM for      wfcinit/wfcrot:       0.67 MB

     Dynamical RAM for           addusdens:      11.67 MB

     Dynamical RAM for          addusforce:      11.85 MB

     Dynamical RAM for         addusstress:      12.15 MB

     Estimated static dynamical RAM per process >       7.50 MB

     Estimated max dynamical RAM per process >      19.98 MB

     Estimated total dynamical RAM >     639.32 MB

     Initial potential from superposition of free atoms

     starting charge      99.9821, renormalised to     100.0000
     Starting wfcs are  136 randomized atomic wfcs
     Checking if some PAW data can be deallocated... 
       PAW data deallocated on   10 nodes for type:  1
       PAW data deallocated on   22 nodes for type:  2

     total cpu time spent up to now is        1.6 secs

     Self-consistent Calculation

     iteration #  1     ecut=    30.00 Ry     beta= 0.70
     Davidson diagonalization with overlap

---- Real-time Memory Report at c_bands before calling an iterative solver
           166 MiB given to the printing process from OS
             0 MiB allocation reported by mallinfo(arena+hblkhd)
        165905 MiB available memory on the node where the printing process lives
------------------
     ethr =  1.00E-02,  avg # of iterations =  2.0

     total cpu time spent up to now is        2.0 secs

     total energy              =   -4110.45969622 Ry
     estimated scf accuracy    <       1.39941604 Ry

     iteration #  2     ecut=    30.00 Ry     beta= 0.70
     Davidson diagonalization with overlap

---- Real-time Memory Report at c_bands before calling an iterative solver
           186 MiB given to the printing process from OS
             0 MiB allocation reported by mallinfo(arena+hblkhd)
        165527 MiB available memory on the node where the printing process lives
------------------
     ethr =  1.40E-03,  avg # of iterations = 19.0

     total cpu time spent up to now is        2.5 secs

     total energy              =   -4086.43382898 Ry
     estimated scf accuracy    <     322.76235860 Ry

     iteration #  3     ecut=    30.00 Ry     beta= 0.70
     Davidson diagonalization with overlap

---- Real-time Memory Report at c_bands before calling an iterative solver
           188 MiB given to the printing process from OS
             0 MiB allocation reported by mallinfo(arena+hblkhd)
        165525 MiB available memory on the node where the printing process lives
------------------
     ethr =  1.40E-03,  avg # of iterations =  6.0

     total cpu time spent up to now is        2.8 secs

     total energy              =   -4112.29101061 Ry
     estimated scf accuracy    <       0.97313608 Ry

     iteration #  4     ecut=    30.00 Ry     beta= 0.70
     Davidson diagonalization with overlap

---- Real-time Memory Report at c_bands before calling an iterative solver
           188 MiB given to the printing process from OS
             0 MiB allocation reported by mallinfo(arena+hblkhd)
        165526 MiB available memory on the node where the printing process lives
------------------
     ethr =  9.73E-04,  avg # of iterations =  1.0

     total cpu time spent up to now is        3.1 secs

     total energy              =   -4112.26170082 Ry
     estimated scf accuracy    <       0.79579187 Ry

     iteration #  5     ecut=    30.00 Ry     beta= 0.70
     Davidson diagonalization with overlap

---- Real-time Memory Report at c_bands before calling an iterative solver
           189 MiB given to the printing process from OS
             0 MiB allocation reported by mallinfo(arena+hblkhd)
        165526 MiB available memory on the node where the printing process lives
------------------
     ethr =  7.96E-04,  avg # of iterations =  1.0

     total cpu time spent up to now is        3.5 secs

     total energy              =   -4112.26266693 Ry
     estimated scf accuracy    <       0.61308127 Ry

     iteration #  6     ecut=    30.00 Ry     beta= 0.70
     Davidson diagonalization with overlap

---- Real-time Memory Report at c_bands before calling an iterative solver
           189 MiB given to the printing process from OS
             0 MiB allocation reported by mallinfo(arena+hblkhd)
        165525 MiB available memory on the node where the printing process lives
------------------
     ethr =  6.13E-04,  avg # of iterations =  1.0

     total cpu time spent up to now is        3.8 secs

     total energy              =   -4112.23314626 Ry
     estimated scf accuracy    <       0.58690285 Ry

     iteration #  7     ecut=    30.00 Ry     beta= 0.70
     Davidson diagonalization with overlap

---- Real-time Memory Report at c_bands before calling an iterative solver
           190 MiB given to the printing process from OS
             0 MiB allocation reported by mallinfo(arena+hblkhd)
        165526 MiB available memory on the node where the printing process lives
------------------
     ethr =  5.87E-04,  avg # of iterations =  1.0

     total cpu time spent up to now is        4.1 secs

     total energy              =   -4112.21408712 Ry
     estimated scf accuracy    <       0.49849424 Ry

     iteration #  8     ecut=    30.00 Ry     beta= 0.70
     Davidson diagonalization with overlap

---- Real-time Memory Report at c_bands before calling an iterative solver
           190 MiB given to the printing process from OS
             0 MiB allocation reported by mallinfo(arena+hblkhd)
        165523 MiB available memory on the node where the printing process lives
------------------
     ethr =  4.98E-04,  avg # of iterations =  1.0

     total cpu time spent up to now is        4.4 secs

     total energy              =   -4112.16462587 Ry
     estimated scf accuracy    <       0.44366121 Ry

     iteration #  9     ecut=    30.00 Ry     beta= 0.70
     Davidson diagonalization with overlap

---- Real-time Memory Report at c_bands before calling an iterative solver
           190 MiB given to the printing process from OS
             0 MiB allocation reported by mallinfo(arena+hblkhd)
        165521 MiB available memory on the node where the printing process lives
------------------
     ethr =  4.44E-04,  avg # of iterations =  1.0

     total cpu time spent up to now is        4.8 secs

     total energy              =   -4112.12652741 Ry
     estimated scf accuracy    <       0.32487576 Ry

     iteration # 10     ecut=    30.00 Ry     beta= 0.70
     Davidson diagonalization with overlap

---- Real-time Memory Report at c_bands before calling an iterative solver
           191 MiB given to the printing process from OS
             0 MiB allocation reported by mallinfo(arena+hblkhd)
        165518 MiB available memory on the node where the printing process lives
------------------
     ethr =  3.25E-04,  avg # of iterations =  1.0

     total cpu time spent up to now is        5.1 secs

     total energy              =   -4112.11970379 Ry
     estimated scf accuracy    <       0.21412110 Ry

     iteration # 11     ecut=    30.00 Ry     beta= 0.70
     Davidson diagonalization with overlap

---- Real-time Memory Report at c_bands before calling an iterative solver
           191 MiB given to the printing process from OS
             0 MiB allocation reported by mallinfo(arena+hblkhd)
        165516 MiB available memory on the node where the printing process lives
------------------
     ethr =  2.14E-04,  avg # of iterations =  1.0

     total cpu time spent up to now is        5.4 secs

     total energy              =   -4112.00374353 Ry
     estimated scf accuracy    <       0.17167641 Ry

     iteration # 12     ecut=    30.00 Ry     beta= 0.70
     Davidson diagonalization with overlap

---- Real-time Memory Report at c_bands before calling an iterative solver
           191 MiB given to the printing process from OS
             0 MiB allocation reported by mallinfo(arena+hblkhd)
        165516 MiB available memory on the node where the printing process lives
------------------
     ethr =  1.72E-04,  avg # of iterations =  3.0

     total cpu time spent up to now is        5.8 secs

     total energy              =   -4112.14267798 Ry
     estimated scf accuracy    <       2.31471844 Ry

     iteration # 13     ecut=    30.00 Ry     beta= 0.70
     Davidson diagonalization with overlap

---- Real-time Memory Report at c_bands before calling an iterative solver
           192 MiB given to the printing process from OS
             0 MiB allocation reported by mallinfo(arena+hblkhd)
        165515 MiB available memory on the node where the printing process lives
------------------
     ethr =  1.72E-04,  avg # of iterations =  2.0

     total cpu time spent up to now is        6.1 secs

     total energy              =   -4112.13002685 Ry
     estimated scf accuracy    <       2.22578874 Ry

     iteration # 14     ecut=    30.00 Ry     beta= 0.70
     Davidson diagonalization with overlap

---- Real-time Memory Report at c_bands before calling an iterative solver
           192 MiB given to the printing process from OS
             0 MiB allocation reported by mallinfo(arena+hblkhd)
        165516 MiB available memory on the node where the printing process lives
------------------
     ethr =  1.72E-04,  avg # of iterations =  1.0

     total cpu time spent up to now is        6.4 secs

     total energy              =   -4112.18069877 Ry
     estimated scf accuracy    <       2.85127931 Ry

     iteration # 15     ecut=    30.00 Ry     beta= 0.70
     Davidson diagonalization with overlap

---- Real-time Memory Report at c_bands before calling an iterative solver
           192 MiB given to the printing process from OS
             0 MiB allocation reported by mallinfo(arena+hblkhd)
        165516 MiB available memory on the node where the printing process lives
------------------
     ethr =  1.72E-04,  avg # of iterations =  1.0

     total cpu time spent up to now is        6.7 secs

     total energy              =   -4112.18910395 Ry
     estimated scf accuracy    <       3.22301917 Ry

     iteration # 16     ecut=    30.00 Ry     beta= 0.70
     Davidson diagonalization with overlap

---- Real-time Memory Report at c_bands before calling an iterative solver
           192 MiB given to the printing process from OS
             0 MiB allocation reported by mallinfo(arena+hblkhd)
        165517 MiB available memory on the node where the printing process lives
------------------
     ethr =  1.72E-04,  avg # of iterations =  1.0

     total cpu time spent up to now is        7.0 secs

     total energy              =   -4112.19888220 Ry
     estimated scf accuracy    <       2.41055763 Ry

     iteration # 17     ecut=    30.00 Ry     beta= 0.70
     Davidson diagonalization with overlap

---- Real-time Memory Report at c_bands before calling an iterative solver
           192 MiB given to the printing process from OS
             0 MiB allocation reported by mallinfo(arena+hblkhd)
        165516 MiB available memory on the node where the printing process lives
------------------
     ethr =  1.72E-04,  avg # of iterations =  1.0

     total cpu time spent up to now is        7.4 secs

     total energy              =   -4112.17849899 Ry
     estimated scf accuracy    <       2.74653644 Ry

     iteration # 18     ecut=    30.00 Ry     beta= 0.70
     Davidson diagonalization with overlap

---- Real-time Memory Report at c_bands before calling an iterative solver
           192 MiB given to the printing process from OS
             0 MiB allocation reported by mallinfo(arena+hblkhd)
        165517 MiB available memory on the node where the printing process lives
------------------
     ethr =  1.72E-04,  avg # of iterations =  1.0

     total cpu time spent up to now is        7.7 secs

     total energy              =   -4112.06680618 Ry
     estimated scf accuracy    <       2.84278486 Ry

     iteration # 19     ecut=    30.00 Ry     beta= 0.70
     Davidson diagonalization with overlap

---- Real-time Memory Report at c_bands before calling an iterative solver
           192 MiB given to the printing process from OS
             0 MiB allocation reported by mallinfo(arena+hblkhd)
        165517 MiB available memory on the node where the printing process lives
------------------
     ethr =  1.72E-04,  avg # of iterations =  1.0

     total cpu time spent up to now is        8.0 secs

     total energy              =   -4111.96700708 Ry
     estimated scf accuracy    <       3.22985801 Ry

     iteration # 20     ecut=    30.00 Ry     beta= 0.70
     Davidson diagonalization with overlap

---- Real-time Memory Report at c_bands before calling an iterative solver
           192 MiB given to the printing process from OS
             0 MiB allocation reported by mallinfo(arena+hblkhd)
        165517 MiB available memory on the node where the printing process lives
------------------
     ethr =  1.72E-04,  avg # of iterations =  2.0

     total cpu time spent up to now is        8.3 secs

     total energy              =   -4112.08744855 Ry
     estimated scf accuracy    <       0.04672876 Ry

     iteration # 21     ecut=    30.00 Ry     beta= 0.70
     Davidson diagonalization with overlap

---- Real-time Memory Report at c_bands before calling an iterative solver
           192 MiB given to the printing process from OS
             0 MiB allocation reported by mallinfo(arena+hblkhd)
        165517 MiB available memory on the node where the printing process lives
------------------
     ethr =  4.67E-05,  avg # of iterations =  2.0

     total cpu time spent up to now is        8.7 secs

     total energy              =   -4112.08965913 Ry
     estimated scf accuracy    <       0.01353426 Ry

     iteration # 22     ecut=    30.00 Ry     beta= 0.70
     Davidson diagonalization with overlap

---- Real-time Memory Report at c_bands before calling an iterative solver
           192 MiB given to the printing process from OS
             0 MiB allocation reported by mallinfo(arena+hblkhd)
        165517 MiB available memory on the node where the printing process lives
------------------
     ethr =  1.35E-05,  avg # of iterations =  2.0

     total cpu time spent up to now is        9.0 secs

     total energy              =   -4112.08317230 Ry
     estimated scf accuracy    <       0.01133530 Ry

     iteration # 23     ecut=    30.00 Ry     beta= 0.70
     Davidson diagonalization with overlap

---- Real-time Memory Report at c_bands before calling an iterative solver
           192 MiB given to the printing process from OS
             0 MiB allocation reported by mallinfo(arena+hblkhd)
        165517 MiB available memory on the node where the printing process lives
------------------
     ethr =  1.13E-05,  avg # of iterations =  9.0

     total cpu time spent up to now is        9.4 secs

     total energy              =   -4112.03318519 Ry
     estimated scf accuracy    <       2.93153474 Ry

     iteration # 24     ecut=    30.00 Ry     beta= 0.70
     Davidson diagonalization with overlap

---- Real-time Memory Report at c_bands before calling an iterative solver
           192 MiB given to the printing process from OS
             0 MiB allocation reported by mallinfo(arena+hblkhd)
        165517 MiB available memory on the node where the printing process lives
------------------
     ethr =  1.13E-05,  avg # of iterations =  3.0

     total cpu time spent up to now is        9.9 secs

     total energy              =   -4112.08799008 Ry
     estimated scf accuracy    <       0.00108730 Ry

     iteration # 25     ecut=    30.00 Ry     beta= 0.70
     Davidson diagonalization with overlap

---- Real-time Memory Report at c_bands before calling an iterative solver
           192 MiB given to the printing process from OS
             0 MiB allocation reported by mallinfo(arena+hblkhd)
        165519 MiB available memory on the node where the printing process lives
------------------
     ethr =  1.09E-06,  avg # of iterations = 10.0

     total cpu time spent up to now is       10.3 secs

     total energy              =   -4112.08791922 Ry
     estimated scf accuracy    <       0.00243777 Ry

     iteration # 26     ecut=    30.00 Ry     beta= 0.70
     Davidson diagonalization with overlap

---- Real-time Memory Report at c_bands before calling an iterative solver
           192 MiB given to the printing process from OS
             0 MiB allocation reported by mallinfo(arena+hblkhd)
        165518 MiB available memory on the node where the printing process lives
------------------
     ethr =  1.09E-06,  avg # of iterations =  1.0

     total cpu time spent up to now is       10.6 secs

     total energy              =   -4112.08774852 Ry
     estimated scf accuracy    <       0.00108561 Ry

     iteration # 27     ecut=    30.00 Ry     beta= 0.70
     Davidson diagonalization with overlap

---- Real-time Memory Report at c_bands before calling an iterative solver
           192 MiB given to the printing process from OS
             0 MiB allocation reported by mallinfo(arena+hblkhd)
        165519 MiB available memory on the node where the printing process lives
------------------
     ethr =  1.09E-06,  avg # of iterations =  1.0

     total cpu time spent up to now is       10.9 secs

     total energy              =   -4112.08766968 Ry
     estimated scf accuracy    <       0.00086128 Ry

     iteration # 28     ecut=    30.00 Ry     beta= 0.70
     Davidson diagonalization with overlap

---- Real-time Memory Report at c_bands before calling an iterative solver
           192 MiB given to the printing process from OS
             0 MiB allocation reported by mallinfo(arena+hblkhd)
        165518 MiB available memory on the node where the printing process lives
------------------
     ethr =  8.61E-07,  avg # of iterations =  1.0

     total cpu time spent up to now is       11.3 secs

     total energy              =   -4112.08747731 Ry
     estimated scf accuracy    <       0.00526428 Ry

     iteration # 29     ecut=    30.00 Ry     beta= 0.70
     Davidson diagonalization with overlap

---- Real-time Memory Report at c_bands before calling an iterative solver
           192 MiB given to the printing process from OS
             0 MiB allocation reported by mallinfo(arena+hblkhd)
        165517 MiB available memory on the node where the printing process lives
------------------
     ethr =  8.61E-07,  avg # of iterations =  1.0

     total cpu time spent up to now is       11.6 secs

     total energy              =   -4112.08765723 Ry
     estimated scf accuracy    <       0.00053344 Ry

     iteration # 30     ecut=    30.00 Ry     beta= 0.70
     Davidson diagonalization with overlap

---- Real-time Memory Report at c_bands before calling an iterative solver
           192 MiB given to the printing process from OS
             0 MiB allocation reported by mallinfo(arena+hblkhd)
        165518 MiB available memory on the node where the printing process lives
------------------
     ethr =  5.33E-07,  avg # of iterations =  1.0

     total cpu time spent up to now is       11.9 secs

     total energy              =   -4112.08768389 Ry
     estimated scf accuracy    <       0.00016434 Ry

     iteration # 31     ecut=    30.00 Ry     beta= 0.70
     Davidson diagonalization with overlap

---- Real-time Memory Report at c_bands before calling an iterative solver
           192 MiB given to the printing process from OS
             0 MiB allocation reported by mallinfo(arena+hblkhd)
        165518 MiB available memory on the node where the printing process lives
------------------
     ethr =  1.64E-07,  avg # of iterations =  1.0

     total cpu time spent up to now is       12.2 secs

     total energy              =   -4112.08768589 Ry
     estimated scf accuracy    <       0.00015636 Ry

     iteration # 32     ecut=    30.00 Ry     beta= 0.70
     Davidson diagonalization with overlap

---- Real-time Memory Report at c_bands before calling an iterative solver
           192 MiB given to the printing process from OS
             0 MiB allocation reported by mallinfo(arena+hblkhd)
        165518 MiB available memory on the node where the printing process lives
------------------
     ethr =  1.56E-07,  avg # of iterations =  1.0

     total cpu time spent up to now is       12.6 secs

     total energy              =   -4112.08765757 Ry
     estimated scf accuracy    <       0.00013312 Ry

     iteration # 33     ecut=    30.00 Ry     beta= 0.70
     Davidson diagonalization with overlap

---- Real-time Memory Report at c_bands before calling an iterative solver
           192 MiB given to the printing process from OS
             0 MiB allocation reported by mallinfo(arena+hblkhd)
        165519 MiB available memory on the node where the printing process lives
------------------
     ethr =  1.33E-07,  avg # of iterations =  1.0

     total cpu time spent up to now is       12.9 secs

     total energy              =   -4112.08764742 Ry
     estimated scf accuracy    <       0.00023055 Ry

     iteration # 34     ecut=    30.00 Ry     beta= 0.70
     Davidson diagonalization with overlap

---- Real-time Memory Report at c_bands before calling an iterative solver
           192 MiB given to the printing process from OS
             0 MiB allocation reported by mallinfo(arena+hblkhd)
        165520 MiB available memory on the node where the printing process lives
------------------
     ethr =  1.33E-07,  avg # of iterations =  1.0

     total cpu time spent up to now is       13.2 secs

     total energy              =   -4112.08767082 Ry
     estimated scf accuracy    <       0.00001171 Ry

     iteration # 35     ecut=    30.00 Ry     beta= 0.70
     Davidson diagonalization with overlap

---- Real-time Memory Report at c_bands before calling an iterative solver
           193 MiB given to the printing process from OS
             0 MiB allocation reported by mallinfo(arena+hblkhd)
        165520 MiB available memory on the node where the printing process lives
------------------
     ethr =  1.17E-08,  avg # of iterations = 13.0

     total cpu time spent up to now is       13.6 secs

     total energy              =   -4112.08767917 Ry
     estimated scf accuracy    <       0.00000417 Ry

     iteration # 36     ecut=    30.00 Ry     beta= 0.70
     Davidson diagonalization with overlap

---- Real-time Memory Report at c_bands before calling an iterative solver
           193 MiB given to the printing process from OS
             0 MiB allocation reported by mallinfo(arena+hblkhd)
        165521 MiB available memory on the node where the printing process lives
------------------
     ethr =  4.17E-09,  avg # of iterations =  2.0

     total cpu time spent up to now is       13.9 secs

     End of self-consistent calculation

          k = 0.0000 0.0000 0.0000 (  1942 PWs)   bands (ev):

   -43.6185 -43.6136 -43.5928 -43.5911 -16.0733 -16.0195 -15.9782 -15.9332
   -15.9047 -15.8813 -15.8492 -15.8113 -15.7986 -15.7943 -15.7818 -15.7451
     2.9492   5.6777   5.9304   6.5014   6.6746   7.2833   7.9779   8.0247
     8.0590   8.0679   8.0765   8.0883   8.1029   8.1094   8.1350   8.1524
     8.1678   8.1731   8.1919   8.1934   8.1938   8.2141   8.2157   8.2179
     8.2493   8.2514   8.2536   8.2577   8.2644   8.2683   8.2737   8.2774
     8.3129   8.3198   8.4318   9.3363   9.5832   9.6894   9.9124  10.8279
    10.9240  11.0592  11.2210  11.2295

     occupation numbers 
     1.0000   1.0000   1.0000   1.0000   1.0000   1.0000   1.0000   1.0000
     1.0000   1.0000   1.0000   1.0000   1.0000   1.0000   1.0000   1.0000
     1.0000   1.0000   1.0000   1.0000   1.0000   1.0000   1.0000   1.0000
     1.0000   1.0000   1.0000   1.0000   1.0000   1.0000   1.0000   1.0000
     1.0000   1.0000   1.0000   1.0000   1.0000   1.0000   1.0000   1.0000
     1.0000   1.0000   1.0000   1.0000   1.0000   1.0000   1.0000   1.0000
     1.0000   1.0000  -0.0000  -0.0000  -0.0000  -0.0000  -0.0000  -0.0000
    -0.0000  -0.0000  -0.0000  -0.0000

     the Fermi energy is     8.3758 ev

!    total energy              =   -4112.08767931 Ry

     total all-electron energy =     -4846.196097 Ry
     estimated scf accuracy    <       0.00000031 Ry
     smearing contrib. (-TS)   =       0.00000000 Ry
     internal energy E=F+TS    =   -4112.08767931 Ry

     The total energy is F=E-TS. E is the sum of the following terms:
     one-electron contribution =   -1853.89645273 Ry
     hartree contribution      =     821.86816877 Ry
     xc contribution           =    -155.39827111 Ry
     ewald contribution        =    -925.63127360 Ry
     one-center paw contrib.   =   -1999.02985064 Ry
      -> PAW hartree energy AE =     449.47298468 Ry
      -> PAW hartree energy PS =    -385.88064093 Ry
      -> PAW xc energy AE      =    -584.86619898 Ry
      -> PAW xc energy PS      =      37.17360763 Ry
      -> total E_H with PAW    =     885.46051251 Ry
      -> total E_XC with PAW   =    -703.09086246 Ry

     convergence has been achieved in  36 iterations

     Forces acting on atoms (cartesian axes, Ry/au):

     atom    1 type  1   force =    -0.00948119   -0.00267652   -0.01503363
     atom    2 type  1   force =     0.00450512    0.00123212   -0.01887113
     atom    3 type  1   force =    -0.00450512   -0.00123212    0.01887113
     atom    4 type  1   force =     0.00948119    0.00267652    0.01503363
     atom    5 type  2   force =     0.00827971    0.00236216   -0.00039129
     atom    6 type  2   force =    -0.00827971   -0.00236216    0.00039129
     The non-local contrib.  to forces
     atom    1 type  1   force =    -0.06816386   -0.01936613    0.00555428
     atom    2 type  1   force =    -0.01971061   -0.00566028   -0.06015694
     atom    3 type  1   force =     0.01971061    0.00566028    0.06015694
     atom    4 type  1   force =     0.06816386    0.01936613   -0.00555428
     atom    5 type  2   force =    -0.01218652   -0.00347456    0.02524587
     atom    6 type  2   force =     0.01218652    0.00347456   -0.02524587
     The ionic contribution  to forces
     atom    1 type  1   force =     0.66239385    0.18898535   20.74709188
     atom    2 type  1   force =    -2.01790641   -0.57572206   22.04723003
     atom    3 type  1   force =     2.01790641    0.57572206  -22.04723003
     atom    4 type  1   force =    -0.66239385   -0.18898535  -20.74709188
     atom    5 type  2   force =    -1.10794703   -0.31610463   -0.49223683
     atom    6 type  2   force =     1.10794703    0.31610463    0.49223683
     The local contribution  to forces
     atom    1 type  1   force =    -0.60470915   -0.17253543  -20.76917400
     atom    2 type  1   force =     2.04213088    0.58269259  -22.00463939
     atom    3 type  1   force =    -2.04306667   -0.58293772   22.00816142
     atom    4 type  1   force =     0.60589652    0.17300800   20.76914491
     atom    5 type  2   force =     1.12728517    0.32161958    0.46890199
     atom    6 type  2   force =    -1.12731131   -0.32162581   -0.46913597
     The core correction contribution to forces
     atom    1 type  1   force =    -0.00000011   -0.00000003   -0.00000019
     atom    2 type  1   force =    -0.00000001   -0.00000000    0.00000132
     atom    3 type  1   force =     0.00000001    0.00000000   -0.00000131
     atom    4 type  1   force =     0.00000012    0.00000003    0.00000019
     atom    5 type  2   force =     0.00110614    0.00031530   -0.00242845
     atom    6 type  2   force =    -0.00110783   -0.00031584    0.00242259
     The Hubbard contrib.    to forces
     atom    1 type  1   force =     0.00000000    0.00000000    0.00000000
     atom    2 type  1   force =     0.00000000    0.00000000    0.00000000
     atom    3 type  1   force =     0.00000000    0.00000000    0.00000000
     atom    4 type  1   force =     0.00000000    0.00000000    0.00000000
     atom    5 type  2   force =     0.00000000    0.00000000    0.00000000
     atom    6 type  2   force =     0.00000000    0.00000000    0.00000000
     The SCF correction term to forces
     atom    1 type  1   force =     0.00094546    0.00021195    0.00154886
     atom    2 type  1   force =    -0.00002042   -0.00005952   -0.00140418
     atom    3 type  1   force =     0.00093280    0.00034185   -0.00231393
     atom    4 type  1   force =    -0.00223809   -0.00074009   -0.00141087
     atom    5 type  2   force =     0.00001435    0.00000467    0.00009348
     atom    6 type  2   force =    -0.00000173   -0.00000148    0.00008105

     Total force =     0.039377     Total SCF correction =     0.004384
     SCF correction compared to forces is large: reduce conv_thr to get better values


     Computing stress (Cartesian axis) and pressure

          total   stress  (Ry/bohr**3)                   (kbar)     P=      -27.41
   0.00034750   0.00044867   0.00004647           51.12       66.00        6.84
   0.00044867  -0.00109609   0.00001303           66.00     -161.24        1.92
   0.00004647   0.00001303   0.00018958            6.84        1.92       27.89

     kinetic stress (kbar)   5716.72     36.29    -15.45
                               36.29   5599.87     -4.41
                              -15.45     -4.41   5697.86

     local   stress (kbar) -12869.55   1439.44  -3015.05
                             1439.44 -17504.14   -860.17
                            -3015.05   -860.17   9789.48

     nonloc. stress (kbar)   9976.80     -0.55      3.78
                               -0.55   9978.77      1.01
                                3.78      1.01   9990.72

     hartree stress (kbar)  31744.96   -755.42   1377.12
                             -755.42  34177.19    392.89
                             1377.12    392.89  20858.84

     exc-cor stress (kbar)  -5013.82     -1.18     -0.26
                               -1.18  -5010.02     -0.08
                               -0.26     -0.08  -5012.97

     corecor stress (kbar)   -155.01      0.15      0.02
                                0.15   -155.50      0.00
                                0.02      0.00   -155.09

     ewald   stress (kbar) -29348.98   -652.73   1656.68
                             -652.73 -27247.40    472.66
                             1656.68    472.66 -41140.94

     hubbard stress (kbar)      0.00      0.00      0.00
                                0.00      0.00      0.00
                                0.00      0.00      0.00

     DFT-D   stress (kbar)      0.00      0.00      0.00
                                0.00      0.00      0.00
                                0.00      0.00      0.00

     XDM     stress (kbar)      0.00      0.00      0.00
                                0.00      0.00      0.00
                                0.00      0.00      0.00

     dft-nl  stress (kbar)      0.00      0.00      0.00
                                0.00      0.00      0.00
                                0.00      0.00      0.00

     TS-vdW  stress (kbar)      0.00      0.00      0.00
                                0.00      0.00      0.00
                                0.00      0.00      0.00


                                0.00      0.00      0.00
                                0.00      0.00      0.00


                                0.00      0.00      0.00


     Writing all to output data dir calculations/myprefix.save/
 
     init_run     :      1.22s CPU      1.28s WALL (       1 calls)
     electrons    :     11.91s CPU     12.36s WALL (       1 calls)
     forces       :      0.11s CPU      0.12s WALL (       1 calls)
     stress       :      0.30s CPU      0.31s WALL (       1 calls)

     Called by init_run:
     wfcinit      :      0.03s CPU      0.05s WALL (       1 calls)
     wfcinit:atom :      0.00s CPU      0.00s WALL (       1 calls)
     wfcinit:wfcr :      0.03s CPU      0.04s WALL (       1 calls)
     potinit      :      0.59s CPU      0.61s WALL (       1 calls)
     hinit0       :      0.55s CPU      0.56s WALL (       1 calls)

     Called by electrons:
     c_bands      :      1.31s CPU      1.36s WALL (      36 calls)
     sum_band     :      0.84s CPU      1.02s WALL (      36 calls)
     v_of_rho     :      0.24s CPU      0.25s WALL (      37 calls)
     v_h          :      0.01s CPU      0.01s WALL (      37 calls)
     v_xc         :      0.24s CPU      0.25s WALL (      39 calls)
     newd         :      0.68s CPU      0.80s WALL (      37 calls)
     PAW_pot      :      9.00s CPU      9.05s WALL (      37 calls)
     mix_rho      :      0.05s CPU      0.06s WALL (      36 calls)

     Called by c_bands:
     init_us_2    :      0.00s CPU      0.01s WALL (      73 calls)
     init_us_2:cp :      0.00s CPU      0.01s WALL (      73 calls)
     regterg      :      1.27s CPU      1.31s WALL (      36 calls)

     Called by sum_band:
     sum_band:wei :      0.00s CPU      0.00s WALL (      36 calls)
     sum_band:loo :      0.11s CPU      0.13s WALL (      36 calls)
     sum_band:buf :      0.00s CPU      0.00s WALL (      36 calls)
     sum_band:ini :      0.00s CPU      0.00s WALL (      36 calls)
     sum_band:cal :      0.01s CPU      0.02s WALL (      36 calls)
     sum_band:bec :      0.00s CPU      0.00s WALL (      36 calls)
     addusdens    :      0.66s CPU      0.82s WALL (      36 calls)
     addusd:skk   :      0.00s CPU      0.00s WALL (      72 calls)
     addusd:dgemm :      0.14s CPU      0.28s WALL (      72 calls)
     addusd:qvan2 :      0.46s CPU      0.47s WALL (      72 calls)

     Called by *egterg:
     rdiaghg      :      0.65s CPU      0.67s WALL (     134 calls)
     regterg:over :      0.07s CPU      0.07s WALL (      98 calls)
     regterg:upda :      0.02s CPU      0.03s WALL (      98 calls)
     regterg:last :      0.04s CPU      0.04s WALL (      57 calls)
     rdiaghg:chol :      0.03s CPU      0.03s WALL (     134 calls)
     rdiaghg:inve :      0.01s CPU      0.01s WALL (     134 calls)
     rdiaghg:para :      0.05s CPU      0.05s WALL (     268 calls)
     h_psi        :      0.49s CPU      0.52s WALL (     135 calls)
     s_psi        :      0.00s CPU      0.01s WALL (     135 calls)
     g_psi        :      0.00s CPU      0.00s WALL (      98 calls)

     Called by h_psi:
     h_psi:calbec :      0.04s CPU      0.04s WALL (     135 calls)
     vloc_psi     :      0.44s CPU      0.47s WALL (     135 calls)
     add_vuspsi   :      0.01s CPU      0.01s WALL (     135 calls)

     General routines
     calbec       :      0.05s CPU      0.06s WALL (     176 calls)
     fft          :      0.56s CPU      0.58s WALL (     425 calls)
     ffts         :      0.31s CPU      0.31s WALL (      73 calls)
     fftw         :      0.49s CPU      0.52s WALL (    6304 calls)
     interpolate  :      0.32s CPU      0.32s WALL (      37 calls)
 
     Parallel routines

     PAW routines
     PAW_pot      :      9.00s CPU      9.05s WALL (      37 calls)
     PAW_symme    :      0.02s CPU      0.02s WALL (      73 calls)
 
     PWSCF        :     13.85s CPU     15.30s WALL

 
   This run was terminated on:  21:16:42   4Mar2023            

=------------------------------------------------------------------------------=
   JOB DONE.
=------------------------------------------------------------------------------=
