
     Program PWSCF v.7.0 starts on  6Mar2023 at 13: 1:52 

     This program is part of the open-source Quantum ESPRESSO suite
     for quantum simulation of materials; please cite
         "P. Giannozzi et al., J. Phys.:Condens. Matter 21 395502 (2009);
         "P. Giannozzi et al., J. Phys.:Condens. Matter 29 465901 (2017);
         "P. Giannozzi et al., J. Chem. Phys. 152 154105 (2020);
          URL http://www.quantum-espresso.org", 
     in publications or presentations arising from this work. More details at
     http://www.quantum-espresso.org/quote

     Parallel version (MPI & OpenMP), running on      32 processor cores
     Number of MPI processes:                32
     Threads/MPI process:                     1

     MPI processes distributed on     1 nodes
     R & G space division:  proc/nbgrp/npool/nimage =      32
     166173 MiB available memory on the printing compute node when the environment starts
 
     Reading input from espresso_4703.pwi
Warning: card &CELL ignored
Warning: card / ignored

     Current dimensions of program PWSCF are:
     Max number of different atomic species (ntypx) = 10
     Max number of k-points (npk) =  40000
     Max angular momentum in pseudopotentials (lmaxx) =  4
     file Pb.pbe-dn-kjpaw_psl.0.2.2.UPF: wavefunction(s)  6S renormalized

     gamma-point specific algorithms are used
     Message from routine setup:
     using ibrav=0 with symmetry is DISCOURAGED, use correct ibrav instead

     Subspace diagonalization in iterative solution of the eigenvalue problem:
     one sub-group per band group will be used
     scalapack distributed-memory algorithm (size of sub-group:  5*  5 procs)

 
     Parallelization info
     --------------------
     sticks:   dense  smooth     PW     G-vecs:    dense   smooth      PW
     Min          40      20      4                 1900      668      76
     Max          42      22      6                 1922      686      94
     Sum        1303     661    163                60939    21589    2707
 
     Using Slab Decomposition
 


     bravais-lattice index     =            0
     lattice parameter (alat)  =       8.9145  a.u.
     unit-cell volume          =     971.3858 (a.u.)^3
     number of atoms/cell      =            6
     number of atomic types    =            3
     number of electrons       =        90.00
     number of Kohn-Sham states=           54
     kinetic-energy cutoff     =      30.0000  Ry
     charge density cutoff     =     240.0000  Ry
     scf convergence threshold =      1.0E-06
     mixing beta               =       0.7000
     number of iterations used =            8  plain     mixing
     Exchange-correlation= SLA  PW   PBX  PBC
                           (   1   4   3   4   0   0   0)

     celldm(1)=   8.914482  celldm(2)=   0.000000  celldm(3)=   0.000000
     celldm(4)=   0.000000  celldm(5)=   0.000000  celldm(6)=   0.000000

     crystal axes: (cart. coord. in units of alat)
               a(1) = (   1.000000   0.000000   0.000000 )  
               a(2) = (  -0.500000   0.866025   0.000000 )  
               a(3) = (   0.000000   0.000000   1.583335 )  

     reciprocal axes: (cart. coord. in units 2 pi/alat)
               b(1) = (  1.000000  0.577350  0.000000 )  
               b(2) = (  0.000000  1.154701  0.000000 )  
               b(3) = (  0.000000  0.000000  0.631578 )  


     PseudoPot. # 1 for Ce read from file:
     /home/pragov/projects/rrg-bengioy-ad/pragov/crystal_structure_design/SSSP/Ce.GGA-PBE-paw-v1.0.UPF
     MD5 check sum: f2b950f613061344c13339c8d844425d
     Pseudo is Projector augmented-wave + core cor, Zval = 12.0
     Generated using ATOMPAW code
     Shape of augmentation charge: BESSEL
     Using radial grid of 1102 points,  8 beta functions with: 
                l(1) =   0
                l(2) =   0
                l(3) =   1
                l(4) =   1
                l(5) =   2
                l(6) =   2
                l(7) =   3
                l(8) =   3
     Q(r) pseudized with 0 coefficients 


     PseudoPot. # 2 for Cu read from file:
     /home/pragov/projects/rrg-bengioy-ad/pragov/crystal_structure_design/SSSP/Cu_pbe_v1.2.uspp.F.UPF
     MD5 check sum: 6e991ff952a84172a2a52a1c1e996048
     Pseudo is Ultrasoft + core correction, Zval = 19.0
     Generated by new atomic code, or converted to UPF format
     Using radial grid of  867 points,  6 beta functions with: 
                l(1) =   0
                l(2) =   0
                l(3) =   1
                l(4) =   1
                l(5) =   2
                l(6) =   2
     Q(r) pseudized with  8 coefficients,  rinner =    1.150   1.150   1.150
                                                       1.150   1.150

     PseudoPot. # 3 for Pb read from file:
     /home/pragov/projects/rrg-bengioy-ad/pragov/crystal_structure_design/SSSP/Pb.pbe-dn-kjpaw_psl.0.2.2.UPF
     MD5 check sum: 9d431e6316058b74ade52399a6cf67da
     Pseudo is Projector augmented-wave + core cor, Zval = 14.0
     Generated using "atomic" code by A. Dal Corso  v.5.0.99 svn rev. 10869
     Shape of augmentation charge: PSQ
     Using radial grid of 1281 points,  6 beta functions with: 
                l(1) =   0
                l(2) =   0
                l(3) =   1
                l(4) =   1
                l(5) =   2
                l(6) =   2
     Q(r) pseudized with 0 coefficients 


     atomic species   valence    mass     pseudopotential
        Ce            12.00   140.11600     Ce( 1.00)
        Cu            19.00    63.54600     Cu( 1.00)
        Pb            14.00   207.20000     Pb( 1.00)

     12 Sym. Ops. (no inversion) found ( 6 have fractional translation)


                                    s                        frac. trans.

      isym =  1     identity                                     

 cryst.   s( 1) = (     1          0          0      )
                  (     0          1          0      )
                  (     0          0          1      )

 cart.    s( 1) = (  1.0000000  0.0000000  0.0000000 )
                  (  0.0000000  1.0000000  0.0000000 )
                  (  0.0000000  0.0000000  1.0000000 )


      isym =  2     180 deg rotation - cart. axis [0,0,1]        

 cryst.   s( 2) = (    -1          0          0      )    f =(  0.0000000 )
                  (     0         -1          0      )       (  0.0000000 )
                  (     0          0          1      )       ( -0.5000000 )

 cart.    s( 2) = ( -1.0000000 -0.0000000  0.0000000 )    f =(  0.0000000 )
                  (  0.0000000 -1.0000000  0.0000000 )       (  0.0000000 )
                  (  0.0000000  0.0000000  1.0000000 )       ( -0.7916676 )


      isym =  3      60 deg rotation - cryst. axis [0,0,1]       

 cryst.   s( 3) = (     1          1          0      )    f =(  0.0000000 )
                  (    -1          0          0      )       (  0.0000000 )
                  (     0          0          1      )       ( -0.5000000 )

 cart.    s( 3) = (  0.4999999 -0.8660255  0.0000000 )    f =(  0.0000000 )
                  (  0.8660253  0.5000001  0.0000000 )       (  0.0000000 )
                  (  0.0000000  0.0000000  1.0000000 )       ( -0.7916676 )


      isym =  4      60 deg rotation - cryst. axis [0,0,-1]      

 cryst.   s( 4) = (     0         -1          0      )    f =(  0.0000000 )
                  (     1          1          0      )       (  0.0000000 )
                  (     0          0          1      )       ( -0.5000000 )

 cart.    s( 4) = (  0.5000001  0.8660255  0.0000000 )    f =(  0.0000000 )
                  ( -0.8660253  0.4999999  0.0000000 )       (  0.0000000 )
                  (  0.0000000  0.0000000  1.0000000 )       ( -0.7916676 )


      isym =  5     120 deg rotation - cryst. axis [0,0,1]       

 cryst.   s( 5) = (     0          1          0      )
                  (    -1         -1          0      )
                  (     0          0          1      )

 cart.    s( 5) = ( -0.5000001 -0.8660255  0.0000000 )
                  (  0.8660253 -0.4999999  0.0000000 )
                  (  0.0000000  0.0000000  1.0000000 )


      isym =  6     120 deg rotation - cryst. axis [0,0,-1]      

 cryst.   s( 6) = (    -1         -1          0      )
                  (     1          0          0      )
                  (     0          0          1      )

 cart.    s( 6) = ( -0.4999999  0.8660255  0.0000000 )
                  ( -0.8660253 -0.5000001  0.0000000 )
                  (  0.0000000  0.0000000  1.0000000 )


      isym =  7     inv. 180 deg rotation - cart. axis [0,1,0]   

 cryst.   s( 7) = (     1          0          0      )    f =(  0.0000000 )
                  (    -1         -1          0      )       (  0.0000000 )
                  (     0          0          1      )       ( -0.5000000 )

 cart.    s( 7) = (  1.0000000  0.0000003  0.0000000 )    f =(  0.0000000 )
                  (  0.0000000 -1.0000000  0.0000000 )       (  0.0000000 )
                  (  0.0000000  0.0000000  1.0000000 )       ( -0.7916676 )


      isym =  8     inv. 180 deg rotation - cart. axis [1,0,0]   

 cryst.   s( 8) = (    -1          0          0      )
                  (     1          1          0      )
                  (     0          0          1      )

 cart.    s( 8) = ( -1.0000000 -0.0000003  0.0000000 )
                  (  0.0000000  1.0000000  0.0000000 )
                  (  0.0000000  0.0000000  1.0000000 )


      isym =  9     inv. 180 deg rotation - cryst. axis [1,-1,0] 

 cryst.   s( 9) = (     0          1          0      )    f =(  0.0000000 )
                  (     1          0          0      )       (  0.0000000 )
                  (     0          0          1      )       ( -0.5000000 )

 cart.    s( 9) = ( -0.5000001  0.8660253  0.0000000 )    f =(  0.0000000 )
                  (  0.8660253  0.5000001  0.0000000 )       (  0.0000000 )
                  (  0.0000000  0.0000000  1.0000000 )       ( -0.7916676 )


      isym = 10     inv. 180 deg rotation - cryst. axis [2,1,0]  

 cryst.   s(10) = (    -1         -1          0      )    f =(  0.0000000 )
                  (     0          1          0      )       (  0.0000000 )
                  (     0          0          1      )       ( -0.5000000 )

 cart.    s(10) = ( -0.4999999 -0.8660256  0.0000000 )    f =(  0.0000000 )
                  ( -0.8660253  0.4999999  0.0000000 )       (  0.0000000 )
                  (  0.0000000  0.0000000  1.0000000 )       ( -0.7916676 )


      isym = 11     inv. 180 deg rotation - cryst. axis [0,1,0]  

 cryst.   s(11) = (     1          1          0      )
                  (     0         -1          0      )
                  (     0          0          1      )

 cart.    s(11) = (  0.4999999  0.8660256  0.0000000 )
                  (  0.8660253 -0.4999999  0.0000000 )
                  (  0.0000000  0.0000000  1.0000000 )


      isym = 12     inv. 180 deg rotation - cryst. axis [1,1,0]  

 cryst.   s(12) = (     0         -1          0      )
                  (    -1          0          0      )
                  (     0          0          1      )

 cart.    s(12) = (  0.5000001 -0.8660253  0.0000000 )
                  ( -0.8660253 -0.5000001  0.0000000 )
                  (  0.0000000  0.0000000  1.0000000 )


   Cartesian axes

     site n.     atom                  positions (alat units)
         1           Ce  tau(   1) = (   0.0000000   0.0000000   0.0202968  )
         2           Ce  tau(   2) = (   0.0000000   0.0000000   0.8119643  )
         3           Cu  tau(   3) = (   0.5000005   0.2886748   0.5137432  )
         4           Cu  tau(   4) = (  -0.0000006   0.5773505   1.3054107  )
         5           Pb  tau(   5) = (   0.5000005   0.2886748   1.1780203  )
         6           Pb  tau(   6) = (  -0.0000006   0.5773505   0.3863528  )

   Crystallographic axes

     site n.     atom                  positions (cryst. coord.)
         1           Ce  tau(   1) = (  0.0000000  0.0000000  0.0128190  )
         2           Ce  tau(   2) = (  0.0000000  0.0000000  0.5128190  )
         3           Cu  tau(   3) = (  0.6666670  0.3333330  0.3244690  )
         4           Cu  tau(   4) = (  0.3333330  0.6666670  0.8244690  )
         5           Pb  tau(   5) = (  0.6666670  0.3333330  0.7440120  )
         6           Pb  tau(   6) = (  0.3333330  0.6666670  0.2440120  )

     number of k points=     1  Methfessel-Paxton smearing, width (Ry)=  0.0010
                       cart. coord. in units 2pi/alat
        k(    1) = (   0.0000000   0.0000000   0.0000000), wk =   2.0000000

                       cryst. coord.
        k(    1) = (   0.0000000   0.0000000   0.0000000), wk =   2.0000000

     Dense  grid:    30470 G-vectors     FFT dimensions: (  45,  45,  72)

     Smooth grid:    10795 G-vectors     FFT dimensions: (  32,  32,  50)

     Dynamical RAM for                 wfc:       0.03 MB

     Dynamical RAM for     wfc (w. buffer):       0.03 MB

     Dynamical RAM for           str. fact:       0.04 MB

     Dynamical RAM for           local pot:       0.00 MB

     Dynamical RAM for          nlocal pot:       0.09 MB

     Dynamical RAM for                qrad:       8.96 MB

     Dynamical RAM for          rho,v,vnew:       0.18 MB

     Dynamical RAM for               rhoin:       0.06 MB

     Dynamical RAM for            rho*nmix:       0.23 MB

     Dynamical RAM for           G-vectors:       0.06 MB

     Dynamical RAM for          h,s,v(r/c):       0.01 MB

     Dynamical RAM for          <psi|beta>:       0.06 MB

     Dynamical RAM for                 psi:       0.07 MB

     Dynamical RAM for                hpsi:       0.07 MB

     Dynamical RAM for                spsi:       0.07 MB

     Dynamical RAM for      wfcinit/wfcrot:       0.41 MB

     Dynamical RAM for           addusdens:       8.09 MB

     Dynamical RAM for          addusforce:       8.15 MB

     Dynamical RAM for         addusstress:       8.45 MB

     Estimated static dynamical RAM per process >       9.71 MB

     Estimated max dynamical RAM per process >      18.40 MB

     Estimated total dynamical RAM >     588.80 MB

     Initial potential from superposition of free atoms

     starting charge      87.9813, renormalised to      90.0000
     Starting wfcs are  108 randomized atomic wfcs
     Checking if some PAW data can be deallocated... 
       PAW data deallocated on   20 nodes for type:  1
       PAW data deallocated on   22 nodes for type:  3

     total cpu time spent up to now is        1.4 secs

     Self-consistent Calculation

     iteration #  1     ecut=    30.00 Ry     beta= 0.70
     Davidson diagonalization with overlap

---- Real-time Memory Report at c_bands before calling an iterative solver
           164 MiB given to the printing process from OS
             0 MiB allocation reported by mallinfo(arena+hblkhd)
        164656 MiB available memory on the node where the printing process lives
------------------
     ethr =  1.00E-02,  avg # of iterations =  2.0

     total cpu time spent up to now is        1.7 secs

     total energy              =   -3510.57949951 Ry
     estimated scf accuracy    <       2.02053644 Ry

     iteration #  2     ecut=    30.00 Ry     beta= 0.70
     Davidson diagonalization with overlap

---- Real-time Memory Report at c_bands before calling an iterative solver
           182 MiB given to the printing process from OS
             0 MiB allocation reported by mallinfo(arena+hblkhd)
        164245 MiB available memory on the node where the printing process lives
------------------
     ethr =  2.25E-03,  avg # of iterations =  8.0

     total cpu time spent up to now is        2.0 secs

     total energy              =   -3499.82774250 Ry
     estimated scf accuracy    <     357.23649537 Ry

     iteration #  3     ecut=    30.00 Ry     beta= 0.70
     Davidson diagonalization with overlap

---- Real-time Memory Report at c_bands before calling an iterative solver
           184 MiB given to the printing process from OS
             0 MiB allocation reported by mallinfo(arena+hblkhd)
        164240 MiB available memory on the node where the printing process lives
------------------
     ethr =  2.25E-03,  avg # of iterations = 10.0

     total cpu time spent up to now is        2.4 secs

     total energy              =   -3512.23520315 Ry
     estimated scf accuracy    <       1.52147189 Ry

     iteration #  4     ecut=    30.00 Ry     beta= 0.70
     Davidson diagonalization with overlap

---- Real-time Memory Report at c_bands before calling an iterative solver
           185 MiB given to the printing process from OS
             0 MiB allocation reported by mallinfo(arena+hblkhd)
        164239 MiB available memory on the node where the printing process lives
------------------
     ethr =  1.69E-03,  avg # of iterations =  2.0

     total cpu time spent up to now is        2.7 secs

     total energy              =   -3512.33349513 Ry
     estimated scf accuracy    <       0.62533447 Ry

     iteration #  5     ecut=    30.00 Ry     beta= 0.70
     Davidson diagonalization with overlap

---- Real-time Memory Report at c_bands before calling an iterative solver
           186 MiB given to the printing process from OS
             0 MiB allocation reported by mallinfo(arena+hblkhd)
        164238 MiB available memory on the node where the printing process lives
------------------
     ethr =  6.95E-04,  avg # of iterations =  6.0

     total cpu time spent up to now is        3.0 secs

     total energy              =   -3512.24548002 Ry
     estimated scf accuracy    <       1.15015532 Ry

     iteration #  6     ecut=    30.00 Ry     beta= 0.70
     Davidson diagonalization with overlap

---- Real-time Memory Report at c_bands before calling an iterative solver
           186 MiB given to the printing process from OS
             0 MiB allocation reported by mallinfo(arena+hblkhd)
        164236 MiB available memory on the node where the printing process lives
------------------
     ethr =  6.95E-04,  avg # of iterations =  2.0

     total cpu time spent up to now is        3.3 secs

     total energy              =   -3512.20314662 Ry
     estimated scf accuracy    <       0.46118738 Ry

     iteration #  7     ecut=    30.00 Ry     beta= 0.70
     Davidson diagonalization with overlap

---- Real-time Memory Report at c_bands before calling an iterative solver
           186 MiB given to the printing process from OS
             0 MiB allocation reported by mallinfo(arena+hblkhd)
        164235 MiB available memory on the node where the printing process lives
------------------
     ethr =  5.12E-04,  avg # of iterations =  2.0

     total cpu time spent up to now is        3.6 secs

     total energy              =   -3512.19380439 Ry
     estimated scf accuracy    <       0.34886592 Ry

     iteration #  8     ecut=    30.00 Ry     beta= 0.70
     Davidson diagonalization with overlap

---- Real-time Memory Report at c_bands before calling an iterative solver
           187 MiB given to the printing process from OS
             0 MiB allocation reported by mallinfo(arena+hblkhd)
        164235 MiB available memory on the node where the printing process lives
------------------
     ethr =  3.88E-04,  avg # of iterations =  6.0

     total cpu time spent up to now is        3.9 secs

     total energy              =   -3512.20590210 Ry
     estimated scf accuracy    <       0.22055960 Ry

     iteration #  9     ecut=    30.00 Ry     beta= 0.70
     Davidson diagonalization with overlap

---- Real-time Memory Report at c_bands before calling an iterative solver
           187 MiB given to the printing process from OS
             0 MiB allocation reported by mallinfo(arena+hblkhd)
        164235 MiB available memory on the node where the printing process lives
------------------
     ethr =  2.45E-04,  avg # of iterations =  3.0

     total cpu time spent up to now is        4.2 secs

     total energy              =   -3512.20631723 Ry
     estimated scf accuracy    <       0.12334744 Ry

     iteration # 10     ecut=    30.00 Ry     beta= 0.70
     Davidson diagonalization with overlap

---- Real-time Memory Report at c_bands before calling an iterative solver
           188 MiB given to the printing process from OS
             0 MiB allocation reported by mallinfo(arena+hblkhd)
        164235 MiB available memory on the node where the printing process lives
------------------
     ethr =  1.37E-04,  avg # of iterations = 10.0

     total cpu time spent up to now is        4.5 secs

     total energy              =   -3512.20756018 Ry
     estimated scf accuracy    <       0.07233557 Ry

     iteration # 11     ecut=    30.00 Ry     beta= 0.70
     Davidson diagonalization with overlap

---- Real-time Memory Report at c_bands before calling an iterative solver
           188 MiB given to the printing process from OS
             0 MiB allocation reported by mallinfo(arena+hblkhd)
        164235 MiB available memory on the node where the printing process lives
------------------
     ethr =  8.04E-05,  avg # of iterations =  2.0

     total cpu time spent up to now is        4.8 secs

     total energy              =   -3512.19519557 Ry
     estimated scf accuracy    <       0.06221962 Ry

     iteration # 12     ecut=    30.00 Ry     beta= 0.70
     Davidson diagonalization with overlap

---- Real-time Memory Report at c_bands before calling an iterative solver
           188 MiB given to the printing process from OS
             0 MiB allocation reported by mallinfo(arena+hblkhd)
        164236 MiB available memory on the node where the printing process lives
------------------
     ethr =  6.91E-05,  avg # of iterations =  6.0

     total cpu time spent up to now is        5.1 secs

     total energy              =   -3512.20059144 Ry
     estimated scf accuracy    <       0.10716684 Ry

     iteration # 13     ecut=    30.00 Ry     beta= 0.70
     Davidson diagonalization with overlap

---- Real-time Memory Report at c_bands before calling an iterative solver
           188 MiB given to the printing process from OS
             0 MiB allocation reported by mallinfo(arena+hblkhd)
        164236 MiB available memory on the node where the printing process lives
------------------
     ethr =  6.91E-05,  avg # of iterations =  2.0

     total cpu time spent up to now is        5.4 secs

     total energy              =   -3512.19974502 Ry
     estimated scf accuracy    <       0.04317496 Ry

     iteration # 14     ecut=    30.00 Ry     beta= 0.70
     Davidson diagonalization with overlap

---- Real-time Memory Report at c_bands before calling an iterative solver
           188 MiB given to the printing process from OS
             0 MiB allocation reported by mallinfo(arena+hblkhd)
        164236 MiB available memory on the node where the printing process lives
------------------
     ethr =  4.80E-05,  avg # of iterations =  5.0

     total cpu time spent up to now is        5.8 secs

     total energy              =   -3512.20154802 Ry
     estimated scf accuracy    <       0.00740846 Ry

     iteration # 15     ecut=    30.00 Ry     beta= 0.70
     Davidson diagonalization with overlap

---- Real-time Memory Report at c_bands before calling an iterative solver
           189 MiB given to the printing process from OS
             0 MiB allocation reported by mallinfo(arena+hblkhd)
        164236 MiB available memory on the node where the printing process lives
------------------
     ethr =  8.23E-06,  avg # of iterations = 17.0

     total cpu time spent up to now is        6.1 secs

     total energy              =   -3512.20284006 Ry
     estimated scf accuracy    <       0.02393002 Ry

     iteration # 16     ecut=    30.00 Ry     beta= 0.70
     Davidson diagonalization with overlap

---- Real-time Memory Report at c_bands before calling an iterative solver
           189 MiB given to the printing process from OS
             0 MiB allocation reported by mallinfo(arena+hblkhd)
        164236 MiB available memory on the node where the printing process lives
------------------
     ethr =  8.23E-06,  avg # of iterations =  2.0

     total cpu time spent up to now is        6.4 secs

     total energy              =   -3512.20329103 Ry
     estimated scf accuracy    <       0.00190566 Ry

     iteration # 17     ecut=    30.00 Ry     beta= 0.70
     Davidson diagonalization with overlap

---- Real-time Memory Report at c_bands before calling an iterative solver
           189 MiB given to the printing process from OS
             0 MiB allocation reported by mallinfo(arena+hblkhd)
        164236 MiB available memory on the node where the printing process lives
------------------
     c_bands:  1 eigenvalues not converged
     ethr =  2.12E-06,  avg # of iterations = 20.0

     total cpu time spent up to now is        6.8 secs

     total energy              =   -3512.20353115 Ry
     estimated scf accuracy    <       0.00081110 Ry

     iteration # 18     ecut=    30.00 Ry     beta= 0.70
     Davidson diagonalization with overlap

---- Real-time Memory Report at c_bands before calling an iterative solver
           189 MiB given to the printing process from OS
             0 MiB allocation reported by mallinfo(arena+hblkhd)
        164236 MiB available memory on the node where the printing process lives
------------------
     ethr =  9.01E-07,  avg # of iterations =  2.0

     total cpu time spent up to now is        7.1 secs

     total energy              =   -3512.20357408 Ry
     estimated scf accuracy    <       0.00034671 Ry

     iteration # 19     ecut=    30.00 Ry     beta= 0.70
     Davidson diagonalization with overlap

---- Real-time Memory Report at c_bands before calling an iterative solver
           189 MiB given to the printing process from OS
             0 MiB allocation reported by mallinfo(arena+hblkhd)
        164236 MiB available memory on the node where the printing process lives
------------------
     ethr =  3.85E-07,  avg # of iterations =  7.0

     total cpu time spent up to now is        7.4 secs

     total energy              =   -3512.20359889 Ry
     estimated scf accuracy    <       0.00013343 Ry

     iteration # 20     ecut=    30.00 Ry     beta= 0.70
     Davidson diagonalization with overlap

---- Real-time Memory Report at c_bands before calling an iterative solver
           189 MiB given to the printing process from OS
             0 MiB allocation reported by mallinfo(arena+hblkhd)
        164236 MiB available memory on the node where the printing process lives
------------------
     ethr =  1.48E-07,  avg # of iterations =  7.0

     total cpu time spent up to now is        7.7 secs

     total energy              =   -3512.20361072 Ry
     estimated scf accuracy    <       0.00006744 Ry

     iteration # 21     ecut=    30.00 Ry     beta= 0.70
     Davidson diagonalization with overlap

---- Real-time Memory Report at c_bands before calling an iterative solver
           189 MiB given to the printing process from OS
             0 MiB allocation reported by mallinfo(arena+hblkhd)
        164236 MiB available memory on the node where the printing process lives
------------------
     ethr =  7.49E-08,  avg # of iterations =  6.0

     total cpu time spent up to now is        8.0 secs

     total energy              =   -3512.20361748 Ry
     estimated scf accuracy    <       0.00004587 Ry

     iteration # 22     ecut=    30.00 Ry     beta= 0.70
     Davidson diagonalization with overlap

---- Real-time Memory Report at c_bands before calling an iterative solver
           189 MiB given to the printing process from OS
             0 MiB allocation reported by mallinfo(arena+hblkhd)
        164238 MiB available memory on the node where the printing process lives
------------------
     ethr =  5.10E-08,  avg # of iterations =  6.0

     total cpu time spent up to now is        8.3 secs

     total energy              =   -3512.20362513 Ry
     estimated scf accuracy    <       0.00000119 Ry

     iteration # 23     ecut=    30.00 Ry     beta= 0.70
     Davidson diagonalization with overlap

---- Real-time Memory Report at c_bands before calling an iterative solver
           189 MiB given to the printing process from OS
             0 MiB allocation reported by mallinfo(arena+hblkhd)
        164238 MiB available memory on the node where the printing process lives
------------------
     ethr =  1.32E-09,  avg # of iterations =  9.0

     total cpu time spent up to now is        8.7 secs

     End of self-consistent calculation

          k = 0.0000 0.0000 0.0000 (  1354 PWs)   bands (ev):

  -100.0714-100.0709 -57.5154 -57.5154 -57.5148 -57.5147 -57.2938 -57.2926
   -20.8259 -20.7663  -4.4100  -4.0747  -4.0747  -4.0180  -4.0180  -3.7449
    -3.7211  -3.7210  -3.6793  -3.6793  -3.6336  -3.5128  -3.2745  -3.2745
    -3.2606  -3.2606   3.1998   4.6225   9.1518   9.2653   9.2653   9.5443
     9.5443   9.8012   9.8270   9.8270   9.9850   9.9850  10.1834  11.7995
    11.7995  13.0027  13.3869  13.3870  13.4183  13.8205  13.8918  13.8918
    14.1652  14.1989  14.2472  14.2473  14.5410  14.5435

     occupation numbers 
     1.0000   1.0000   1.0000   1.0000   1.0000   1.0000   1.0000   1.0000
     1.0000   1.0000   1.0000   1.0000   1.0000   1.0000   1.0000   1.0000
     1.0000   1.0000   1.0000   1.0000   1.0000   1.0000   1.0000   1.0000
     1.0000   1.0000   1.0000   1.0000   1.0000   1.0000   1.0000   1.0000
     1.0000   1.0000   1.0000   1.0000   1.0000   1.0000   1.0000   1.0000
     1.0000   1.0000   1.0000   1.0000   1.0000  -0.0000  -0.0000  -0.0000
    -0.0000  -0.0000  -0.0000  -0.0000  -0.0000  -0.0000

     the Fermi energy is    13.5576 ev

!    total energy              =   -3512.20362641 Ry
     estimated scf accuracy    <       0.00000081 Ry
     smearing contrib. (-TS)   =       0.00000000 Ry
     internal energy E=F+TS    =   -3512.20362641 Ry

     The total energy is F=E-TS. E is the sum of the following terms:
     one-electron contribution =    -792.50047540 Ry
     hartree contribution      =     457.79811429 Ry
     xc contribution           =    -187.12540069 Ry
     ewald contribution        =    -716.62639201 Ry
     one-center paw contrib.   =   -2273.74947260 Ry
      -> PAW hartree energy AE =      44.86178013 Ry
      -> PAW hartree energy PS =     -44.57142874 Ry
      -> PAW xc energy AE      =    -417.32516807 Ry
      -> PAW xc energy PS      =       8.65337127 Ry
      -> total E_H with PAW    =     458.08846568 Ry
      -> total E_XC with PAW   =    -595.79719748 Ry

     convergence has been achieved in  23 iterations

     Forces acting on atoms (cartesian axes, Ry/au):

     atom    1 type  1   force =     0.00000000    0.00000000   -0.00889625
     atom    2 type  1   force =     0.00000000    0.00000000   -0.00889625
     atom    3 type  2   force =     0.00000000    0.00000000    0.01234841
     atom    4 type  2   force =     0.00000000    0.00000000    0.01234841
     atom    5 type  3   force =     0.00000000   -0.00000000   -0.00345216
     atom    6 type  3   force =     0.00000000    0.00000000   -0.00345216
     The non-local contrib.  to forces
     atom    1 type  1   force =     0.00000000   -0.00000000    0.01718329
     atom    2 type  1   force =    -0.00000000   -0.00000000    0.01718329
     atom    3 type  2   force =     0.00000000    0.00000000   -0.07664955
     atom    4 type  2   force =     0.00000000   -0.00000000   -0.07664955
     atom    5 type  3   force =     0.00000000    0.00000000   -0.01662845
     atom    6 type  3   force =    -0.00000000   -0.00000000   -0.01662845
     The ionic contribution  to forces
     atom    1 type  1   force =    -0.00001044    0.00000603    2.10390846
     atom    2 type  1   force =     0.00001044   -0.00000603    2.10390846
     atom    3 type  2   force =    -0.00009358    0.00005403   -1.70661106
     atom    4 type  2   force =     0.00009358   -0.00005403   -1.70661106
     atom    5 type  3   force =    -0.00008567    0.00004946   -0.39729741
     atom    6 type  3   force =     0.00008567   -0.00004946   -0.39729741
     The local contribution  to forces
     atom    1 type  1   force =    -0.00031773   -0.00130215   -2.13116307
     atom    2 type  1   force =    -0.00020953   -0.00151317   -2.12912170
     atom    3 type  2   force =     0.00013929    0.00112825    1.79570720
     atom    4 type  2   force =     0.00022477    0.00107075    1.79652190
     atom    5 type  3   force =     0.00011921    0.00047111    0.41076512
     atom    6 type  3   force =     0.00015517    0.00059890    0.40886746
     The core correction contribution to forces
     atom    1 type  1   force =    -0.00000018   -0.00000072   -0.00001883
     atom    2 type  1   force =    -0.00000011   -0.00000088   -0.00001826
     atom    3 type  2   force =    -0.00000001    0.00000031    0.00007558
     atom    4 type  2   force =    -0.00000026   -0.00000005    0.00007576
     atom    5 type  3   force =     0.00000029    0.00001094    0.00047423
     atom    6 type  3   force =     0.00000707    0.00001447    0.00044134
     The Hubbard contrib.    to forces
     atom    1 type  1   force =     0.00000000    0.00000000    0.00000000
     atom    2 type  1   force =     0.00000000    0.00000000    0.00000000
     atom    3 type  2   force =     0.00000000    0.00000000    0.00000000
     atom    4 type  2   force =     0.00000000    0.00000000    0.00000000
     atom    5 type  3   force =     0.00000000    0.00000000    0.00000000
     atom    6 type  3   force =     0.00000000    0.00000000    0.00000000
     The SCF correction term to forces
     atom    1 type  1   force =     0.00020032    0.00077069    0.00086895
     atom    2 type  1   force =     0.00011058    0.00087933   -0.00085190
     atom    3 type  2   force =     0.00004628   -0.00125669   -0.00040424
     atom    4 type  2   force =    -0.00041404   -0.00109432   -0.00108700
     atom    5 type  3   force =    -0.00005240   -0.00043868   -0.00099568
     atom    6 type  3   force =    -0.00027567   -0.00056662    0.00106610

     Total force =     0.022070     Total SCF correction =     0.003149
     SCF correction compared to forces is large: reduce conv_thr to get better values


     Computing stress (Cartesian axis) and pressure

          total   stress  (Ry/bohr**3)                   (kbar)     P=     -201.76
  -0.00060123  -0.00000000   0.00000000          -88.44       -0.00        0.00
  -0.00000000  -0.00060123   0.00000000           -0.00      -88.44        0.00
   0.00000000  -0.00000000  -0.00291212            0.00       -0.00     -428.39

     kinetic stress (kbar)  19154.14      0.00      0.00
                                0.00  19154.14      0.00
                                0.00      0.00  18933.82

     local   stress (kbar) -15025.25     -0.08      0.11
                               -0.08 -15025.42      0.08
                                0.11      0.08    560.23

     nonloc. stress (kbar)  10783.84      0.00      0.00
                                0.00  10783.84      0.00
                               -0.00      0.00  10728.09

     hartree stress (kbar)  25131.24      0.03     -0.02
                                0.03  25131.30     -0.01
                               -0.02     -0.01  19065.66

     exc-cor stress (kbar)   1658.97     -0.00     -0.00
                               -0.00   1658.97     -0.00
                               -0.00     -0.00   1653.28

     corecor stress (kbar)  -8809.49      0.00      0.00
                                0.00  -8809.49      0.00
                                0.00      0.00  -8808.41

     ewald   stress (kbar) -32981.86      0.05     -0.00
                                0.05 -32981.81      0.00
                               -0.00      0.00 -42561.06

     hubbard stress (kbar)      0.00      0.00      0.00
                                0.00      0.00      0.00
                                0.00      0.00      0.00

     DFT-D   stress (kbar)      0.00      0.00      0.00
                                0.00      0.00      0.00
                                0.00      0.00      0.00

     XDM     stress (kbar)      0.00      0.00      0.00
                                0.00      0.00      0.00
                                0.00      0.00      0.00

     dft-nl  stress (kbar)      0.00      0.00      0.00
                                0.00      0.00      0.00
                                0.00      0.00      0.00

     TS-vdW  stress (kbar)      0.00      0.00      0.00
                                0.00      0.00      0.00
                                0.00      0.00      0.00


                                0.00      0.00      0.00
                                0.00      0.00      0.00


                                0.00      0.00      0.00


     Writing all to output data dir calculations/myprefix.save/
 
     init_run     :      0.82s CPU      0.86s WALL (       1 calls)
     electrons    :      7.23s CPU      7.37s WALL (       1 calls)
     forces       :      0.07s CPU      0.07s WALL (       1 calls)
     stress       :      0.20s CPU      0.20s WALL (       1 calls)

     Called by init_run:
     wfcinit      :      0.02s CPU      0.03s WALL (       1 calls)
     wfcinit:atom :      0.00s CPU      0.00s WALL (       1 calls)
     wfcinit:wfcr :      0.02s CPU      0.03s WALL (       1 calls)
     potinit      :      0.41s CPU      0.42s WALL (       1 calls)
     hinit0       :      0.34s CPU      0.35s WALL (       1 calls)

     Called by electrons:
     c_bands      :      0.98s CPU      1.00s WALL (      23 calls)
     sum_band     :      0.56s CPU      0.58s WALL (      23 calls)
     v_of_rho     :      0.07s CPU      0.08s WALL (      24 calls)
     v_h          :      0.00s CPU      0.01s WALL (      24 calls)
     v_xc         :      0.07s CPU      0.08s WALL (      26 calls)
     newd         :      0.47s CPU      0.48s WALL (      24 calls)
     PAW_pot      :      5.35s CPU      5.37s WALL (      24 calls)
     mix_rho      :      0.03s CPU      0.03s WALL (      23 calls)

     Called by c_bands:
     init_us_2    :      0.00s CPU      0.00s WALL (      47 calls)
     init_us_2:cp :      0.00s CPU      0.00s WALL (      47 calls)
     regterg      :      0.96s CPU      0.98s WALL (      23 calls)

     Called by sum_band:
     sum_band:wei :      0.00s CPU      0.00s WALL (      23 calls)
     sum_band:loo :      0.03s CPU      0.04s WALL (      23 calls)
     sum_band:buf :      0.00s CPU      0.00s WALL (      23 calls)
     sum_band:ini :      0.00s CPU      0.00s WALL (      23 calls)
     sum_band:cal :      0.01s CPU      0.01s WALL (      23 calls)
     sum_band:bec :      0.00s CPU      0.00s WALL (      23 calls)
     addusdens    :      0.43s CPU      0.44s WALL (      23 calls)
     addusd:skk   :      0.00s CPU      0.00s WALL (      69 calls)
     addusd:dgemm :      0.09s CPU      0.10s WALL (      69 calls)
     addusd:qvan2 :      0.32s CPU      0.32s WALL (      69 calls)

     Called by *egterg:
     rdiaghg      :      0.65s CPU      0.66s WALL (     165 calls)
     regterg:over :      0.06s CPU      0.07s WALL (     142 calls)
     regterg:upda :      0.02s CPU      0.02s WALL (     142 calls)
     regterg:last :      0.04s CPU      0.04s WALL (      56 calls)
     rdiaghg:chol :      0.03s CPU      0.03s WALL (     165 calls)
     rdiaghg:inve :      0.01s CPU      0.01s WALL (     165 calls)
     rdiaghg:para :      0.04s CPU      0.05s WALL (     330 calls)
     h_psi        :      0.18s CPU      0.20s WALL (     166 calls)
     s_psi        :      0.00s CPU      0.00s WALL (     166 calls)
     g_psi        :      0.00s CPU      0.00s WALL (     142 calls)

     Called by h_psi:
     h_psi:calbec :      0.03s CPU      0.03s WALL (     166 calls)
     vloc_psi     :      0.15s CPU      0.16s WALL (     166 calls)
     add_vuspsi   :      0.00s CPU      0.01s WALL (     166 calls)

     General routines
     calbec       :      0.03s CPU      0.04s WALL (     194 calls)
     fft          :      0.34s CPU      0.34s WALL (     282 calls)
     ffts         :      0.16s CPU      0.16s WALL (      47 calls)
     fftw         :      0.16s CPU      0.17s WALL (    4031 calls)
     interpolate  :      0.16s CPU      0.16s WALL (      24 calls)
 
     Parallel routines

     PAW routines
     PAW_pot      :      5.35s CPU      5.37s WALL (      24 calls)
     PAW_symme    :      0.03s CPU      0.03s WALL (      47 calls)
 
     PWSCF        :      8.78s CPU      9.40s WALL

 
   This run was terminated on:  13: 2: 1   6Mar2023            

=------------------------------------------------------------------------------=
   JOB DONE.
=------------------------------------------------------------------------------=
