
     Program PWSCF v.7.0 starts on  6Mar2023 at  8:43:11 

     This program is part of the open-source Quantum ESPRESSO suite
     for quantum simulation of materials; please cite
         "P. Giannozzi et al., J. Phys.:Condens. Matter 21 395502 (2009);
         "P. Giannozzi et al., J. Phys.:Condens. Matter 29 465901 (2017);
         "P. Giannozzi et al., J. Chem. Phys. 152 154105 (2020);
          URL http://www.quantum-espresso.org", 
     in publications or presentations arising from this work. More details at
     http://www.quantum-espresso.org/quote

     Parallel version (MPI & OpenMP), running on      32 processor cores
     Number of MPI processes:                32
     Threads/MPI process:                     1

     MPI processes distributed on     1 nodes
     R & G space division:  proc/nbgrp/npool/nimage =      32
     166140 MiB available memory on the printing compute node when the environment starts
 
     Reading input from espresso_4016.pwi
Warning: card &CELL ignored
Warning: card / ignored

     Current dimensions of program PWSCF are:
     Max number of different atomic species (ntypx) = 10
     Max number of k-points (npk) =  40000
     Max angular momentum in pseudopotentials (lmaxx) =  4

     gamma-point specific algorithms are used
     Message from routine setup:
     using ibrav=0 with symmetry is DISCOURAGED, use correct ibrav instead

     Subspace diagonalization in iterative solution of the eigenvalue problem:
     one sub-group per band group will be used
     scalapack distributed-memory algorithm (size of sub-group:  5*  5 procs)

 
     Parallelization info
     --------------------
     sticks:   dense  smooth     PW     G-vecs:    dense   smooth      PW
     Min          34      16      3                 1452      508      61
     Max          36      18      6                 1464      522      70
     Sum        1105     549    143                46659    16497    2085
 
     Using Slab Decomposition
 


     bravais-lattice index     =            0
     lattice parameter (alat)  =       9.4886  a.u.
     unit-cell volume          =     743.8517 (a.u.)^3
     number of atoms/cell      =            6
     number of atomic types    =            2
     number of electrons       =        46.00
     number of Kohn-Sham states=           28
     kinetic-energy cutoff     =      30.0000  Ry
     charge density cutoff     =     240.0000  Ry
     scf convergence threshold =      1.0E-06
     mixing beta               =       0.7000
     number of iterations used =            8  plain     mixing
     Exchange-correlation= PBE
                           (   1   4   3   4   0   0   0)

     celldm(1)=   9.488602  celldm(2)=   0.000000  celldm(3)=   0.000000
     celldm(4)=   0.000000  celldm(5)=   0.000000  celldm(6)=   0.000000

     crystal axes: (cart. coord. in units of alat)
               a(1) = (   1.000000   0.000000   0.000000 )  
               a(2) = (   0.767233   0.641369   0.000000 )  
               a(3) = (   0.727954   0.264191   1.357600 )  

     reciprocal axes: (cart. coord. in units 2 pi/alat)
               b(1) = (  1.000000 -1.196242 -0.303416 )  
               b(2) = (  0.000000  1.559165 -0.303416 )  
               b(3) = (  0.000000  0.000000  0.736594 )  


     PseudoPot. # 1 for Ta read from file:
     /home/pragov/projects/rrg-bengioy-ad/pragov/crystal_structure_design/SSSP/Ta_pbe_v1.uspp.F.UPF
     MD5 check sum: f8bbe9446314a3b8ea5d9f3e3836c939
     Pseudo is Ultrasoft + core correction, Zval = 13.0
     Generated by new atomic code, or converted to UPF format
     Using radial grid of  921 points,  7 beta functions with: 
                l(1) =   0
                l(2) =   0
                l(3) =   1
                l(4) =   1
                l(5) =   2
                l(6) =   2
                l(7) =   3
     Q(r) pseudized with  6 coefficients,  rinner =    1.300   1.300   1.300
                                                       1.300   1.300   1.300
                                                       1.300

     PseudoPot. # 2 for As read from file:
     /home/pragov/projects/rrg-bengioy-ad/pragov/crystal_structure_design/SSSP/As.pbe-n-rrkjus_psl.0.2.UPF
     MD5 check sum: 767315de957beeeb34f87d97bf945c8f
     Pseudo is Ultrasoft + core correction, Zval =  5.0
     Generated using "atomic" code by A. Dal Corso  v.5.0.99 svn rev. 10869
     Using radial grid of 1209 points,  4 beta functions with: 
                l(1) =   0
                l(2) =   0
                l(3) =   1
                l(4) =   1
     Q(r) pseudized with 0 coefficients 


     atomic species   valence    mass     pseudopotential
        Ta            13.00   180.94788     Ta( 1.00)
        As             5.00    74.92159     As( 1.00)

      2 Sym. Ops., with inversion, found


                                    s                        frac. trans.

      isym =  1     identity                                     

 cryst.   s( 1) = (     1          0          0      )
                  (     0          1          0      )
                  (     0          0          1      )

 cart.    s( 1) = (  1.0000000  0.0000000 -0.0000000 )
                  (  0.0000000  1.0000000 -0.0000000 )
                  (  0.0000000  0.0000000  1.0000000 )


      isym =  2     inversion                                    

 cryst.   s( 2) = (    -1          0          0      )
                  (     0         -1          0      )
                  (     0          0         -1      )

 cart.    s( 2) = ( -1.0000000 -0.0000000  0.0000000 )
                  (  0.0000000 -1.0000000  0.0000000 )
                  (  0.0000000  0.0000000 -1.0000000 )


   Cartesian axes

     site n.     atom                  positions (alat units)
         1           Ta  tau(   1) = (   1.6321619   0.5923488   0.2652478  )
         2           Ta  tau(   2) = (   0.8630244   0.3132113   1.0923519  )
         3           As  tau(   3) = (   0.5923513   0.2149778   0.6412446  )
         4           As  tau(   4) = (   1.9028350   0.6905823   0.7163551  )
         5           As  tau(   5) = (   1.1286748   0.4096219   0.1461524  )
         6           As  tau(   6) = (   1.3665115   0.4959382   1.2114473  )

   Crystallographic axes

     site n.     atom                  positions (cryst. coord.)
         1           Ta  tau(   1) = (  0.8430890  0.8430890  0.1953800  )
         2           Ta  tau(   2) = (  0.1569110  0.1569110  0.8046200  )
         3           As  tau(   3) = (  0.1406220  0.1406220  0.4723370  )
         4           As  tau(   4) = (  0.8593780  0.8593780  0.5276630  )
         5           As  tau(   5) = (  0.5943230  0.5943230  0.1076550  )
         6           As  tau(   6) = (  0.4056770  0.4056770  0.8923450  )

     number of k points=     1  Methfessel-Paxton smearing, width (Ry)=  0.0010
                       cart. coord. in units 2pi/alat
        k(    1) = (   0.0000000   0.0000000   0.0000000), wk =   2.0000000

                       cryst. coord.
        k(    1) = (   0.0000000   0.0000000   0.0000000), wk =   2.0000000

     Dense  grid:    23330 G-vectors     FFT dimensions: (  48,  48,  75)

     Smooth grid:     8249 G-vectors     FFT dimensions: (  36,  36,  54)

     Dynamical RAM for                 wfc:       0.01 MB

     Dynamical RAM for     wfc (w. buffer):       0.01 MB

     Dynamical RAM for           str. fact:       0.02 MB

     Dynamical RAM for           local pot:       0.00 MB

     Dynamical RAM for          nlocal pot:       0.04 MB

     Dynamical RAM for                qrad:       4.64 MB

     Dynamical RAM for          rho,v,vnew:       0.19 MB

     Dynamical RAM for               rhoin:       0.06 MB

     Dynamical RAM for            rho*nmix:       0.18 MB

     Dynamical RAM for           G-vectors:       0.04 MB

     Dynamical RAM for          h,s,v(r/c):       0.00 MB

     Dynamical RAM for          <psi|beta>:       0.02 MB

     Dynamical RAM for                 psi:       0.03 MB

     Dynamical RAM for                hpsi:       0.03 MB

     Dynamical RAM for                spsi:       0.03 MB

     Dynamical RAM for      wfcinit/wfcrot:       0.08 MB

     Dynamical RAM for           addusdens:       3.95 MB

     Dynamical RAM for          addusforce:       4.05 MB

     Dynamical RAM for         addusstress:       4.20 MB

     Estimated static dynamical RAM per process >       5.32 MB

     Estimated max dynamical RAM per process >       9.70 MB

     Estimated total dynamical RAM >     310.34 MB

     Initial potential from superposition of free atoms

     starting charge      45.9968, renormalised to      46.0000

     negative rho (up, down):  1.905E-01 0.000E+00
     Starting wfcs are   42 randomized atomic wfcs

     total cpu time spent up to now is        0.9 secs

     Self-consistent Calculation

     iteration #  1     ecut=    30.00 Ry     beta= 0.70
     Davidson diagonalization with overlap

---- Real-time Memory Report at c_bands before calling an iterative solver
           133 MiB given to the printing process from OS
             0 MiB allocation reported by mallinfo(arena+hblkhd)
        165343 MiB available memory on the node where the printing process lives
------------------
     ethr =  1.00E-02,  avg # of iterations =  2.0

     Threshold (ethr) on eigenvalues was too large:
     Diagonalizing with lowered threshold

     Davidson diagonalization with overlap

---- Real-time Memory Report at c_bands before calling an iterative solver
           142 MiB given to the printing process from OS
             0 MiB allocation reported by mallinfo(arena+hblkhd)
        165116 MiB available memory on the node where the printing process lives
------------------
     ethr =  9.17E-04,  avg # of iterations =  2.0

     negative rho (up, down):  1.918E-01 0.000E+00

     total cpu time spent up to now is        1.0 secs

     total energy              =    -356.12612661 Ry
     estimated scf accuracy    <       0.42528767 Ry

     iteration #  2     ecut=    30.00 Ry     beta= 0.70
     Davidson diagonalization with overlap

---- Real-time Memory Report at c_bands before calling an iterative solver
           144 MiB given to the printing process from OS
             0 MiB allocation reported by mallinfo(arena+hblkhd)
        165111 MiB available memory on the node where the printing process lives
------------------
     ethr =  9.25E-04,  avg # of iterations =  4.0

     negative rho (up, down):  1.919E-01 0.000E+00

     total cpu time spent up to now is        1.0 secs

     total energy              =    -355.94495298 Ry
     estimated scf accuracy    <       1.84971427 Ry

     iteration #  3     ecut=    30.00 Ry     beta= 0.70
     Davidson diagonalization with overlap

---- Real-time Memory Report at c_bands before calling an iterative solver
           145 MiB given to the printing process from OS
             0 MiB allocation reported by mallinfo(arena+hblkhd)
        165107 MiB available memory on the node where the printing process lives
------------------
     ethr =  9.25E-04,  avg # of iterations =  4.0

     negative rho (up, down):  1.926E-01 0.000E+00

     total cpu time spent up to now is        1.1 secs

     total energy              =    -356.26644961 Ry
     estimated scf accuracy    <       0.17548075 Ry

     iteration #  4     ecut=    30.00 Ry     beta= 0.70
     Davidson diagonalization with overlap

---- Real-time Memory Report at c_bands before calling an iterative solver
           146 MiB given to the printing process from OS
             0 MiB allocation reported by mallinfo(arena+hblkhd)
        165107 MiB available memory on the node where the printing process lives
------------------
     ethr =  3.81E-04,  avg # of iterations =  3.0

     negative rho (up, down):  1.933E-01 0.000E+00

     total cpu time spent up to now is        1.1 secs

     total energy              =    -356.29251123 Ry
     estimated scf accuracy    <       0.02761409 Ry

     iteration #  5     ecut=    30.00 Ry     beta= 0.70
     Davidson diagonalization with overlap

---- Real-time Memory Report at c_bands before calling an iterative solver
           147 MiB given to the printing process from OS
             0 MiB allocation reported by mallinfo(arena+hblkhd)
        165107 MiB available memory on the node where the printing process lives
------------------
     ethr =  6.00E-05,  avg # of iterations =  4.0

     negative rho (up, down):  1.936E-01 0.000E+00

     total cpu time spent up to now is        1.1 secs

     total energy              =    -356.29742303 Ry
     estimated scf accuracy    <       0.00127338 Ry

     iteration #  6     ecut=    30.00 Ry     beta= 0.70
     Davidson diagonalization with overlap

---- Real-time Memory Report at c_bands before calling an iterative solver
           147 MiB given to the printing process from OS
             0 MiB allocation reported by mallinfo(arena+hblkhd)
        165107 MiB available memory on the node where the printing process lives
------------------
     ethr =  2.77E-06,  avg # of iterations =  4.0

     negative rho (up, down):  1.936E-01 0.000E+00

     total cpu time spent up to now is        1.2 secs

     total energy              =    -356.29764081 Ry
     estimated scf accuracy    <       0.00030119 Ry

     iteration #  7     ecut=    30.00 Ry     beta= 0.70
     Davidson diagonalization with overlap

---- Real-time Memory Report at c_bands before calling an iterative solver
           148 MiB given to the printing process from OS
             0 MiB allocation reported by mallinfo(arena+hblkhd)
        165107 MiB available memory on the node where the printing process lives
------------------
     ethr =  6.55E-07,  avg # of iterations =  8.0

     negative rho (up, down):  1.937E-01 0.000E+00

     total cpu time spent up to now is        1.2 secs

     total energy              =    -356.29763924 Ry
     estimated scf accuracy    <       0.00100976 Ry

     iteration #  8     ecut=    30.00 Ry     beta= 0.70
     Davidson diagonalization with overlap

---- Real-time Memory Report at c_bands before calling an iterative solver
           148 MiB given to the printing process from OS
             0 MiB allocation reported by mallinfo(arena+hblkhd)
        165107 MiB available memory on the node where the printing process lives
------------------
     ethr =  6.55E-07,  avg # of iterations =  3.0

     negative rho (up, down):  1.937E-01 0.000E+00

     total cpu time spent up to now is        1.3 secs

     total energy              =    -356.29773943 Ry
     estimated scf accuracy    <       0.00003419 Ry

     iteration #  9     ecut=    30.00 Ry     beta= 0.70
     Davidson diagonalization with overlap

---- Real-time Memory Report at c_bands before calling an iterative solver
           148 MiB given to the printing process from OS
             0 MiB allocation reported by mallinfo(arena+hblkhd)
        165107 MiB available memory on the node where the printing process lives
------------------
     ethr =  7.43E-08,  avg # of iterations =  4.0

     negative rho (up, down):  1.937E-01 0.000E+00

     total cpu time spent up to now is        1.3 secs

     total energy              =    -356.29774476 Ry
     estimated scf accuracy    <       0.00000521 Ry

     iteration # 10     ecut=    30.00 Ry     beta= 0.70
     Davidson diagonalization with overlap

---- Real-time Memory Report at c_bands before calling an iterative solver
           149 MiB given to the printing process from OS
             0 MiB allocation reported by mallinfo(arena+hblkhd)
        165107 MiB available memory on the node where the printing process lives
------------------
     ethr =  1.13E-08,  avg # of iterations =  2.0

     negative rho (up, down):  1.937E-01 0.000E+00

     total cpu time spent up to now is        1.4 secs

     End of self-consistent calculation

          k = 0.0000 0.0000 0.0000 (  1043 PWs)   bands (ev):

   -55.2256 -55.2130 -22.1420 -22.1206 -21.8047 -21.5455 -21.3479 -21.3219
    -1.8166   0.2149   1.8499   3.4767   6.1421   6.8653   7.7016   9.4629
    10.5075  10.5154  10.7270  10.8118  11.4647  11.5305  11.9929  13.4381
    13.6494  14.1421  15.2794  15.6008

     occupation numbers 
     1.0000   1.0000   1.0000   1.0000   1.0000   1.0000   1.0000   1.0000
     1.0000   1.0000   1.0000   1.0000   1.0000   1.0000   1.0000   1.0000
     1.0000   1.0000   1.0000   1.0000   1.0000   1.0000   1.0000  -0.0000
    -0.0000  -0.0000  -0.0000  -0.0000

     the Fermi energy is    12.4041 ev

!    total energy              =    -356.29774477 Ry
     estimated scf accuracy    <       0.00000087 Ry
     smearing contrib. (-TS)   =       0.00000000 Ry
     internal energy E=F+TS    =    -356.29774477 Ry

     The total energy is F=E-TS. E is the sum of the following terms:
     one-electron contribution =     -69.76970307 Ry
     hartree contribution      =      55.51303808 Ry
     xc contribution           =    -121.67403205 Ry
     ewald contribution        =    -220.36704773 Ry

     convergence has been achieved in  10 iterations

     negative rho (up, down):  1.937E-01 0.000E+00

     Forces acting on atoms (cartesian axes, Ry/au):

     atom    1 type  1   force =     0.08570583    0.03110485    0.00753787
     atom    2 type  1   force =    -0.08570583   -0.03110485   -0.00753787
     atom    3 type  2   force =     0.10422629    0.03782621   -0.03664089
     atom    4 type  2   force =    -0.10422629   -0.03782621    0.03664089
     atom    5 type  2   force =     0.01377490    0.00499920   -0.05670762
     atom    6 type  2   force =    -0.01377490   -0.00499920    0.05670762
     The non-local contrib.  to forces
     atom    1 type  1   force =     0.16674055    0.06051424    0.01479955
     atom    2 type  1   force =    -0.16674055   -0.06051424   -0.01479955
     atom    3 type  2   force =     0.08258395    0.02997163   -0.05624514
     atom    4 type  2   force =    -0.08258395   -0.02997163    0.05624514
     atom    5 type  2   force =     0.05641501    0.02047431   -0.02606535
     atom    6 type  2   force =    -0.05641501   -0.02047431    0.02606535
     The ionic contribution  to forces
     atom    1 type  1   force =    -2.22495792   -0.80748807    5.59542305
     atom    2 type  1   force =     2.22495792    0.80748807   -5.59542305
     atom    3 type  2   force =    -2.48019843   -0.90012068    1.03464773
     atom    4 type  2   force =     2.48019843    0.90012068   -1.03464773
     atom    5 type  2   force =     2.12942777    0.77281800    2.71468861
     atom    6 type  2   force =    -2.12942777   -0.77281800   -2.71468861
     The local contribution  to forces
     atom    1 type  1   force =     2.12809423    0.77233417   -5.60290490
     atom    2 type  1   force =    -2.12759335   -0.77215268    5.60090620
     atom    3 type  2   force =     2.50685843    0.90979626   -1.02280602
     atom    4 type  2   force =    -2.50690868   -0.90981450    1.02446355
     atom    5 type  2   force =    -2.15846270   -0.78335546   -2.74131395
     atom    6 type  2   force =     2.15849427    0.78336717    2.74019132
     The core correction contribution to forces
     atom    1 type  1   force =     0.01568182    0.00569133    0.00064001
     atom    2 type  1   force =    -0.01568023   -0.00569070   -0.00065979
     atom    3 type  2   force =    -0.00500956   -0.00181809    0.00858363
     atom    4 type  2   force =     0.00500500    0.00181640   -0.00856917
     atom    5 type  2   force =    -0.01356114   -0.00492164   -0.00433753
     atom    6 type  2   force =     0.01356438    0.00492286    0.00433134
     The Hubbard contrib.    to forces
     atom    1 type  1   force =     0.00000000    0.00000000    0.00000000
     atom    2 type  1   force =     0.00000000    0.00000000    0.00000000
     atom    3 type  2   force =     0.00000000    0.00000000    0.00000000
     atom    4 type  2   force =     0.00000000    0.00000000    0.00000000
     atom    5 type  2   force =     0.00000000    0.00000000    0.00000000
     atom    6 type  2   force =     0.00000000    0.00000000    0.00000000
     The SCF correction term to forces
     atom    1 type  1   force =     0.00015234    0.00005495   -0.00035321
     atom    2 type  1   force =    -0.00064440   -0.00023351    0.00250496
     atom    3 type  2   force =    -0.00002656   -0.00000969   -0.00077911
     atom    4 type  2   force =     0.00004447    0.00001606   -0.00080892
     atom    5 type  2   force =    -0.00002458   -0.00000883    0.00031094
     atom    6 type  2   force =     0.00002867    0.00001025    0.00079857

     Total force =     0.225552     Total SCF correction =     0.002983


     Computing stress (Cartesian axis) and pressure


     negative rho (up, down):  1.937E-01 0.000E+00
          total   stress  (Ry/bohr**3)                   (kbar)     P=       52.94
  -0.00032513  -0.00042080  -0.00014606          -47.83      -61.90      -21.49
  -0.00042080   0.00068163  -0.00005301          -61.90      100.27       -7.80
  -0.00014606  -0.00005301   0.00072314          -21.49       -7.80      106.38

     kinetic stress (kbar)  12914.07   -281.06   -196.91
                             -281.06  13586.50    -71.46
                             -196.91    -71.46  13469.34

     local   stress (kbar)  11757.73   2690.57   1781.23
                             2690.57   5320.60    646.45
                             1781.23    646.45   7535.75

     nonloc. stress (kbar)  -6264.90     26.77     77.50
                               26.77  -6328.94     28.13
                               77.50     28.13  -6347.36

     hartree stress (kbar)   2150.06  -1254.23   -748.39
                            -1254.23   5150.77   -271.61
                             -748.39   -271.61   3677.50

     exc-cor stress (kbar)  11924.47     -0.75     -3.38
                               -0.75  11926.26     -1.23
                               -3.38     -1.23  11931.51

     corecor stress (kbar) -16208.42      5.33      4.06
                                5.33 -16221.16      1.47
                                4.06      1.47 -16234.91

     ewald   stress (kbar) -16320.85  -1248.53   -935.60
                            -1248.53 -13333.76   -339.55
                             -935.60   -339.55 -13925.46

     hubbard stress (kbar)      0.00      0.00      0.00
                                0.00      0.00      0.00
                                0.00      0.00      0.00

     DFT-D   stress (kbar)      0.00      0.00      0.00
                                0.00      0.00      0.00
                                0.00      0.00      0.00

     XDM     stress (kbar)      0.00      0.00      0.00
                                0.00      0.00      0.00
                                0.00      0.00      0.00

     dft-nl  stress (kbar)      0.00      0.00      0.00
                                0.00      0.00      0.00
                                0.00      0.00      0.00

     TS-vdW  stress (kbar)      0.00      0.00      0.00
                                0.00      0.00      0.00
                                0.00      0.00      0.00


                                0.00      0.00      0.00
                                0.00      0.00      0.00


                                0.00      0.00      0.00


     Writing all to output data dir calculations/myprefix.save/
 
     init_run     :      0.64s CPU      0.69s WALL (       1 calls)
     electrons    :      0.42s CPU      0.45s WALL (       1 calls)
     forces       :      0.05s CPU      0.05s WALL (       1 calls)
     stress       :      0.12s CPU      0.12s WALL (       1 calls)

     Called by init_run:
     wfcinit      :      0.02s CPU      0.03s WALL (       1 calls)
     wfcinit:atom :      0.00s CPU      0.00s WALL (       1 calls)
     wfcinit:wfcr :      0.02s CPU      0.03s WALL (       1 calls)
     potinit      :      0.26s CPU      0.26s WALL (       1 calls)
     hinit0       :      0.35s CPU      0.37s WALL (       1 calls)

     Called by electrons:
     c_bands      :      0.22s CPU      0.23s WALL (      11 calls)
     sum_band     :      0.09s CPU      0.10s WALL (      11 calls)
     v_of_rho     :      0.04s CPU      0.04s WALL (      11 calls)
     v_h          :      0.00s CPU      0.00s WALL (      11 calls)
     v_xc         :      0.04s CPU      0.04s WALL (      13 calls)
     newd         :      0.07s CPU      0.08s WALL (      11 calls)
     mix_rho      :      0.01s CPU      0.01s WALL (      11 calls)

     Called by c_bands:
     init_us_2    :      0.00s CPU      0.00s WALL (      23 calls)
     init_us_2:cp :      0.00s CPU      0.00s WALL (      23 calls)
     regterg      :      0.22s CPU      0.23s WALL (      11 calls)

     Called by sum_band:
     sum_band:wei :      0.00s CPU      0.00s WALL (      11 calls)
     sum_band:loo :      0.01s CPU      0.02s WALL (      11 calls)
     sum_band:buf :      0.00s CPU      0.00s WALL (      11 calls)
     sum_band:ini :      0.00s CPU      0.00s WALL (      11 calls)
     sum_band:cal :      0.00s CPU      0.00s WALL (      11 calls)
     sum_band:bec :      0.00s CPU      0.00s WALL (      11 calls)
     addusdens    :      0.07s CPU      0.08s WALL (      11 calls)
     addusd:skk   :      0.00s CPU      0.00s WALL (      22 calls)
     addusd:dgemm :      0.02s CPU      0.02s WALL (      22 calls)
     addusd:qvan2 :      0.05s CPU      0.05s WALL (      22 calls)

     Called by *egterg:
     rdiaghg      :      0.14s CPU      0.15s WALL (      50 calls)
     regterg:over :      0.02s CPU      0.02s WALL (      40 calls)
     regterg:upda :      0.01s CPU      0.01s WALL (      40 calls)
     regterg:last :      0.01s CPU      0.01s WALL (      23 calls)
     rdiaghg:chol :      0.01s CPU      0.02s WALL (      50 calls)
     rdiaghg:inve :      0.00s CPU      0.00s WALL (      50 calls)
     rdiaghg:para :      0.01s CPU      0.01s WALL (     100 calls)
     h_psi        :      0.06s CPU      0.06s WALL (      52 calls)
     s_psi        :      0.00s CPU      0.00s WALL (      52 calls)
     g_psi        :      0.00s CPU      0.00s WALL (      40 calls)

     Called by h_psi:
     h_psi:calbec :      0.01s CPU      0.01s WALL (      52 calls)
     vloc_psi     :      0.05s CPU      0.05s WALL (      52 calls)
     add_vuspsi   :      0.00s CPU      0.00s WALL (      52 calls)

     General routines
     calbec       :      0.01s CPU      0.01s WALL (      68 calls)
     fft          :      0.30s CPU      0.31s WALL (     140 calls)
     ffts         :      0.24s CPU      0.24s WALL (      22 calls)
     fftw         :      0.05s CPU      0.06s WALL (     984 calls)
     interpolate  :      0.24s CPU      0.24s WALL (      11 calls)
 
     Parallel routines
 
     PWSCF        :      1.40s CPU      1.73s WALL

 
   This run was terminated on:   8:43:13   6Mar2023            

=------------------------------------------------------------------------------=
   JOB DONE.
=------------------------------------------------------------------------------=
