
     Program PWSCF v.7.0 starts on  4Mar2023 at 21:39:35 

     This program is part of the open-source Quantum ESPRESSO suite
     for quantum simulation of materials; please cite
         "P. Giannozzi et al., J. Phys.:Condens. Matter 21 395502 (2009);
         "P. Giannozzi et al., J. Phys.:Condens. Matter 29 465901 (2017);
         "P. Giannozzi et al., J. Chem. Phys. 152 154105 (2020);
          URL http://www.quantum-espresso.org", 
     in publications or presentations arising from this work. More details at
     http://www.quantum-espresso.org/quote

     Parallel version (MPI & OpenMP), running on      32 processor cores
     Number of MPI processes:                32
     Threads/MPI process:                     1

     MPI processes distributed on     1 nodes
     R & G space division:  proc/nbgrp/npool/nimage =      32
     167176 MiB available memory on the printing compute node when the environment starts
 
     Reading input from espresso_7775.pwi
Warning: card &CELL ignored
Warning: card / ignored

     Current dimensions of program PWSCF are:
     Max number of different atomic species (ntypx) = 10
     Max number of k-points (npk) =  40000
     Max angular momentum in pseudopotentials (lmaxx) =  4

     gamma-point specific algorithms are used
     Message from routine setup:
     using ibrav=0 with symmetry is DISCOURAGED, use correct ibrav instead

     Subspace diagonalization in iterative solution of the eigenvalue problem:
     one sub-group per band group will be used
     scalapack distributed-memory algorithm (size of sub-group:  5*  5 procs)

 
     Parallelization info
     --------------------
     sticks:   dense  smooth     PW     G-vecs:    dense   smooth      PW
     Min          68      34      7                 2678      946     116
     Max          70      36     10                 2692      954     122
     Sum        2233    1123    283                85995    30399    3803
 
     Using Slab Decomposition
 


     bravais-lattice index     =            0
     lattice parameter (alat)  =      11.6074  a.u.
     unit-cell volume          =    1368.5637 (a.u.)^3
     number of atoms/cell      =            8
     number of atomic types    =            2
     number of electrons       =        72.00
     number of Kohn-Sham states=           43
     kinetic-energy cutoff     =      30.0000  Ry
     charge density cutoff     =     240.0000  Ry
     scf convergence threshold =      1.0E-06
     mixing beta               =       0.7000
     number of iterations used =            8  plain     mixing
     Exchange-correlation=  SLA  PW   PBX  PBC
                           (   1   4   3   4   0   0   0)

     celldm(1)=  11.607401  celldm(2)=   0.000000  celldm(3)=   0.000000
     celldm(4)=   0.000000  celldm(5)=   0.000000  celldm(6)=   0.000000

     crystal axes: (cart. coord. in units of alat)
               a(1) = (   1.000000   0.000000   0.000000 )  
               a(2) = (  -0.499698   0.866200   0.000000 )  
               a(3) = (   0.161611   0.279806   1.010280 )  

     reciprocal axes: (cart. coord. in units 2 pi/alat)
               b(1) = (  1.000000  0.576885 -0.319740 )  
               b(2) = (  0.000000  1.154468 -0.319740 )  
               b(3) = (  0.000000  0.000000  0.989824 )  


     PseudoPot. # 1 for Ir read from file:
     /home/pragov/projects/rrg-bengioy-ad/pragov/crystal_structure_design/SSSP/Ir_pbe_v1.2.uspp.F.UPF
     MD5 check sum: 8836f839c3459d2b385c504ce6d91f2c
     Pseudo is Ultrasoft + core correction, Zval = 15.0
     Generated by new atomic code, or converted to UPF format
     Using radial grid of  983 points,  7 beta functions with: 
                l(1) =   0
                l(2) =   0
                l(3) =   1
                l(4) =   1
                l(5) =   1
                l(6) =   2
                l(7) =   2
     Q(r) pseudized with  8 coefficients,  rinner =    1.400   1.400   1.400
                                                       1.400   1.400

     PseudoPot. # 2 for Cl read from file:
     /home/pragov/projects/rrg-bengioy-ad/pragov/crystal_structure_design/SSSP/cl_pbe_v1.4.uspp.F.UPF
     MD5 check sum: fc6f6913ecf08c9257cb748ef0700058
     Pseudo is Ultrasoft + core correction, Zval =  7.0
     Generated by new atomic code, or converted to UPF format
     Using radial grid of  909 points,  6 beta functions with: 
                l(1) =   0
                l(2) =   0
                l(3) =   1
                l(4) =   1
                l(5) =   2
                l(6) =   2
     Q(r) pseudized with  8 coefficients,  rinner =    1.300   1.300   1.300
                                                       1.300   1.300

     atomic species   valence    mass     pseudopotential
        Ir            15.00   192.21700     Ir( 1.00)
        Cl             7.00    35.45000     Cl( 1.00)

      2 Sym. Ops., with inversion, found


                                    s                        frac. trans.

      isym =  1     identity                                     

 cryst.   s( 1) = (     1          0          0      )
                  (     0          1          0      )
                  (     0          0          1      )

 cart.    s( 1) = (  1.0000000 -0.0000000 -0.0000000 )
                  (  0.0000000  1.0000000  0.0000000 )
                  (  0.0000000  0.0000000  1.0000000 )


      isym =  2     inversion                                    

 cryst.   s( 2) = (    -1          0          0      )
                  (     0         -1          0      )
                  (     0          0         -1      )

 cart.    s( 2) = ( -1.0000000  0.0000000  0.0000000 )
                  (  0.0000000 -1.0000000 -0.0000000 )
                  (  0.0000000  0.0000000 -1.0000000 )


   Cartesian axes

     site n.     atom                  positions (alat units)
         1           Ir  tau(   1) = (  -0.2497309   0.7218235   0.0000000  )
         2           Ir  tau(   2) = (   0.7500334   0.1443765   0.0000000  )
         3           Cl  tau(   3) = (   0.4270141   0.1264271   0.2105616  )
         4           Cl  tau(   4) = (   0.7657805   0.7129511   0.7997186  )
         5           Cl  tau(   5) = (   0.2346165   0.4062039   0.7994438  )
         6           Cl  tau(   6) = (   0.4272973   0.7398022   0.2108364  )
         7           Cl  tau(   7) = (  -0.1038668   0.4330549   0.2105616  )
         8           Cl  tau(   8) = (   0.2348996   1.0195790   0.7997186  )

   Crystallographic axes

     site n.     atom                  positions (cryst. coord.)
         1           Ir  tau(   1) = (  0.1666780  0.8333220  0.0000000  )
         2           Ir  tau(   2) = (  0.8333220  0.1666780  0.0000000  )
         3           Cl  tau(   3) = (  0.4326230  0.0786310  0.2084190  )
         4           Cl  tau(   4) = (  0.9213690  0.5673770  0.7915810  )
         5           Cl  tau(   5) = (  0.2133350  0.2133350  0.7913090  )
         6           Cl  tau(   6) = (  0.7866650  0.7866650  0.2086910  )
         7           Cl  tau(   7) = (  0.0786310  0.4326230  0.2084190  )
         8           Cl  tau(   8) = (  0.5673770  0.9213690  0.7915810  )

     number of k points=     1  Methfessel-Paxton smearing, width (Ry)=  0.0010
                       cart. coord. in units 2pi/alat
        k(    1) = (   0.0000000   0.0000000   0.0000000), wk =   2.0000000

                       cryst. coord.
        k(    1) = (   0.0000000   0.0000000   0.0000000), wk =   2.0000000

     Dense  grid:    42998 G-vectors     FFT dimensions: (  60,  60,  64)

     Smooth grid:    15200 G-vectors     FFT dimensions: (  45,  45,  45)

     Dynamical RAM for                 wfc:       0.04 MB

     Dynamical RAM for     wfc (w. buffer):       0.04 MB

     Dynamical RAM for           str. fact:       0.04 MB

     Dynamical RAM for           local pot:       0.00 MB

     Dynamical RAM for          nlocal pot:       0.14 MB

     Dynamical RAM for                qrad:       3.32 MB

     Dynamical RAM for          rho,v,vnew:       0.23 MB

     Dynamical RAM for               rhoin:       0.08 MB

     Dynamical RAM for            rho*nmix:       0.33 MB

     Dynamical RAM for           G-vectors:       0.08 MB

     Dynamical RAM for          h,s,v(r/c):       0.01 MB

     Dynamical RAM for          <psi|beta>:       0.05 MB

     Dynamical RAM for                 psi:       0.08 MB

     Dynamical RAM for                hpsi:       0.08 MB

     Dynamical RAM for                spsi:       0.08 MB

     Dynamical RAM for      wfcinit/wfcrot:       0.14 MB

     Dynamical RAM for           addusdens:       5.18 MB

     Dynamical RAM for          addusforce:       5.42 MB

     Dynamical RAM for         addusstress:       5.36 MB

     Estimated static dynamical RAM per process >       4.25 MB

     Estimated max dynamical RAM per process >      10.00 MB

     Estimated total dynamical RAM >     320.09 MB

     Check: negative core charge=   -0.000001

     Initial potential from superposition of free atoms

     starting charge      70.9999, renormalised to      72.0000

     negative rho (up, down):  8.333E-01 0.000E+00
     Starting wfcs are   48 randomized atomic wfcs

     total cpu time spent up to now is        0.9 secs

     Self-consistent Calculation

     iteration #  1     ecut=    30.00 Ry     beta= 0.70
     Davidson diagonalization with overlap

---- Real-time Memory Report at c_bands before calling an iterative solver
           136 MiB given to the printing process from OS
             0 MiB allocation reported by mallinfo(arena+hblkhd)
        166506 MiB available memory on the node where the printing process lives
------------------
     ethr =  1.00E-02,  avg # of iterations =  4.0

     negative rho (up, down):  7.151E-01 0.000E+00

     total cpu time spent up to now is        1.0 secs

     total energy              =    -562.44504145 Ry
     estimated scf accuracy    <       2.07112329 Ry

     iteration #  2     ecut=    30.00 Ry     beta= 0.70
     Davidson diagonalization with overlap

---- Real-time Memory Report at c_bands before calling an iterative solver
           148 MiB given to the printing process from OS
             0 MiB allocation reported by mallinfo(arena+hblkhd)
        166277 MiB available memory on the node where the printing process lives
------------------
     ethr =  2.88E-03,  avg # of iterations =  3.0

     negative rho (up, down):  7.524E-01 0.000E+00

     total cpu time spent up to now is        1.0 secs

     total energy              =    -562.28163450 Ry
     estimated scf accuracy    <       7.36367305 Ry

     iteration #  3     ecut=    30.00 Ry     beta= 0.70
     Davidson diagonalization with overlap

---- Real-time Memory Report at c_bands before calling an iterative solver
           149 MiB given to the printing process from OS
             0 MiB allocation reported by mallinfo(arena+hblkhd)
        166150 MiB available memory on the node where the printing process lives
------------------
     ethr =  2.88E-03,  avg # of iterations =  2.0

     negative rho (up, down):  7.425E-01 0.000E+00

     total cpu time spent up to now is        1.1 secs

     total energy              =    -563.57712238 Ry
     estimated scf accuracy    <       0.03000339 Ry

     iteration #  4     ecut=    30.00 Ry     beta= 0.70
     Davidson diagonalization with overlap

---- Real-time Memory Report at c_bands before calling an iterative solver
           150 MiB given to the printing process from OS
             0 MiB allocation reported by mallinfo(arena+hblkhd)
        166149 MiB available memory on the node where the printing process lives
------------------
     ethr =  4.17E-05,  avg # of iterations =  4.0

     negative rho (up, down):  7.385E-01 0.000E+00

     total cpu time spent up to now is        1.2 secs

     total energy              =    -563.58193658 Ry
     estimated scf accuracy    <       0.00657163 Ry

     iteration #  5     ecut=    30.00 Ry     beta= 0.70
     Davidson diagonalization with overlap

---- Real-time Memory Report at c_bands before calling an iterative solver
           150 MiB given to the printing process from OS
             0 MiB allocation reported by mallinfo(arena+hblkhd)
        166149 MiB available memory on the node where the printing process lives
------------------
     ethr =  9.13E-06,  avg # of iterations =  2.0

     negative rho (up, down):  7.381E-01 0.000E+00

     total cpu time spent up to now is        1.2 secs

     total energy              =    -563.58283242 Ry
     estimated scf accuracy    <       0.00016075 Ry

     iteration #  6     ecut=    30.00 Ry     beta= 0.70
     Davidson diagonalization with overlap

---- Real-time Memory Report at c_bands before calling an iterative solver
           151 MiB given to the printing process from OS
             0 MiB allocation reported by mallinfo(arena+hblkhd)
        166149 MiB available memory on the node where the printing process lives
------------------
     ethr =  2.23E-07,  avg # of iterations =  3.0

     negative rho (up, down):  7.382E-01 0.000E+00

     total cpu time spent up to now is        1.3 secs

     total energy              =    -563.58289661 Ry
     estimated scf accuracy    <       0.00012129 Ry

     iteration #  7     ecut=    30.00 Ry     beta= 0.70
     Davidson diagonalization with overlap

---- Real-time Memory Report at c_bands before calling an iterative solver
           151 MiB given to the printing process from OS
             0 MiB allocation reported by mallinfo(arena+hblkhd)
        166149 MiB available memory on the node where the printing process lives
------------------
     ethr =  1.68E-07,  avg # of iterations =  2.0

     negative rho (up, down):  7.383E-01 0.000E+00

     total cpu time spent up to now is        1.4 secs

     total energy              =    -563.58290995 Ry
     estimated scf accuracy    <       0.00005789 Ry

     iteration #  8     ecut=    30.00 Ry     beta= 0.70
     Davidson diagonalization with overlap

---- Real-time Memory Report at c_bands before calling an iterative solver
           151 MiB given to the printing process from OS
             0 MiB allocation reported by mallinfo(arena+hblkhd)
        166149 MiB available memory on the node where the printing process lives
------------------
     ethr =  8.04E-08,  avg # of iterations =  2.0

     negative rho (up, down):  7.385E-01 0.000E+00

     total cpu time spent up to now is        1.4 secs

     total energy              =    -563.58291793 Ry
     estimated scf accuracy    <       0.00000520 Ry

     iteration #  9     ecut=    30.00 Ry     beta= 0.70
     Davidson diagonalization with overlap

---- Real-time Memory Report at c_bands before calling an iterative solver
           151 MiB given to the printing process from OS
             0 MiB allocation reported by mallinfo(arena+hblkhd)
        166149 MiB available memory on the node where the printing process lives
------------------
     ethr =  7.22E-09,  avg # of iterations =  4.0

     negative rho (up, down):  7.386E-01 0.000E+00

     total cpu time spent up to now is        1.5 secs

     End of self-consistent calculation

          k = 0.0000 0.0000 0.0000 (  1902 PWs)   bands (ev):

   -43.9399 -43.9306 -43.9230 -43.9137 -43.8154 -43.8112 -11.5945 -10.5265
   -10.5229 -10.5220 -10.5217 -10.4682  -1.6621  -1.2279  -0.7949  -0.7740
    -0.5814  -0.5350  -0.3139  -0.3020   0.4684   0.5858   0.5975   0.7825
     1.8963   2.2742   2.3002   2.4029   2.4125   2.5176   3.4310   3.9255
     3.9728   4.1844   4.4367   4.4609   6.6271   6.7143   6.9345   6.9680
     9.2828  11.1240  11.2596

     occupation numbers 
     1.0000   1.0000   1.0000   1.0000   1.0000   1.0000   1.0000   1.0000
     1.0000   1.0000   1.0000   1.0000   1.0000   1.0000   1.0000   1.0000
     1.0000   1.0000   1.0000   1.0000   1.0000   1.0000   1.0000   1.0000
     1.0000   1.0000   1.0000   1.0000   1.0000   1.0000   1.0000   1.0000
     1.0000   1.0000   1.0000   1.0000  -0.0000  -0.0000  -0.0000  -0.0000
    -0.0000  -0.0000  -0.0000

     the Fermi energy is     6.1951 ev

!    total energy              =    -563.58291969 Ry
     estimated scf accuracy    <       0.00000032 Ry
     smearing contrib. (-TS)   =       0.00000000 Ry
     internal energy E=F+TS    =    -563.58291969 Ry

     The total energy is F=E-TS. E is the sum of the following terms:
     one-electron contribution =    -315.80580991 Ry
     hartree contribution      =     185.34931410 Ry
     xc contribution           =    -157.29341986 Ry
     ewald contribution        =    -275.83300403 Ry

     convergence has been achieved in   9 iterations

     negative rho (up, down):  7.386E-01 0.000E+00

     Forces acting on atoms (cartesian axes, Ry/au):

     atom    1 type  1   force =     0.00035790   -0.00018280    0.00000374
     atom    2 type  1   force =    -0.00035790    0.00018280   -0.00000374
     atom    3 type  2   force =    -0.00009075   -0.00377687   -0.01488589
     atom    4 type  2   force =     0.00321354    0.00196033    0.01488164
     atom    5 type  2   force =     0.00072743    0.00124846    0.01900220
     atom    6 type  2   force =    -0.00072743   -0.00124846   -0.01900220
     atom    7 type  2   force =    -0.00321354   -0.00196033   -0.01488164
     atom    8 type  2   force =     0.00009075    0.00377687    0.01488589
     The non-local contrib.  to forces
     atom    1 type  1   force =     0.00085054   -0.00048803    0.00000370
     atom    2 type  1   force =    -0.00085054    0.00048803   -0.00000370
     atom    3 type  2   force =     0.12989233   -0.20752789   -0.29998253
     atom    4 type  2   force =     0.24467322   -0.00880183    0.29998364
     atom    5 type  2   force =    -0.12903740   -0.22341701    0.29585023
     atom    6 type  2   force =     0.12903740    0.22341701   -0.29585023
     atom    7 type  2   force =    -0.24467322    0.00880183   -0.29998364
     atom    8 type  2   force =    -0.12989233    0.20752789    0.29998253
     The ionic contribution  to forces
     atom    1 type  1   force =    -0.10444685    0.06032674   -0.00000000
     atom    2 type  1   force =     0.10444685   -0.06032674    0.00000000
     atom    3 type  2   force =    -3.05957616    5.29633632   12.27782613
     atom    4 type  2   force =    -6.11654898    0.00363877  -12.27782613
     atom    5 type  2   force =     3.07181991    5.31840309  -12.72767282
     atom    6 type  2   force =    -3.07181991   -5.31840309   12.72767282
     atom    7 type  2   force =     6.11654898   -0.00363876   12.27782613
     atom    8 type  2   force =     3.05957616   -5.29633632  -12.27782613
     The local contribution  to forces
     atom    1 type  1   force =     0.10479622   -0.06063203   -0.00016841
     atom    2 type  1   force =    -0.10486506    0.06064581   -0.00028853
     atom    3 type  2   force =     2.93342005   -5.09818209  -12.00073123
     atom    4 type  2   force =     5.88183349    0.00657428   12.00068694
     atom    5 type  2   force =    -2.94574772   -5.09977194   12.45850499
     atom    6 type  2   force =     2.94546840    5.09993060  -12.45858190
     atom    7 type  2   force =    -5.88182082   -0.00693377  -12.00070379
     atom    8 type  2   force =    -2.93309668    5.09830957   12.00066694
     The core correction contribution to forces
     atom    1 type  1   force =    -0.00021079    0.00012188   -0.00000050
     atom    2 type  1   force =     0.00020746   -0.00011659   -0.00000432
     atom    3 type  2   force =    -0.00379640    0.00597462    0.00835841
     atom    4 type  2   force =    -0.00707342    0.00030245   -0.00835867
     atom    5 type  2   force =     0.00378253    0.00655427   -0.00820212
     atom    6 type  2   force =    -0.00378636   -0.00655192    0.00820138
     atom    7 type  2   force =     0.00707402   -0.00030781    0.00835816
     atom    8 type  2   force =     0.00380218   -0.00597377   -0.00835803
     The Hubbard contrib.    to forces
     atom    1 type  1   force =     0.00000000    0.00000000    0.00000000
     atom    2 type  1   force =     0.00000000    0.00000000    0.00000000
     atom    3 type  2   force =     0.00000000    0.00000000    0.00000000
     atom    4 type  2   force =     0.00000000    0.00000000    0.00000000
     atom    5 type  2   force =     0.00000000    0.00000000    0.00000000
     atom    6 type  2   force =     0.00000000    0.00000000    0.00000000
     atom    7 type  2   force =     0.00000000    0.00000000    0.00000000
     atom    8 type  2   force =     0.00000000    0.00000000    0.00000000
     The SCF correction term to forces
     atom    1 type  1   force =    -0.00059762    0.00048280    0.00019296
     atom    2 type  1   force =     0.00073700   -0.00051356    0.00031683
     atom    3 type  2   force =     0.00002205   -0.00037584   -0.00035840
     atom    4 type  2   force =     0.00033096    0.00019547    0.00039559
     atom    5 type  2   force =    -0.00012386   -0.00049835    0.00051038
     atom    6 type  2   force =     0.00033909    0.00038056   -0.00045579
     atom    7 type  2   force =    -0.00034078    0.00006699   -0.00037877
     atom    8 type  2   force =    -0.00024596    0.00025149    0.00041883

     Total force =     0.040861     Total SCF correction =     0.001914


     Computing stress (Cartesian axis) and pressure


     negative rho (up, down):  7.386E-01 0.000E+00
          total   stress  (Ry/bohr**3)                   (kbar)     P=       -9.82
  -0.00007425   0.00001391  -0.00000031          -10.92        2.05       -0.05
   0.00001391  -0.00005827  -0.00000051            2.05       -8.57       -0.08
  -0.00000031  -0.00000051  -0.00006779           -0.05       -0.08       -9.97

     kinetic stress (kbar)  11486.47      1.39     -0.89
                                1.39  11488.05     -1.54
                               -0.89     -1.54  11634.97

     local   stress (kbar) -19955.04   -102.57   -113.66
                             -102.57 -20073.42   -196.77
                             -113.66   -196.77  10269.71

     nonloc. stress (kbar)   5161.82     -1.38      0.79
                               -1.38   5160.25      1.38
                                0.79      1.38   5190.06

     hartree stress (kbar)  11081.93     48.68     52.88
                               48.68  11138.12     91.53
                               52.88     91.53  -2297.11

     exc-cor stress (kbar)   6206.93     -0.02      0.03
                               -0.02   6206.90      0.05
                                0.03      0.05   6202.75

     corecor stress (kbar)  -9759.50     -0.09      0.11
                               -0.09  -9759.60      0.18
                                0.11      0.18  -9763.86

     ewald   stress (kbar)  -4233.54     56.04     60.70
                               56.04  -4168.88    105.09
                               60.70    105.09 -21246.49

     hubbard stress (kbar)      0.00      0.00      0.00
                                0.00      0.00      0.00
                                0.00      0.00      0.00

     DFT-D   stress (kbar)      0.00      0.00      0.00
                                0.00      0.00      0.00
                                0.00      0.00      0.00

     XDM     stress (kbar)      0.00      0.00      0.00
                                0.00      0.00      0.00
                                0.00      0.00      0.00

     dft-nl  stress (kbar)      0.00      0.00      0.00
                                0.00      0.00      0.00
                                0.00      0.00      0.00

     TS-vdW  stress (kbar)      0.00      0.00      0.00
                                0.00      0.00      0.00
                                0.00      0.00      0.00


                                0.00      0.00      0.00
                                0.00      0.00      0.00


                                0.00      0.00      0.00


     Writing all to output data dir calculations/myprefix.save/
 
     init_run     :      0.59s CPU      0.64s WALL (       1 calls)
     electrons    :      0.55s CPU      0.60s WALL (       1 calls)
     forces       :      0.08s CPU      0.08s WALL (       1 calls)
     stress       :      0.20s CPU      0.20s WALL (       1 calls)

     Called by init_run:
     wfcinit      :      0.01s CPU      0.03s WALL (       1 calls)
     wfcinit:atom :      0.00s CPU      0.00s WALL (       1 calls)
     wfcinit:wfcr :      0.01s CPU      0.03s WALL (       1 calls)
     potinit      :      0.14s CPU      0.14s WALL (       1 calls)
     hinit0       :      0.42s CPU      0.43s WALL (       1 calls)

     Called by electrons:
     c_bands      :      0.28s CPU      0.29s WALL (       9 calls)
     sum_band     :      0.13s CPU      0.14s WALL (       9 calls)
     v_of_rho     :      0.04s CPU      0.04s WALL (      10 calls)
     v_h          :      0.00s CPU      0.00s WALL (      10 calls)
     v_xc         :      0.04s CPU      0.04s WALL (      12 calls)
     newd         :      0.10s CPU      0.11s WALL (      10 calls)
     mix_rho      :      0.01s CPU      0.01s WALL (       9 calls)

     Called by c_bands:
     init_us_2    :      0.00s CPU      0.00s WALL (      19 calls)
     init_us_2:cp :      0.00s CPU      0.00s WALL (      19 calls)
     regterg      :      0.27s CPU      0.28s WALL (       9 calls)

     Called by sum_band:
     sum_band:wei :      0.00s CPU      0.00s WALL (       9 calls)
     sum_band:loo :      0.02s CPU      0.03s WALL (       9 calls)
     sum_band:buf :      0.00s CPU      0.00s WALL (       9 calls)
     sum_band:ini :      0.00s CPU      0.00s WALL (       9 calls)
     sum_band:cal :      0.00s CPU      0.00s WALL (       9 calls)
     sum_band:bec :      0.00s CPU      0.00s WALL (       9 calls)
     addusdens    :      0.10s CPU      0.11s WALL (       9 calls)
     addusd:skk   :      0.00s CPU      0.00s WALL (      18 calls)
     addusd:dgemm :      0.03s CPU      0.04s WALL (      18 calls)
     addusd:qvan2 :      0.07s CPU      0.07s WALL (      18 calls)

     Called by *egterg:
     rdiaghg      :      0.13s CPU      0.14s WALL (      35 calls)
     regterg:over :      0.01s CPU      0.01s WALL (      26 calls)
     regterg:upda :      0.01s CPU      0.01s WALL (      26 calls)
     regterg:last :      0.01s CPU      0.01s WALL (      19 calls)
     rdiaghg:chol :      0.01s CPU      0.01s WALL (      35 calls)
     rdiaghg:inve :      0.00s CPU      0.00s WALL (      35 calls)
     rdiaghg:para :      0.01s CPU      0.01s WALL (      70 calls)
     h_psi        :      0.11s CPU      0.12s WALL (      36 calls)
     s_psi        :      0.00s CPU      0.00s WALL (      36 calls)
     g_psi        :      0.00s CPU      0.00s WALL (      26 calls)

     Called by h_psi:
     h_psi:calbec :      0.01s CPU      0.01s WALL (      36 calls)
     vloc_psi     :      0.10s CPU      0.11s WALL (      36 calls)
     add_vuspsi   :      0.00s CPU      0.00s WALL (      36 calls)

     General routines
     calbec       :      0.01s CPU      0.02s WALL (      50 calls)
     fft          :      0.36s CPU      0.36s WALL (     128 calls)
     ffts         :      0.11s CPU      0.11s WALL (      19 calls)
     fftw         :      0.11s CPU      0.12s WALL (    1270 calls)
     interpolate  :      0.11s CPU      0.11s WALL (      10 calls)
 
     Parallel routines
 
     PWSCF        :      1.64s CPU      2.09s WALL

 
   This run was terminated on:  21:39:38   4Mar2023            

=------------------------------------------------------------------------------=
   JOB DONE.
=------------------------------------------------------------------------------=
