
     Program PWSCF v.7.0 starts on  3Mar2023 at 11:51:23 

     This program is part of the open-source Quantum ESPRESSO suite
     for quantum simulation of materials; please cite
         "P. Giannozzi et al., J. Phys.:Condens. Matter 21 395502 (2009);
         "P. Giannozzi et al., J. Phys.:Condens. Matter 29 465901 (2017);
         "P. Giannozzi et al., J. Chem. Phys. 152 154105 (2020);
          URL http://www.quantum-espresso.org", 
     in publications or presentations arising from this work. More details at
     http://www.quantum-espresso.org/quote

     Parallel version (MPI & OpenMP), running on      32 processor cores
     Number of MPI processes:                32
     Threads/MPI process:                     1

     MPI processes distributed on     1 nodes
     R & G space division:  proc/nbgrp/npool/nimage =      32
     174291 MiB available memory on the printing compute node when the environment starts
 
     Reading input from espresso_160.pwi
Warning: card &CELL ignored
Warning: card / ignored

     Current dimensions of program PWSCF are:
     Max number of different atomic species (ntypx) = 10
     Max number of k-points (npk) =  40000
     Max angular momentum in pseudopotentials (lmaxx) =  4

     gamma-point specific algorithms are used
     Message from routine setup:
     using ibrav=0 with symmetry is DISCOURAGED, use correct ibrav instead

     Subspace diagonalization in iterative solution of the eigenvalue problem:
     one sub-group per band group will be used
     scalapack distributed-memory algorithm (size of sub-group:  5*  5 procs)

 
     Parallelization info
     --------------------
     sticks:   dense  smooth     PW     G-vecs:    dense   smooth      PW
     Min         106      52     11                 3723     1310     158
     Max         108      54     14                 3734     1320     168
     Sum        3445    1723    427               119367    42109    5239
 
     Using Slab Decomposition
 


     bravais-lattice index     =            0
     lattice parameter (alat)  =      15.6652  a.u.
     unit-cell volume          =    1902.6439 (a.u.)^3
     number of atoms/cell      =            8
     number of atomic types    =            3
     number of electrons       =       114.00
     number of Kohn-Sham states=           68
     kinetic-energy cutoff     =      30.0000  Ry
     charge density cutoff     =     240.0000  Ry
     scf convergence threshold =      1.0E-06
     mixing beta               =       0.7000
     number of iterations used =            8  plain     mixing
     Exchange-correlation= PBE
                           (   1   4   3   4   0   0   0)

     celldm(1)=  15.665193  celldm(2)=   0.000000  celldm(3)=   0.000000
     celldm(4)=   0.000000  celldm(5)=   0.000000  celldm(6)=   0.000000

     crystal axes: (cart. coord. in units of alat)
               a(1) = (   1.000000   0.000000   0.000000 )  
               a(2) = (   0.677478   0.735543   0.000000 )  
               a(3) = (   0.677478   0.297061   0.672887 )  

     reciprocal axes: (cart. coord. in units 2 pi/alat)
               b(1) = (  1.000000 -0.921059 -0.600200 )  
               b(2) = (  0.000000  1.359540 -0.600200 )  
               b(3) = (  0.000000  0.000000  1.486133 )  


     PseudoPot. # 1 for Rb read from file:
     /home/pragov/projects/rrg-bengioy-ad/pragov/crystal_structure_design/SSSP/Rb_ONCV_PBE-1.0.oncvpsp.upf
     MD5 check sum: 55a5172d6bfbce6759a58e35d43f6aa9
     Pseudo is Norm-conserving, Zval =  9.0
     Generated using ONCVPSP code by D. R. Hamann
     Using radial grid of 2308 points,  6 beta functions with: 
                l(1) =   0
                l(2) =   0
                l(3) =   1
                l(4) =   1
                l(5) =   2
                l(6) =   2

     PseudoPot. # 2 for Sb read from file:
     /home/pragov/projects/rrg-bengioy-ad/pragov/crystal_structure_design/SSSP/sb_pbe_v1.4.uspp.F.UPF
     MD5 check sum: 9bc50dfb53373b713f5709b9110fe27f
     Pseudo is Ultrasoft + core correction, Zval = 15.0
     Generated by new atomic code, or converted to UPF format
     Using radial grid of  891 points,  6 beta functions with: 
                l(1) =   0
                l(2) =   0
                l(3) =   1
                l(4) =   1
                l(5) =   2
                l(6) =   2
     Q(r) pseudized with  8 coefficients,  rinner =    1.350   1.350   1.350
                                                       1.350   1.350

     PseudoPot. # 3 for Au read from file:
     /home/pragov/projects/rrg-bengioy-ad/pragov/crystal_structure_design/SSSP/Au_ONCV_PBE-1.0.oncvpsp.upf
     MD5 check sum: d14007822ba0e19f0206237467fc06c2
     Pseudo is Norm-conserving, Zval = 19.0
     Generated using ONCVPSP code by D. R. Hamann
     Using radial grid of 1278 points,  8 beta functions with: 
                l(1) =   0
                l(2) =   0
                l(3) =   1
                l(4) =   1
                l(5) =   2
                l(6) =   2
                l(7) =   3
                l(8) =   3

     atomic species   valence    mass     pseudopotential
        Rb             9.00    85.46780     Rb( 1.00)
        Sb            15.00   121.76000     Sb( 1.00)
        Au            19.00   196.96657     Au( 1.00)

      2 Sym. Ops., with inversion, found


                                    s                        frac. trans.

      isym =  1     identity                                     

 cryst.   s( 1) = (     1          0          0      )
                  (     0          1          0      )
                  (     0          0          1      )

 cart.    s( 1) = (  1.0000000  0.0000000  0.0000000 )
                  (  0.0000000  1.0000000 -0.0000000 )
                  (  0.0000000  0.0000000  1.0000000 )


      isym =  2     inversion                                    

 cryst.   s( 2) = (    -1          0          0      )
                  (     0         -1          0      )
                  (     0          0         -1      )

 cart.    s( 2) = ( -1.0000000 -0.0000000 -0.0000000 )
                  (  0.0000000 -1.0000000  0.0000000 )
                  (  0.0000000  0.0000000 -1.0000000 )


   Cartesian axes

     site n.     atom                  positions (alat units)
         1           Rb  tau(   1) = (   1.1774784   0.5163021   0.3364437  )
         2           Rb  tau(   2) = (   2.1623661   0.9481567   0.6178580  )
         3           Rb  tau(   3) = (   0.1925907   0.0844474   0.0550294  )
         4           Sb  tau(   4) = (   0.5834052   0.2558122   0.1666978  )
         5           Sb  tau(   5) = (   1.7715516   0.7767919   0.5061896  )
         6           Au  tau(   6) = (   1.6774784   0.5163021   0.3364437  )
         7           Au  tau(   7) = (   0.8387392   0.1485307   0.3364437  )
         8           Au  tau(   8) = (   0.8387392   0.3677713   0.0000000  )

   Crystallographic axes

     site n.     atom                  positions (cryst. coord.)
         1           Rb  tau(   1) = (  0.5000000  0.5000000  0.5000000  )
         2           Rb  tau(   2) = (  0.9182190  0.9182190  0.9182190  )
         3           Rb  tau(   3) = (  0.0817810  0.0817810  0.0817810  )
         4           Sb  tau(   4) = (  0.2477350  0.2477350  0.2477350  )
         5           Sb  tau(   5) = (  0.7522650  0.7522650  0.7522650  )
         6           Au  tau(   6) = (  1.0000000  0.5000000  0.5000000  )
         7           Au  tau(   7) = (  0.5000000  0.0000000  0.5000000  )
         8           Au  tau(   8) = (  0.5000000  0.5000000  0.0000000  )

     number of k points=     1  Methfessel-Paxton smearing, width (Ry)=  0.0010
                       cart. coord. in units 2pi/alat
        k(    1) = (   0.0000000   0.0000000   0.0000000), wk =   2.0000000

                       cryst. coord.
        k(    1) = (   0.0000000   0.0000000   0.0000000), wk =   2.0000000

     Dense  grid:    59684 G-vectors     FFT dimensions: (  80,  80,  80)

     Smooth grid:    21055 G-vectors     FFT dimensions: (  60,  60,  60)

     Dynamical RAM for                 wfc:       0.09 MB

     Dynamical RAM for     wfc (w. buffer):       0.09 MB

     Dynamical RAM for           str. fact:       0.09 MB

     Dynamical RAM for           local pot:       0.00 MB

     Dynamical RAM for          nlocal pot:       0.23 MB

     Dynamical RAM for                qrad:       8.96 MB

     Dynamical RAM for          rho,v,vnew:       0.52 MB

     Dynamical RAM for               rhoin:       0.17 MB

     Dynamical RAM for            rho*nmix:       0.46 MB

     Dynamical RAM for           G-vectors:       0.11 MB

     Dynamical RAM for          h,s,v(r/c):       0.02 MB

     Dynamical RAM for          <psi|beta>:       0.10 MB

     Dynamical RAM for                 psi:       0.17 MB

     Dynamical RAM for                hpsi:       0.17 MB

     Dynamical RAM for                spsi:       0.17 MB

     Dynamical RAM for      wfcinit/wfcrot:       0.28 MB

     Dynamical RAM for           addusdens:       5.70 MB

     Dynamical RAM for          addusforce:       5.78 MB

     Dynamical RAM for         addusstress:       6.41 MB

     Estimated static dynamical RAM per process >      11.02 MB

     Estimated max dynamical RAM per process >      17.88 MB

     Estimated total dynamical RAM >     572.30 MB

     Check: negative core charge=   -0.000004

     Initial potential from superposition of free atoms

     starting charge     111.9254, renormalised to     114.0000
     Starting wfcs are   63 randomized atomic wfcs +    5 random wfcs

     total cpu time spent up to now is        1.4 secs

     Self-consistent Calculation

     iteration #  1     ecut=    30.00 Ry     beta= 0.70
     Davidson diagonalization with overlap

---- Real-time Memory Report at c_bands before calling an iterative solver
           143 MiB given to the printing process from OS
             0 MiB allocation reported by mallinfo(arena+hblkhd)
        173308 MiB available memory on the node where the printing process lives
------------------
     ethr =  1.00E-02,  avg # of iterations =  7.0

     total cpu time spent up to now is        1.5 secs

     total energy              =   -1339.30452940 Ry
     estimated scf accuracy    <       1.80915560 Ry

     iteration #  2     ecut=    30.00 Ry     beta= 0.70
     Davidson diagonalization with overlap

---- Real-time Memory Report at c_bands before calling an iterative solver
           157 MiB given to the printing process from OS
             0 MiB allocation reported by mallinfo(arena+hblkhd)
        173096 MiB available memory on the node where the printing process lives
------------------
     ethr =  1.59E-03,  avg # of iterations =  3.0

     total cpu time spent up to now is        1.6 secs

     total energy              =   -1339.32827918 Ry
     estimated scf accuracy    <       5.81717240 Ry

     iteration #  3     ecut=    30.00 Ry     beta= 0.70
     Davidson diagonalization with overlap

---- Real-time Memory Report at c_bands before calling an iterative solver
           158 MiB given to the printing process from OS
             0 MiB allocation reported by mallinfo(arena+hblkhd)
        173088 MiB available memory on the node where the printing process lives
------------------
     ethr =  1.59E-03,  avg # of iterations =  2.0

     total cpu time spent up to now is        1.7 secs

     total energy              =   -1340.27496162 Ry
     estimated scf accuracy    <       0.06235510 Ry

     iteration #  4     ecut=    30.00 Ry     beta= 0.70
     Davidson diagonalization with overlap

---- Real-time Memory Report at c_bands before calling an iterative solver
           159 MiB given to the printing process from OS
             0 MiB allocation reported by mallinfo(arena+hblkhd)
        173088 MiB available memory on the node where the printing process lives
------------------
     ethr =  5.47E-05,  avg # of iterations =  7.0

     total cpu time spent up to now is        1.8 secs

     total energy              =   -1340.29212292 Ry
     estimated scf accuracy    <       0.00624317 Ry

     iteration #  5     ecut=    30.00 Ry     beta= 0.70
     Davidson diagonalization with overlap

---- Real-time Memory Report at c_bands before calling an iterative solver
           160 MiB given to the printing process from OS
             0 MiB allocation reported by mallinfo(arena+hblkhd)
        173088 MiB available memory on the node where the printing process lives
------------------
     ethr =  5.48E-06,  avg # of iterations =  4.0

     total cpu time spent up to now is        1.9 secs

     total energy              =   -1340.29339958 Ry
     estimated scf accuracy    <       0.00038924 Ry

     iteration #  6     ecut=    30.00 Ry     beta= 0.70
     Davidson diagonalization with overlap

---- Real-time Memory Report at c_bands before calling an iterative solver
           160 MiB given to the printing process from OS
             0 MiB allocation reported by mallinfo(arena+hblkhd)
        173088 MiB available memory on the node where the printing process lives
------------------
     ethr =  3.41E-07,  avg # of iterations =  2.0

     total cpu time spent up to now is        2.0 secs

     total energy              =   -1340.29346705 Ry
     estimated scf accuracy    <       0.00001530 Ry

     iteration #  7     ecut=    30.00 Ry     beta= 0.70
     Davidson diagonalization with overlap

---- Real-time Memory Report at c_bands before calling an iterative solver
           161 MiB given to the printing process from OS
             0 MiB allocation reported by mallinfo(arena+hblkhd)
        173088 MiB available memory on the node where the printing process lives
------------------
     ethr =  1.34E-08,  avg # of iterations =  4.0

     total cpu time spent up to now is        2.1 secs

     total energy              =   -1340.29347201 Ry
     estimated scf accuracy    <       0.00000624 Ry

     iteration #  8     ecut=    30.00 Ry     beta= 0.70
     Davidson diagonalization with overlap

---- Real-time Memory Report at c_bands before calling an iterative solver
           161 MiB given to the printing process from OS
             0 MiB allocation reported by mallinfo(arena+hblkhd)
        173088 MiB available memory on the node where the printing process lives
------------------
     ethr =  5.48E-09,  avg # of iterations =  2.0

     total cpu time spent up to now is        2.2 secs

     total energy              =   -1340.29347377 Ry
     estimated scf accuracy    <       0.00000155 Ry

     iteration #  9     ecut=    30.00 Ry     beta= 0.70
     Davidson diagonalization with overlap

---- Real-time Memory Report at c_bands before calling an iterative solver
           161 MiB given to the printing process from OS
             0 MiB allocation reported by mallinfo(arena+hblkhd)
        173088 MiB available memory on the node where the printing process lives
------------------
     ethr =  1.36E-09,  avg # of iterations =  2.0

     total cpu time spent up to now is        2.2 secs

     End of self-consistent calculation

          k = 0.0000 0.0000 0.0000 (  2620 PWs)   bands (ev):

   -97.7834 -97.7827 -97.7825 -48.9801 -48.9712 -48.9709 -48.7641 -48.7639
   -48.7523 -48.7139 -48.7002 -48.7000 -20.7229 -20.3854 -20.3854 -20.3764
   -20.3764 -20.3627 -20.3627 -20.3609 -20.3609 -20.3531 -20.3522 -20.1889
   -20.1444  -4.8299  -4.8299  -4.7314  -4.6080  -4.2644  -4.2644  -4.2252
    -4.2252  -4.1281  -1.8840  -0.6777   2.9427   3.0330   3.0330   3.6351
     3.9690   3.9690   4.1980   4.3943   4.3944   4.7527   4.7528   4.7787
     4.9942   5.0237   5.0239   5.7415   6.4624   6.4624   6.4634   6.9433
     6.9434   8.7974   9.1819   9.4070   9.4070   9.4314   9.4314  11.6731
    12.1593  12.1593  12.5362  12.5362

     occupation numbers 
     1.0000   1.0000   1.0000   1.0000   1.0000   1.0000   1.0000   1.0000
     1.0000   1.0000   1.0000   1.0000   1.0000   1.0000   1.0000   1.0000
     1.0000   1.0000   1.0000   1.0000   1.0000   1.0000   1.0000   1.0000
     1.0000   1.0000   1.0000   1.0000   1.0000   1.0000   1.0000   1.0000
     1.0000   1.0000   1.0000   1.0000   1.0000   1.0000   1.0000   1.0000
     1.0000   1.0000   1.0000   1.0000   1.0000   1.0000   1.0000   1.0000
     1.0000   1.0000   1.0000   1.0000   1.0000   1.0000   1.0000   1.0000
     1.0000  -0.0000  -0.0000  -0.0000  -0.0000  -0.0000  -0.0000  -0.0000
    -0.0000  -0.0000  -0.0000  -0.0000

     the Fermi energy is     7.4883 ev

!    total energy              =   -1340.29347413 Ry
     estimated scf accuracy    <       0.00000008 Ry
     smearing contrib. (-TS)   =       0.00000000 Ry
     internal energy E=F+TS    =   -1340.29347413 Ry

     The total energy is F=E-TS. E is the sum of the following terms:
     one-electron contribution =   -1005.20543138 Ry
     hartree contribution      =     526.86352241 Ry
     xc contribution           =    -186.59220825 Ry
     ewald contribution        =    -675.35935691 Ry

     convergence has been achieved in   9 iterations

     Forces acting on atoms (cartesian axes, Ry/au):

     atom    1 type  1   force =     0.00000000    0.00000000    0.00000000
     atom    2 type  1   force =    -0.00171439   -0.00074904   -0.00048862
     atom    3 type  1   force =     0.00171439    0.00074904    0.00048862
     atom    4 type  2   force =     0.05581613    0.02447638    0.01594604
     atom    5 type  2   force =    -0.05581613   -0.02447638   -0.01594604
     atom    6 type  3   force =     0.00000000    0.00000000    0.00000000
     atom    7 type  3   force =     0.00000000    0.00000000    0.00000000
     atom    8 type  3   force =     0.00000000    0.00000000    0.00000000
     The non-local contrib.  to forces
     atom    1 type  1   force =     0.00000000    0.00000000    0.00000000
     atom    2 type  1   force =    -0.01036019   -0.00454354   -0.00296020
     atom    3 type  1   force =     0.01036019    0.00454354    0.00296020
     atom    4 type  2   force =     0.19967075    0.08755558    0.05704967
     atom    5 type  2   force =    -0.19967075   -0.08755558   -0.05704967
     atom    6 type  3   force =     0.00000000    0.00000000    0.00000000
     atom    7 type  3   force =     0.00000000    0.00000000    0.00000000
     atom    8 type  3   force =     0.00000000    0.00000000    0.00000000
     The ionic contribution  to forces
     atom    1 type  1   force =     0.00000000    0.00000000    0.00000000
     atom    2 type  1   force =    -8.37781569   -3.67351407   -2.39381447
     atom    3 type  1   force =     8.37781569    3.67351407    2.39381447
     atom    4 type  2   force =   -32.09779305  -14.07427651   -9.17138145
     atom    5 type  2   force =    32.09779305   14.07427651    9.17138145
     atom    6 type  3   force =    -0.00000000    0.00000000    0.00000000
     atom    7 type  3   force =     0.00000000   -0.00000000    0.00000000
     atom    8 type  3   force =     0.00000000   -0.00000000   -0.00000000
     The local contribution  to forces
     atom    1 type  1   force =    -0.00007385   -0.00003272   -0.00002414
     atom    2 type  1   force =     8.38670546    3.67741603    2.39637368
     atom    3 type  1   force =    -8.38672974   -3.67740243   -2.39634793
     atom    4 type  2   force =    31.95639451   14.01228995    9.13094579
     atom    5 type  2   force =   -31.95624991  -14.01226473   -9.13093576
     atom    6 type  3   force =     0.00035755   -0.00001722   -0.00007972
     atom    7 type  3   force =     0.00027574    0.00033438   -0.00016770
     atom    8 type  3   force =     0.00026679    0.00003385    0.00038666
     The core correction contribution to forces
     atom    1 type  1   force =     0.00000000    0.00000000    0.00000000
     atom    2 type  1   force =     0.00000000    0.00000000    0.00000000
     atom    3 type  1   force =     0.00000000    0.00000000    0.00000000
     atom    4 type  2   force =    -0.00177144   -0.00077584   -0.00050743
     atom    5 type  2   force =     0.00177481    0.00077613    0.00050821
     atom    6 type  3   force =     0.00000000    0.00000000    0.00000000
     atom    7 type  3   force =     0.00000000    0.00000000    0.00000000
     atom    8 type  3   force =     0.00000000    0.00000000    0.00000000
     The Hubbard contrib.    to forces
     atom    1 type  1   force =     0.00000000    0.00000000    0.00000000
     atom    2 type  1   force =     0.00000000    0.00000000    0.00000000
     atom    3 type  1   force =     0.00000000    0.00000000    0.00000000
     atom    4 type  2   force =     0.00000000    0.00000000    0.00000000
     atom    5 type  2   force =     0.00000000    0.00000000    0.00000000
     atom    6 type  3   force =     0.00000000    0.00000000    0.00000000
     atom    7 type  3   force =     0.00000000    0.00000000    0.00000000
     atom    8 type  3   force =     0.00000000    0.00000000    0.00000000
     The SCF correction term to forces
     atom    1 type  1   force =     0.00009901    0.00004272    0.00003488
     atom    2 type  1   force =    -0.00024248   -0.00010791   -0.00008920
     atom    3 type  1   force =     0.00026973    0.00009341    0.00006034
     atom    4 type  2   force =    -0.00067642   -0.00031927   -0.00015050
     atom    5 type  2   force =     0.00054489    0.00028883    0.00015974
     atom    6 type  3   force =    -0.00043024   -0.00000819    0.00006749
     atom    7 type  3   force =    -0.00035631   -0.00037233    0.00014774
     atom    8 type  3   force =    -0.00033404   -0.00006086   -0.00041577

     Total force =     0.089135     Total SCF correction =     0.001389


     Computing stress (Cartesian axis) and pressure

          total   stress  (Ry/bohr**3)                   (kbar)     P=     -222.85
  -0.00168767  -0.00013168  -0.00008582         -248.26      -19.37      -12.62
  -0.00013168  -0.00144510  -0.00003762          -19.37     -212.58       -5.53
  -0.00008582  -0.00003762  -0.00141187          -12.62       -5.53     -207.69

     kinetic stress (kbar)  18686.84    -79.16    -51.59
                              -79.16  18832.67    -22.62
                              -51.59    -22.62  18852.64

     local   stress (kbar)   1815.90  11181.80   7286.51
                            11181.80 -18782.29   3195.00
                             7286.51   3195.00 -21603.29

     nonloc. stress (kbar)   1384.80     11.90      7.76
                               11.90   1362.88      3.40
                                7.76      3.40   1359.87

     hartree stress (kbar)   6443.02  -5437.80  -3543.48
                            -5437.80  16460.08  -1553.76
                            -3543.48  -1553.76  17831.95

     exc-cor stress (kbar)   -145.28      0.50      0.32
                                0.50   -146.20      0.14
                                0.32      0.14   -146.33

     corecor stress (kbar)  -3553.29     -0.06     -0.04
                               -0.06  -3553.19     -0.02
                               -0.04     -0.02  -3553.17

     ewald   stress (kbar) -24880.26  -5696.55  -3712.11
                            -5696.55 -14386.54  -1627.69
                            -3712.11  -1627.69 -12949.38

     hubbard stress (kbar)      0.00      0.00      0.00
                                0.00      0.00      0.00
                                0.00      0.00      0.00

     DFT-D   stress (kbar)      0.00      0.00      0.00
                                0.00      0.00      0.00
                                0.00      0.00      0.00

     XDM     stress (kbar)      0.00      0.00      0.00
                                0.00      0.00      0.00
                                0.00      0.00      0.00

     dft-nl  stress (kbar)      0.00      0.00      0.00
                                0.00      0.00      0.00
                                0.00      0.00      0.00

     TS-vdW  stress (kbar)      0.00      0.00      0.00
                                0.00      0.00      0.00
                                0.00      0.00      0.00


                                0.00      0.00      0.00
                                0.00      0.00      0.00


                                0.00      0.00      0.00


     Writing all to output data dir calculations/myprefix.save/
 
     init_run     :      1.16s CPU      1.20s WALL (       1 calls)
     electrons    :      0.80s CPU      0.86s WALL (       1 calls)
     forces       :      0.12s CPU      0.13s WALL (       1 calls)
     stress       :      0.25s CPU      0.25s WALL (       1 calls)

     Called by init_run:
     wfcinit      :      0.02s CPU      0.03s WALL (       1 calls)
     wfcinit:atom :      0.00s CPU      0.00s WALL (       1 calls)
     wfcinit:wfcr :      0.02s CPU      0.03s WALL (       1 calls)
     potinit      :      0.47s CPU      0.48s WALL (       1 calls)
     hinit0       :      0.64s CPU      0.66s WALL (       1 calls)

     Called by electrons:
     c_bands      :      0.49s CPU      0.51s WALL (       9 calls)
     sum_band     :      0.13s CPU      0.13s WALL (       9 calls)
     v_of_rho     :      0.09s CPU      0.10s WALL (      10 calls)
     v_h          :      0.01s CPU      0.01s WALL (      10 calls)
     v_xc         :      0.10s CPU      0.11s WALL (      12 calls)
     newd         :      0.08s CPU      0.09s WALL (      10 calls)
     mix_rho      :      0.01s CPU      0.01s WALL (       9 calls)

     Called by c_bands:
     init_us_2    :      0.00s CPU      0.00s WALL (      19 calls)
     init_us_2:cp :      0.00s CPU      0.00s WALL (      19 calls)
     regterg      :      0.48s CPU      0.49s WALL (       9 calls)

     Called by sum_band:
     sum_band:wei :      0.00s CPU      0.00s WALL (       9 calls)
     sum_band:loo :      0.04s CPU      0.05s WALL (       9 calls)
     sum_band:buf :      0.00s CPU      0.00s WALL (       9 calls)
     sum_band:ini :      0.00s CPU      0.00s WALL (       9 calls)
     sum_band:cal :      0.00s CPU      0.00s WALL (       9 calls)
     sum_band:bec :      0.00s CPU      0.00s WALL (       9 calls)
     addusdens    :      0.08s CPU      0.08s WALL (       9 calls)
     addusd:skk   :      0.00s CPU      0.00s WALL (       9 calls)
     addusd:dgemm :      0.02s CPU      0.03s WALL (       9 calls)
     addusd:qvan2 :      0.04s CPU      0.04s WALL (       9 calls)

     Called by *egterg:
     rdiaghg      :      0.24s CPU      0.25s WALL (      42 calls)
     regterg:over :      0.02s CPU      0.02s WALL (      33 calls)
     regterg:upda :      0.01s CPU      0.01s WALL (      33 calls)
     regterg:last :      0.02s CPU      0.02s WALL (      18 calls)
     rdiaghg:chol :      0.01s CPU      0.01s WALL (      42 calls)
     rdiaghg:inve :      0.00s CPU      0.00s WALL (      42 calls)
     rdiaghg:para :      0.02s CPU      0.02s WALL (      84 calls)
     h_psi        :      0.20s CPU      0.21s WALL (      43 calls)
     s_psi        :      0.00s CPU      0.00s WALL (      43 calls)
     g_psi        :      0.00s CPU      0.00s WALL (      33 calls)

     Called by h_psi:
     h_psi:calbec :      0.01s CPU      0.02s WALL (      43 calls)
     vloc_psi     :      0.18s CPU      0.19s WALL (      43 calls)
     add_vuspsi   :      0.00s CPU      0.00s WALL (      43 calls)

     General routines
     calbec       :      0.02s CPU      0.02s WALL (      57 calls)
     fft          :      0.59s CPU      0.60s WALL (     128 calls)
     ffts         :      0.39s CPU      0.39s WALL (      19 calls)
     fftw         :      0.20s CPU      0.21s WALL (    1970 calls)
     interpolate  :      0.39s CPU      0.39s WALL (      10 calls)
 
     Parallel routines
 
     PWSCF        :      2.48s CPU      2.96s WALL

 
   This run was terminated on:  11:51:26   3Mar2023            

=------------------------------------------------------------------------------=
   JOB DONE.
=------------------------------------------------------------------------------=
