
     Program PWSCF v.7.0 starts on  3Mar2023 at 15:48: 1 

     This program is part of the open-source Quantum ESPRESSO suite
     for quantum simulation of materials; please cite
         "P. Giannozzi et al., J. Phys.:Condens. Matter 21 395502 (2009);
         "P. Giannozzi et al., J. Phys.:Condens. Matter 29 465901 (2017);
         "P. Giannozzi et al., J. Chem. Phys. 152 154105 (2020);
          URL http://www.quantum-espresso.org", 
     in publications or presentations arising from this work. More details at
     http://www.quantum-espresso.org/quote

     Parallel version (MPI & OpenMP), running on      32 processor cores
     Number of MPI processes:                32
     Threads/MPI process:                     1

     MPI processes distributed on     1 nodes
     R & G space division:  proc/nbgrp/npool/nimage =      32
     174215 MiB available memory on the printing compute node when the environment starts
 
     Reading input from espresso_817.pwi
Warning: card &CELL ignored
Warning: card / ignored

     Current dimensions of program PWSCF are:
     Max number of different atomic species (ntypx) = 10
     Max number of k-points (npk) =  40000
     Max angular momentum in pseudopotentials (lmaxx) =  4
     file C.pbe-n-kjpaw_psl.1.0.0.UPF: wavefunction(s)  2S 2P renormalized

     gamma-point specific algorithms are used
     Message from routine setup:
     using ibrav=0 with symmetry is DISCOURAGED, use correct ibrav instead

     Subspace diagonalization in iterative solution of the eigenvalue problem:
     one sub-group per band group will be used
     scalapack distributed-memory algorithm (size of sub-group:  5*  5 procs)

 
     Parallelization info
     --------------------
     sticks:   dense  smooth     PW     G-vecs:    dense   smooth      PW
     Min          40      19      4                 1760      619      70
     Max          42      22      6                 1770      630      90
     Sum        1301     649    165                56481    19957    2495
 
     Using Slab Decomposition
 


     bravais-lattice index     =            0
     lattice parameter (alat)  =       6.8720  a.u.
     unit-cell volume          =     901.2897 (a.u.)^3
     number of atoms/cell      =           10
     number of atomic types    =            4
     number of electrons       =       126.00
     number of Kohn-Sham states=           76
     kinetic-energy cutoff     =      30.0000  Ry
     charge density cutoff     =     240.0000  Ry
     scf convergence threshold =      1.0E-06
     mixing beta               =       0.7000
     number of iterations used =            8  plain     mixing
     Exchange-correlation= SLA  PW   PBX  PBC
                           (   1   4   3   4   0   0   0)

     celldm(1)=   6.872044  celldm(2)=   0.000000  celldm(3)=   0.000000
     celldm(4)=   0.000000  celldm(5)=   0.000000  celldm(6)=   0.000000

     crystal axes: (cart. coord. in units of alat)
               a(1) = (   1.000000   0.000000   0.000000 )  
               a(2) = (  -0.500000   1.451543   0.000000 )  
               a(3) = (   0.000000   0.000000   1.913273 )  

     reciprocal axes: (cart. coord. in units 2 pi/alat)
               b(1) = (  1.000000  0.344461  0.000000 )  
               b(2) = (  0.000000  0.688922  0.000000 )  
               b(3) = (  0.000000  0.000000  0.522665 )  


     PseudoPot. # 1 for Lu read from file:
     /home/pragov/projects/rrg-bengioy-ad/pragov/crystal_structure_design/SSSP/Lu.GGA-PBE-paw-v1.0.UPF
     MD5 check sum: 9ceca61ee0c17e9380a83635bfffa61d
     Pseudo is Projector augmented-wave + core cor, Zval = 25.0
     Generated using ATOMPAW code
     Shape of augmentation charge: BESSEL
     Using radial grid of 1118 points,  8 beta functions with: 
                l(1) =   0
                l(2) =   0
                l(3) =   1
                l(4) =   1
                l(5) =   2
                l(6) =   2
                l(7) =   3
                l(8) =   3
     Q(r) pseudized with 0 coefficients 


     PseudoPot. # 2 for Mn read from file:
     /home/pragov/projects/rrg-bengioy-ad/pragov/crystal_structure_design/SSSP/mn_pbe_v1.5.uspp.F.UPF
     MD5 check sum: 82ef2b46521d7a7d9e736dc3972e4928
     Pseudo is Ultrasoft + core correction, Zval = 15.0
     Generated by new atomic code, or converted to UPF format
     Using radial grid of  859 points,  6 beta functions with: 
                l(1) =   0
                l(2) =   0
                l(3) =   1
                l(4) =   1
                l(5) =   2
                l(6) =   2
     Q(r) pseudized with  8 coefficients,  rinner =    0.950   0.950   0.950
                                                       0.950   0.950

     PseudoPot. # 3 for Si read from file:
     /home/pragov/projects/rrg-bengioy-ad/pragov/crystal_structure_design/SSSP/Si.pbe-n-rrkjus_psl.1.0.0.UPF
     MD5 check sum: 0b0bb1205258b0d07b9f9672cf965d36
     Pseudo is Ultrasoft + core correction, Zval =  4.0
     Generated using "atomic" code by A. Dal Corso  v.5.1
     Using radial grid of 1141 points,  6 beta functions with: 
                l(1) =   0
                l(2) =   0
                l(3) =   1
                l(4) =   1
                l(5) =   2
                l(6) =   2
     Q(r) pseudized with 0 coefficients 


     PseudoPot. # 4 for C  read from file:
     /home/pragov/projects/rrg-bengioy-ad/pragov/crystal_structure_design/SSSP/C.pbe-n-kjpaw_psl.1.0.0.UPF
     MD5 check sum: 5d2aebdfa2cae82b50a7e79e9516da0f
     Pseudo is Projector augmented-wave + core cor, Zval =  4.0
     Generated using "atomic" code by A. Dal Corso  v.5.1
     Shape of augmentation charge: PSQ
     Using radial grid of 1073 points,  4 beta functions with: 
                l(1) =   0
                l(2) =   0
                l(3) =   1
                l(4) =   1
     Q(r) pseudized with 0 coefficients 


     atomic species   valence    mass     pseudopotential
        Lu            25.00   174.96680     Lu( 1.00)
        Mn            15.00    54.93804     Mn( 1.00)
        Si             4.00    28.08500     Si( 1.00)
        C              4.00    12.01100     C ( 1.00)

      8 Sym. Ops., with inversion, found ( 4 have fractional translation)


                                    s                        frac. trans.

      isym =  1     identity                                     

 cryst.   s( 1) = (     1          0          0      )
                  (     0          1          0      )
                  (     0          0          1      )

 cart.    s( 1) = (  1.0000000 -0.0000000  0.0000000 )
                  (  0.0000000  1.0000000  0.0000000 )
                  (  0.0000000  0.0000000  1.0000000 )


      isym =  2     180 deg rotation - cart. axis [0,0,1]        

 cryst.   s( 2) = (    -1          0          0      )    f =( -0.0000000 )
                  (     0         -1          0      )       ( -0.0000000 )
                  (     0          0          1      )       ( -0.5000000 )

 cart.    s( 2) = ( -1.0000000  0.0000000  0.0000000 )    f =( -0.0000000 )
                  (  0.0000000 -1.0000000  0.0000000 )       ( -0.0000000 )
                  (  0.0000000  0.0000000  1.0000000 )       ( -0.9566363 )


      isym =  3     180 deg rotation - cart. axis [0,1,0]        

 cryst.   s( 3) = (    -1          0          0      )    f =( -0.0000010 )
                  (     1          1          0      )       (  0.0000000 )
                  (     0          0         -1      )       (  0.5000000 )

 cart.    s( 3) = ( -1.0000000 -0.0000002  0.0000000 )    f =( -0.0000010 )
                  (  0.0000000  1.0000000  0.0000000 )       (  0.0000000 )
                  (  0.0000000  0.0000000 -1.0000000 )       (  0.9566363 )


      isym =  4     180 deg rotation - cart. axis [1,0,0]        

 cryst.   s( 4) = (     1          0          0      )
                  (    -1         -1          0      )
                  (     0          0         -1      )

 cart.    s( 4) = (  1.0000000  0.0000002  0.0000000 )
                  (  0.0000000 -1.0000000  0.0000000 )
                  (  0.0000000  0.0000000 -1.0000000 )


      isym =  5     inversion                                    

 cryst.   s( 5) = (    -1          0          0      )
                  (     0         -1          0      )
                  (     0          0         -1      )

 cart.    s( 5) = ( -1.0000000  0.0000000  0.0000000 )
                  (  0.0000000 -1.0000000  0.0000000 )
                  (  0.0000000  0.0000000 -1.0000000 )


      isym =  6     inv. 180 deg rotation - cart. axis [0,0,1]   

 cryst.   s( 6) = (     1          0          0      )    f =(  0.0000000 )
                  (     0          1          0      )       (  0.0000000 )
                  (     0          0         -1      )       (  0.5000000 )

 cart.    s( 6) = (  1.0000000 -0.0000000  0.0000000 )    f =(  0.0000000 )
                  (  0.0000000  1.0000000  0.0000000 )       (  0.0000000 )
                  (  0.0000000  0.0000000 -1.0000000 )       (  0.9566363 )


      isym =  7     inv. 180 deg rotation - cart. axis [0,1,0]   

 cryst.   s( 7) = (     1          0          0      )    f =( -0.0000010 )
                  (    -1         -1          0      )       ( -0.0000000 )
                  (     0          0          1      )       ( -0.5000000 )

 cart.    s( 7) = (  1.0000000  0.0000002  0.0000000 )    f =( -0.0000010 )
                  (  0.0000000 -1.0000000  0.0000000 )       ( -0.0000000 )
                  (  0.0000000  0.0000000  1.0000000 )       ( -0.9566363 )


      isym =  8     inv. 180 deg rotation - cart. axis [1,0,0]   

 cryst.   s( 8) = (    -1          0          0      )
                  (     1          1          0      )
                  (     0          0          1      )

 cart.    s( 8) = ( -1.0000000 -0.0000002  0.0000000 )
                  (  0.0000000  1.0000000  0.0000000 )
                  (  0.0000000  0.0000000  1.0000000 )


   Cartesian axes

     site n.     atom                  positions (alat units)
         1           Lu  tau(   1) = (   0.0000004   1.3269872   0.4783181  )
         2           Lu  tau(   2) = (   0.4999995   0.1245554   1.4349544  )
         3           Mn  tau(   3) = (   0.0000005   0.4871972   0.1158487  )
         4           Mn  tau(   4) = (   0.4999994   0.9643454   1.7974239  )
         5           Mn  tau(   5) = (   0.4999994   0.9643454   1.0724849  )
         6           Mn  tau(   6) = (   0.0000005   0.4871972   0.8407876  )
         7           Si  tau(   7) = (   0.4999999   0.6861268   0.4783181  )
         8           Si  tau(   8) = (  -0.0000001   0.7654159   1.4349544  )
         9           C   tau(   9) = (   0.0000000   0.0000000   0.0000000  )
        10           C   tau(  10) = (   0.0000000   0.0000000   0.9566363  )

   Crystallographic axes

     site n.     atom                  positions (cryst. coord.)
         1           Lu  tau(   1) = (  0.4570960  0.9141910  0.2500000  )
         2           Lu  tau(   2) = (  0.5429040  0.0858090  0.7500000  )
         3           Mn  tau(   3) = (  0.1678210  0.3356410  0.0605500  )
         4           Mn  tau(   4) = (  0.8321790  0.6643590  0.9394500  )
         5           Mn  tau(   5) = (  0.8321790  0.6643590  0.5605500  )
         6           Mn  tau(   6) = (  0.1678210  0.3356410  0.4394500  )
         7           Si  tau(   7) = (  0.7363440  0.4726880  0.2500000  )
         8           Si  tau(   8) = (  0.2636560  0.5273120  0.7500000  )
         9           C   tau(   9) = (  0.0000000  0.0000000  0.0000000  )
        10           C   tau(  10) = (  0.0000000  0.0000000  0.5000000  )

     number of k points=     1  Methfessel-Paxton smearing, width (Ry)=  0.0010
                       cart. coord. in units 2pi/alat
        k(    1) = (   0.0000000   0.0000000   0.0000000), wk =   2.0000000

                       cryst. coord.
        k(    1) = (   0.0000000   0.0000000   0.0000000), wk =   2.0000000

     Dense  grid:    28241 G-vectors     FFT dimensions: (  36,  54,  72)

     Smooth grid:     9979 G-vectors     FFT dimensions: (  24,  40,  48)

     Dynamical RAM for                 wfc:       0.05 MB

     Dynamical RAM for     wfc (w. buffer):       0.05 MB

     Dynamical RAM for           str. fact:       0.05 MB

     Dynamical RAM for           local pot:       0.00 MB

     Dynamical RAM for          nlocal pot:       0.11 MB

     Dynamical RAM for                qrad:      11.94 MB

     Dynamical RAM for          rho,v,vnew:       0.17 MB

     Dynamical RAM for               rhoin:       0.06 MB

     Dynamical RAM for            rho*nmix:       0.22 MB

     Dynamical RAM for           G-vectors:       0.05 MB

     Dynamical RAM for          h,s,v(r/c):       0.02 MB

     Dynamical RAM for          <psi|beta>:       0.11 MB

     Dynamical RAM for                 psi:       0.09 MB

     Dynamical RAM for                hpsi:       0.09 MB

     Dynamical RAM for                spsi:       0.09 MB

     Dynamical RAM for      wfcinit/wfcrot:       0.56 MB

     Dynamical RAM for           addusdens:       7.54 MB

     Dynamical RAM for          addusforce:       7.68 MB

     Dynamical RAM for         addusstress:       7.85 MB

     Estimated static dynamical RAM per process >      12.73 MB

     Estimated max dynamical RAM per process >      20.80 MB

     Estimated total dynamical RAM >     665.45 MB

     Check: negative core charge=   -0.000026

     Initial potential from superposition of free atoms

     starting charge     123.9909, renormalised to     126.0000
     Starting wfcs are  132 randomized atomic wfcs
     Checking if some PAW data can be deallocated... 
       PAW data deallocated on   24 nodes for type:  1
       PAW data deallocated on   26 nodes for type:  4

     total cpu time spent up to now is        1.6 secs

     Self-consistent Calculation

     iteration #  1     ecut=    30.00 Ry     beta= 0.70
     Davidson diagonalization with overlap

---- Real-time Memory Report at c_bands before calling an iterative solver
           168 MiB given to the printing process from OS
             0 MiB allocation reported by mallinfo(arena+hblkhd)
        172701 MiB available memory on the node where the printing process lives
------------------
     ethr =  1.00E-02,  avg # of iterations =  2.0

     total cpu time spent up to now is        1.9 secs

     total energy              =   -2923.97667337 Ry
     estimated scf accuracy    <     116.88063884 Ry

     iteration #  2     ecut=    30.00 Ry     beta= 0.70
     Davidson diagonalization with overlap

---- Real-time Memory Report at c_bands before calling an iterative solver
           183 MiB given to the printing process from OS
             0 MiB allocation reported by mallinfo(arena+hblkhd)
        172501 MiB available memory on the node where the printing process lives
------------------
     c_bands:  4 eigenvalues not converged
     ethr =  1.00E-02,  avg # of iterations = 20.0

     total cpu time spent up to now is        2.4 secs

     total energy              =   -3057.05251074 Ry
     estimated scf accuracy    <     713.98214492 Ry

     iteration #  3     ecut=    30.00 Ry     beta= 0.70
     Davidson diagonalization with overlap

---- Real-time Memory Report at c_bands before calling an iterative solver
           188 MiB given to the printing process from OS
             0 MiB allocation reported by mallinfo(arena+hblkhd)
        172439 MiB available memory on the node where the printing process lives
------------------
     ethr =  1.00E-02,  avg # of iterations = 12.0

     total cpu time spent up to now is        2.9 secs

     total energy              =   -3074.64398514 Ry
     estimated scf accuracy    <     135.47416820 Ry

     iteration #  4     ecut=    30.00 Ry     beta= 0.70
     Davidson diagonalization with overlap

---- Real-time Memory Report at c_bands before calling an iterative solver
           189 MiB given to the printing process from OS
             0 MiB allocation reported by mallinfo(arena+hblkhd)
        172439 MiB available memory on the node where the printing process lives
------------------
     ethr =  1.00E-02,  avg # of iterations =  4.0

     total cpu time spent up to now is        3.2 secs

     total energy              =   -3069.17038864 Ry
     estimated scf accuracy    <      30.28775881 Ry

     iteration #  5     ecut=    30.00 Ry     beta= 0.70
     Davidson diagonalization with overlap

---- Real-time Memory Report at c_bands before calling an iterative solver
           190 MiB given to the printing process from OS
             0 MiB allocation reported by mallinfo(arena+hblkhd)
        172436 MiB available memory on the node where the printing process lives
------------------
     ethr =  1.00E-02,  avg # of iterations =  5.0

     total cpu time spent up to now is        3.6 secs

     total energy              =   -3070.07220189 Ry
     estimated scf accuracy    <      19.72641315 Ry

     iteration #  6     ecut=    30.00 Ry     beta= 0.70
     Davidson diagonalization with overlap

---- Real-time Memory Report at c_bands before calling an iterative solver
           190 MiB given to the printing process from OS
             0 MiB allocation reported by mallinfo(arena+hblkhd)
        172436 MiB available memory on the node where the printing process lives
------------------
     ethr =  1.00E-02,  avg # of iterations =  2.0

     total cpu time spent up to now is        3.9 secs

     total energy              =   -3070.53537654 Ry
     estimated scf accuracy    <       5.87137787 Ry

     iteration #  7     ecut=    30.00 Ry     beta= 0.70
     Davidson diagonalization with overlap

---- Real-time Memory Report at c_bands before calling an iterative solver
           191 MiB given to the printing process from OS
             0 MiB allocation reported by mallinfo(arena+hblkhd)
        172426 MiB available memory on the node where the printing process lives
------------------
     ethr =  4.66E-03,  avg # of iterations =  1.0

     total cpu time spent up to now is        4.2 secs

     total energy              =   -3070.60296751 Ry
     estimated scf accuracy    <       5.79578712 Ry

     iteration #  8     ecut=    30.00 Ry     beta= 0.70
     Davidson diagonalization with overlap

---- Real-time Memory Report at c_bands before calling an iterative solver
           191 MiB given to the printing process from OS
             0 MiB allocation reported by mallinfo(arena+hblkhd)
        172423 MiB available memory on the node where the printing process lives
------------------
     ethr =  4.60E-03,  avg # of iterations =  1.0

     total cpu time spent up to now is        4.5 secs

     total energy              =   -3070.59917414 Ry
     estimated scf accuracy    <       5.69680336 Ry

     iteration #  9     ecut=    30.00 Ry     beta= 0.70
     Davidson diagonalization with overlap

---- Real-time Memory Report at c_bands before calling an iterative solver
           192 MiB given to the printing process from OS
             0 MiB allocation reported by mallinfo(arena+hblkhd)
        172423 MiB available memory on the node where the printing process lives
------------------
     ethr =  4.52E-03,  avg # of iterations =  1.0

     total cpu time spent up to now is        4.9 secs

     total energy              =   -3070.82328703 Ry
     estimated scf accuracy    <       5.63639434 Ry

     iteration # 10     ecut=    30.00 Ry     beta= 0.70
     Davidson diagonalization with overlap

---- Real-time Memory Report at c_bands before calling an iterative solver
           192 MiB given to the printing process from OS
             0 MiB allocation reported by mallinfo(arena+hblkhd)
        172423 MiB available memory on the node where the printing process lives
------------------
     ethr =  4.47E-03,  avg # of iterations =  1.0

     total cpu time spent up to now is        5.2 secs

     total energy              =   -3061.46931541 Ry
     estimated scf accuracy    <       8.40980441 Ry

     iteration # 11     ecut=    30.00 Ry     beta= 0.70
     Davidson diagonalization with overlap

---- Real-time Memory Report at c_bands before calling an iterative solver
           192 MiB given to the printing process from OS
             0 MiB allocation reported by mallinfo(arena+hblkhd)
        172423 MiB available memory on the node where the printing process lives
------------------
     ethr =  4.47E-03,  avg # of iterations =  2.0

     total cpu time spent up to now is        5.5 secs

     total energy              =   -3064.04236380 Ry
     estimated scf accuracy    <       8.93088165 Ry

     iteration # 12     ecut=    30.00 Ry     beta= 0.70
     Davidson diagonalization with overlap

---- Real-time Memory Report at c_bands before calling an iterative solver
           193 MiB given to the printing process from OS
             0 MiB allocation reported by mallinfo(arena+hblkhd)
        172423 MiB available memory on the node where the printing process lives
------------------
     ethr =  4.47E-03,  avg # of iterations =  2.0

     total cpu time spent up to now is        5.9 secs

     total energy              =   -3064.68482180 Ry
     estimated scf accuracy    <       4.74063328 Ry

     iteration # 13     ecut=    30.00 Ry     beta= 0.70
     Davidson diagonalization with overlap

---- Real-time Memory Report at c_bands before calling an iterative solver
           193 MiB given to the printing process from OS
             0 MiB allocation reported by mallinfo(arena+hblkhd)
        172423 MiB available memory on the node where the printing process lives
------------------
     ethr =  3.76E-03,  avg # of iterations =  2.0

     total cpu time spent up to now is        6.2 secs

     total energy              =   -3064.89186234 Ry
     estimated scf accuracy    <       0.74096614 Ry

     iteration # 14     ecut=    30.00 Ry     beta= 0.70
     Davidson diagonalization with overlap

---- Real-time Memory Report at c_bands before calling an iterative solver
           193 MiB given to the printing process from OS
             0 MiB allocation reported by mallinfo(arena+hblkhd)
        172423 MiB available memory on the node where the printing process lives
------------------
     ethr =  5.88E-04,  avg # of iterations =  8.0

     total cpu time spent up to now is        6.6 secs

     total energy              =   -3064.92846914 Ry
     estimated scf accuracy    <       2.72905450 Ry

     iteration # 15     ecut=    30.00 Ry     beta= 0.70
     Davidson diagonalization with overlap

---- Real-time Memory Report at c_bands before calling an iterative solver
           193 MiB given to the printing process from OS
             0 MiB allocation reported by mallinfo(arena+hblkhd)
        172423 MiB available memory on the node where the printing process lives
------------------
     ethr =  5.88E-04,  avg # of iterations =  2.0

     total cpu time spent up to now is        6.9 secs

     total energy              =   -3064.98102238 Ry
     estimated scf accuracy    <       1.53482477 Ry

     iteration # 16     ecut=    30.00 Ry     beta= 0.70
     Davidson diagonalization with overlap

---- Real-time Memory Report at c_bands before calling an iterative solver
           193 MiB given to the printing process from OS
             0 MiB allocation reported by mallinfo(arena+hblkhd)
        172423 MiB available memory on the node where the printing process lives
------------------
     ethr =  5.88E-04,  avg # of iterations =  1.0

     total cpu time spent up to now is        7.2 secs

     total energy              =   -3064.91637059 Ry
     estimated scf accuracy    <       0.53858178 Ry

     iteration # 17     ecut=    30.00 Ry     beta= 0.70
     Davidson diagonalization with overlap

---- Real-time Memory Report at c_bands before calling an iterative solver
           193 MiB given to the printing process from OS
             0 MiB allocation reported by mallinfo(arena+hblkhd)
        172423 MiB available memory on the node where the printing process lives
------------------
     ethr =  4.27E-04,  avg # of iterations =  2.0

     total cpu time spent up to now is        7.5 secs

     total energy              =   -3064.92416865 Ry
     estimated scf accuracy    <       0.47249373 Ry

     iteration # 18     ecut=    30.00 Ry     beta= 0.70
     Davidson diagonalization with overlap

---- Real-time Memory Report at c_bands before calling an iterative solver
           193 MiB given to the printing process from OS
             0 MiB allocation reported by mallinfo(arena+hblkhd)
        172423 MiB available memory on the node where the printing process lives
------------------
     ethr =  3.75E-04,  avg # of iterations =  2.0

     total cpu time spent up to now is        7.9 secs

     total energy              =   -3064.88891840 Ry
     estimated scf accuracy    <       0.87609145 Ry

     iteration # 19     ecut=    30.00 Ry     beta= 0.70
     Davidson diagonalization with overlap

---- Real-time Memory Report at c_bands before calling an iterative solver
           194 MiB given to the printing process from OS
             0 MiB allocation reported by mallinfo(arena+hblkhd)
        172424 MiB available memory on the node where the printing process lives
------------------
     ethr =  3.75E-04,  avg # of iterations =  3.0

     total cpu time spent up to now is        8.2 secs

     total energy              =   -3064.90007883 Ry
     estimated scf accuracy    <       1.42483921 Ry

     iteration # 20     ecut=    30.00 Ry     beta= 0.70
     Davidson diagonalization with overlap

---- Real-time Memory Report at c_bands before calling an iterative solver
           194 MiB given to the printing process from OS
             0 MiB allocation reported by mallinfo(arena+hblkhd)
        172424 MiB available memory on the node where the printing process lives
------------------
     ethr =  3.75E-04,  avg # of iterations =  1.0

     total cpu time spent up to now is        8.5 secs

     total energy              =   -3064.96056274 Ry
     estimated scf accuracy    <       0.04955078 Ry

     iteration # 21     ecut=    30.00 Ry     beta= 0.70
     Davidson diagonalization with overlap

---- Real-time Memory Report at c_bands before calling an iterative solver
           194 MiB given to the printing process from OS
             0 MiB allocation reported by mallinfo(arena+hblkhd)
        172424 MiB available memory on the node where the printing process lives
------------------
     ethr =  3.93E-05,  avg # of iterations =  2.0

     total cpu time spent up to now is        8.9 secs

     total energy              =   -3064.96154154 Ry
     estimated scf accuracy    <       0.04049669 Ry

     iteration # 22     ecut=    30.00 Ry     beta= 0.70
     Davidson diagonalization with overlap

---- Real-time Memory Report at c_bands before calling an iterative solver
           194 MiB given to the printing process from OS
             0 MiB allocation reported by mallinfo(arena+hblkhd)
        172425 MiB available memory on the node where the printing process lives
------------------
     ethr =  3.21E-05,  avg # of iterations =  2.0

     total cpu time spent up to now is        9.2 secs

     total energy              =   -3064.96336630 Ry
     estimated scf accuracy    <       0.03252440 Ry

     iteration # 23     ecut=    30.00 Ry     beta= 0.70
     Davidson diagonalization with overlap

---- Real-time Memory Report at c_bands before calling an iterative solver
           194 MiB given to the printing process from OS
             0 MiB allocation reported by mallinfo(arena+hblkhd)
        172425 MiB available memory on the node where the printing process lives
------------------
     ethr =  2.58E-05,  avg # of iterations =  1.0

     total cpu time spent up to now is        9.5 secs

     total energy              =   -3064.96171702 Ry
     estimated scf accuracy    <       0.07037417 Ry

     iteration # 24     ecut=    30.00 Ry     beta= 0.70
     Davidson diagonalization with overlap

---- Real-time Memory Report at c_bands before calling an iterative solver
           194 MiB given to the printing process from OS
             0 MiB allocation reported by mallinfo(arena+hblkhd)
        172425 MiB available memory on the node where the printing process lives
------------------
     ethr =  2.58E-05,  avg # of iterations =  1.0

     total cpu time spent up to now is       10.0 secs

     total energy              =   -3064.96466945 Ry
     estimated scf accuracy    <       0.00905983 Ry

     iteration # 25     ecut=    30.00 Ry     beta= 0.70
     Davidson diagonalization with overlap

---- Real-time Memory Report at c_bands before calling an iterative solver
           194 MiB given to the printing process from OS
             0 MiB allocation reported by mallinfo(arena+hblkhd)
        172425 MiB available memory on the node where the printing process lives
------------------
     ethr =  7.19E-06,  avg # of iterations =  3.0

     total cpu time spent up to now is       10.3 secs

     total energy              =   -3064.95506190 Ry
     estimated scf accuracy    <       0.56867274 Ry

     iteration # 26     ecut=    30.00 Ry     beta= 0.70
     Davidson diagonalization with overlap

---- Real-time Memory Report at c_bands before calling an iterative solver
           194 MiB given to the printing process from OS
             0 MiB allocation reported by mallinfo(arena+hblkhd)
        172425 MiB available memory on the node where the printing process lives
------------------
     ethr =  7.19E-06,  avg # of iterations =  2.0

     total cpu time spent up to now is       10.7 secs

     total energy              =   -3064.96502884 Ry
     estimated scf accuracy    <       0.00578188 Ry

     iteration # 27     ecut=    30.00 Ry     beta= 0.70
     Davidson diagonalization with overlap

---- Real-time Memory Report at c_bands before calling an iterative solver
           194 MiB given to the printing process from OS
             0 MiB allocation reported by mallinfo(arena+hblkhd)
        172426 MiB available memory on the node where the printing process lives
------------------
     ethr =  4.59E-06,  avg # of iterations =  1.0

     total cpu time spent up to now is       11.0 secs

     total energy              =   -3064.96503241 Ry
     estimated scf accuracy    <       0.00439884 Ry

     iteration # 28     ecut=    30.00 Ry     beta= 0.70
     Davidson diagonalization with overlap

---- Real-time Memory Report at c_bands before calling an iterative solver
           194 MiB given to the printing process from OS
             0 MiB allocation reported by mallinfo(arena+hblkhd)
        172427 MiB available memory on the node where the printing process lives
------------------
     ethr =  3.49E-06,  avg # of iterations =  1.0

     total cpu time spent up to now is       11.3 secs

     total energy              =   -3064.96508308 Ry
     estimated scf accuracy    <       0.00159625 Ry

     iteration # 29     ecut=    30.00 Ry     beta= 0.70
     Davidson diagonalization with overlap

---- Real-time Memory Report at c_bands before calling an iterative solver
           194 MiB given to the printing process from OS
             0 MiB allocation reported by mallinfo(arena+hblkhd)
        172427 MiB available memory on the node where the printing process lives
------------------
     ethr =  1.27E-06,  avg # of iterations =  1.0

     total cpu time spent up to now is       11.7 secs

     total energy              =   -3064.96510196 Ry
     estimated scf accuracy    <       0.00083380 Ry

     iteration # 30     ecut=    30.00 Ry     beta= 0.70
     Davidson diagonalization with overlap

---- Real-time Memory Report at c_bands before calling an iterative solver
           194 MiB given to the printing process from OS
             0 MiB allocation reported by mallinfo(arena+hblkhd)
        172427 MiB available memory on the node where the printing process lives
------------------
     ethr =  6.62E-07,  avg # of iterations =  1.0

     total cpu time spent up to now is       12.0 secs

     total energy              =   -3064.96513021 Ry
     estimated scf accuracy    <       0.00038509 Ry

     iteration # 31     ecut=    30.00 Ry     beta= 0.70
     Davidson diagonalization with overlap

---- Real-time Memory Report at c_bands before calling an iterative solver
           194 MiB given to the printing process from OS
             0 MiB allocation reported by mallinfo(arena+hblkhd)
        172427 MiB available memory on the node where the printing process lives
------------------
     ethr =  3.06E-07,  avg # of iterations =  1.0

     total cpu time spent up to now is       12.3 secs

     total energy              =   -3064.96513623 Ry
     estimated scf accuracy    <       0.00021215 Ry

     iteration # 32     ecut=    30.00 Ry     beta= 0.70
     Davidson diagonalization with overlap

---- Real-time Memory Report at c_bands before calling an iterative solver
           194 MiB given to the printing process from OS
             0 MiB allocation reported by mallinfo(arena+hblkhd)
        172427 MiB available memory on the node where the printing process lives
------------------
     ethr =  1.68E-07,  avg # of iterations =  1.0

     total cpu time spent up to now is       12.6 secs

     total energy              =   -3064.96514264 Ry
     estimated scf accuracy    <       0.00008479 Ry

     iteration # 33     ecut=    30.00 Ry     beta= 0.70
     Davidson diagonalization with overlap

---- Real-time Memory Report at c_bands before calling an iterative solver
           194 MiB given to the printing process from OS
             0 MiB allocation reported by mallinfo(arena+hblkhd)
        172427 MiB available memory on the node where the printing process lives
------------------
     ethr =  6.73E-08,  avg # of iterations =  1.0

     total cpu time spent up to now is       12.9 secs

     total energy              =   -3064.96514361 Ry
     estimated scf accuracy    <       0.00007515 Ry

     iteration # 34     ecut=    30.00 Ry     beta= 0.70
     Davidson diagonalization with overlap

---- Real-time Memory Report at c_bands before calling an iterative solver
           194 MiB given to the printing process from OS
             0 MiB allocation reported by mallinfo(arena+hblkhd)
        172428 MiB available memory on the node where the printing process lives
------------------
     ethr =  5.96E-08,  avg # of iterations =  1.0

     total cpu time spent up to now is       13.3 secs

     total energy              =   -3064.96514076 Ry
     estimated scf accuracy    <       0.00003264 Ry

     iteration # 35     ecut=    30.00 Ry     beta= 0.70
     Davidson diagonalization with overlap

---- Real-time Memory Report at c_bands before calling an iterative solver
           194 MiB given to the printing process from OS
             0 MiB allocation reported by mallinfo(arena+hblkhd)
        172428 MiB available memory on the node where the printing process lives
------------------
     ethr =  2.59E-08,  avg # of iterations =  2.0

     total cpu time spent up to now is       13.6 secs

     total energy              =   -3064.96514034 Ry
     estimated scf accuracy    <       0.00010418 Ry

     iteration # 36     ecut=    30.00 Ry     beta= 0.70
     Davidson diagonalization with overlap

---- Real-time Memory Report at c_bands before calling an iterative solver
           194 MiB given to the printing process from OS
             0 MiB allocation reported by mallinfo(arena+hblkhd)
        172428 MiB available memory on the node where the printing process lives
------------------
     ethr =  2.59E-08,  avg # of iterations =  1.0

     total cpu time spent up to now is       13.9 secs

     End of self-consistent calculation

          k = 0.0000 0.0000 0.0000 (  1248 PWs)   bands (ev):

   -62.9572 -62.9456 -62.9348 -62.9215 -40.0595 -40.0531 -32.1512 -32.1341
   -32.0620 -32.0531 -31.6660 -31.6452 -31.5728 -31.5637 -31.4496 -31.4370
   -31.3317 -31.3231 -10.8673 -10.8304 -10.8238 -10.6697 -10.6085 -10.5814
     4.2200   5.8661   6.9479   7.2777  10.6652  10.9639  11.1949  11.2434
    11.2494  11.2982  11.3026  11.3104  11.3244  11.3281  11.3461  11.3485
    11.3499  11.3528  11.3804  11.5690  12.0189  12.2689  12.3482  12.5436
    12.7066  12.8510  13.0638  13.6550  13.7896  13.8757  14.2562  14.3930
    14.5186  14.5441  14.6906  15.0757  15.5654  15.9866  16.1319  16.1424
    16.2394  16.7675  16.8340  16.8895  17.4938  17.5878  18.0089  18.4193
    19.8034  19.8282  20.2016  20.3705

     occupation numbers 
     1.0000   1.0000   1.0000   1.0000   1.0000   1.0000   1.0000   1.0000
     1.0000   1.0000   1.0000   1.0000   1.0000   1.0000   1.0000   1.0000
     1.0000   1.0000   1.0000   1.0000   1.0000   1.0000   1.0000   1.0000
     1.0000   1.0000   1.0000   1.0000   1.0000   1.0000   1.0000   1.0000
     1.0000   1.0000   1.0000   1.0000   1.0000   1.0000   1.0000   1.0000
     1.0000   1.0000   1.0000   1.0000   1.0000   1.0000   1.0000   1.0000
     1.0000   1.0000   1.0000   1.0000   1.0000   1.0000   1.0000   1.0000
     1.0000   1.0000   1.0000   1.0000   1.0000   1.0000   0.7994   0.2006
    -0.0000  -0.0000  -0.0000  -0.0000  -0.0000  -0.0000  -0.0000  -0.0000
    -0.0000  -0.0000  -0.0000  -0.0000

     the Fermi energy is    16.1372 ev

!    total energy              =   -3064.96514341 Ry
     estimated scf accuracy    <       0.00000088 Ry
     smearing contrib. (-TS)   =      -0.00034403 Ry
     internal energy E=F+TS    =   -3064.96479938 Ry

     The total energy is F=E-TS. E is the sum of the following terms:
     one-electron contribution =   -1226.83218943 Ry
     hartree contribution      =     607.81092909 Ry
     xc contribution           =    -210.69735615 Ry
     ewald contribution        =   -1241.04513943 Ry
     one-center paw contrib.   =    -994.20104346 Ry
      -> PAW hartree energy AE =     490.99531162 Ry
      -> PAW hartree energy PS =    -422.60983695 Ry
      -> PAW xc energy AE      =    -599.32917016 Ry
      -> PAW xc energy PS      =      40.01638021 Ry
      -> total E_H with PAW    =     676.19640376 Ry
      -> total E_XC with PAW   =    -770.01014610 Ry

     convergence has been achieved in  36 iterations

     Forces acting on atoms (cartesian axes, Ry/au):

     atom    1 type  1   force =    -0.00000000    0.02289217   -0.00000000
     atom    2 type  1   force =     0.00000000   -0.02289217    0.00000000
     atom    3 type  2   force =    -0.00000000    0.02011836   -0.05357285
     atom    4 type  2   force =     0.00000000   -0.02011836    0.05357285
     atom    5 type  2   force =     0.00000000   -0.02011836   -0.05357285
     atom    6 type  2   force =     0.00000000    0.02011836    0.05357285
     atom    7 type  3   force =     0.00000000   -0.04719994   -0.00000000
     atom    8 type  3   force =     0.00000000    0.04719994    0.00000000
     atom    9 type  4   force =     0.00000000   -0.00000000   -0.00000000
     atom   10 type  4   force =     0.00000000    0.00000000    0.00000000
     The non-local contrib.  to forces
     atom    1 type  1   force =     0.00000000    0.04601921    0.00000000
     atom    2 type  1   force =     0.00000000   -0.04601921    0.00000000
     atom    3 type  2   force =     0.00000000    0.18024859    0.40537064
     atom    4 type  2   force =     0.00000000   -0.18024859   -0.40537064
     atom    5 type  2   force =     0.00000000   -0.18024859    0.40537064
     atom    6 type  2   force =     0.00000000    0.18024859   -0.40537064
     atom    7 type  3   force =     0.00000000   -0.04137025    0.00000000
     atom    8 type  3   force =     0.00000000    0.04137025    0.00000000
     atom    9 type  4   force =     0.00000000    0.00000000   -0.00000000
     atom   10 type  4   force =     0.00000000    0.00000000   -0.00000000
     The ionic contribution  to forces
     atom    1 type  1   force =    -0.00004801   -3.36662696    0.00000000
     atom    2 type  1   force =     0.00004801    3.36662696   -0.00000000
     atom    3 type  2   force =    -0.00005084    5.44309535    0.38557212
     atom    4 type  2   force =     0.00005084   -5.44309535   -0.38557212
     atom    5 type  2   force =     0.00005084   -5.44309535    0.38557211
     atom    6 type  2   force =    -0.00005084    5.44309535   -0.38557211
     atom    7 type  3   force =     0.00002500    0.37166696    0.00000000
     atom    8 type  3   force =    -0.00002500   -0.37166696   -0.00000000
     atom    9 type  4   force =     0.00000000    0.00000000    0.00000000
     atom   10 type  4   force =     0.00000000    0.00000000   -0.00000000
     The local contribution  to forces
     atom    1 type  1   force =    -0.00015949    3.34274590    0.00058104
     atom    2 type  1   force =    -0.00038756   -3.34411411   -0.00116762
     atom    3 type  2   force =     0.00020789   -5.60200500   -0.82352639
     atom    4 type  2   force =    -0.00002832    5.60275454    0.82944606
     atom    5 type  2   force =    -0.00013882    5.60196472   -0.83005865
     atom    6 type  2   force =     0.00007729   -5.60160432    0.82428657
     atom    7 type  3   force =    -0.00005429   -0.38122911    0.00029388
     atom    8 type  3   force =     0.00003115    0.38147231   -0.00027852
     atom    9 type  4   force =     0.00005244   -0.00030627    0.00080604
     atom   10 type  4   force =     0.00005033   -0.00021045   -0.00080995
     The core correction contribution to forces
     atom    1 type  1   force =    -0.00000000   -0.00000349   -0.00000000
     atom    2 type  1   force =    -0.00000000    0.00000348   -0.00000000
     atom    3 type  2   force =     0.00000479   -0.00042528   -0.01750881
     atom    4 type  2   force =    -0.00001107    0.00043051    0.01751214
     atom    5 type  2   force =     0.00001002    0.00042897   -0.01751814
     atom    6 type  2   force =    -0.00001311   -0.00042626    0.01751215
     atom    7 type  3   force =     0.00000953    0.00382793   -0.00000134
     atom    8 type  3   force =    -0.00000823   -0.00382371    0.00000329
     atom    9 type  4   force =     0.00000058   -0.00000197    0.00000058
     atom   10 type  4   force =     0.00000057   -0.00000147   -0.00000093
     The Hubbard contrib.    to forces
     atom    1 type  1   force =     0.00000000    0.00000000    0.00000000
     atom    2 type  1   force =     0.00000000    0.00000000    0.00000000
     atom    3 type  2   force =     0.00000000    0.00000000    0.00000000
     atom    4 type  2   force =     0.00000000    0.00000000    0.00000000
     atom    5 type  2   force =     0.00000000    0.00000000    0.00000000
     atom    6 type  2   force =     0.00000000    0.00000000    0.00000000
     atom    7 type  3   force =     0.00000000    0.00000000    0.00000000
     atom    8 type  3   force =     0.00000000    0.00000000    0.00000000
     atom    9 type  4   force =     0.00000000    0.00000000    0.00000000
     atom   10 type  4   force =     0.00000000    0.00000000    0.00000000
     The SCF correction term to forces
     atom    1 type  1   force =     0.00023661    0.00080778   -0.00059333
     atom    2 type  1   force =     0.00040647    0.00066096    0.00133488
     atom    3 type  2   force =    -0.00013949   -0.00081407   -0.00378820
     atom    4 type  2   force =    -0.00009083    0.00010829   -0.00282940
     atom    5 type  2   force =     0.00013426    0.00078282    0.00332185
     atom    6 type  2   force =    -0.00013936   -0.00115753    0.00305659
     atom    7 type  3   force =     0.00001504   -0.00005487   -0.00028358
     atom    8 type  3   force =     0.00000352   -0.00011134    0.00028895
     atom    9 type  4   force =    -0.00002743    0.00021067   -0.00080232
     atom   10 type  4   force =    -0.00002385    0.00015659    0.00079553

     Total force =     0.136393     Total SCF correction =     0.007099


     Computing stress (Cartesian axis) and pressure

          total   stress  (Ry/bohr**3)                   (kbar)     P=     -221.08
  -0.00210917  -0.00000000   0.00000000         -310.27       -0.00        0.00
  -0.00000000  -0.00141311   0.00000000           -0.00     -207.88        0.00
   0.00000000   0.00000000  -0.00098635            0.00        0.00     -145.10

     kinetic stress (kbar)  26655.64      0.00      0.00
                                0.00  26107.25      0.00
                                0.00     -0.00  26909.87

     local   stress (kbar)   -662.47      0.07     -0.79
                                0.07  -3487.17     -0.18
                               -0.79     -0.18  -4867.33

     nonloc. stress (kbar)  21115.15      0.00      0.00
                                0.00  20731.72      0.00
                                0.00      0.00  21313.18

     hartree stress (kbar)  32402.34     -0.02      0.29
                               -0.02  32962.26      0.08
                                0.29      0.08  33839.99

     exc-cor stress (kbar)  -6485.88     -0.01      0.00
                               -0.01  -6480.56      0.00
                                0.00      0.00  -6481.97

     corecor stress (kbar)  -3895.22     -0.00     -0.01
                               -0.00  -3883.23     -0.00
                               -0.01     -0.00  -3898.13

     ewald   stress (kbar) -69439.82      0.03     -0.00
                                0.03 -66158.15      0.00
                               -0.00      0.00 -66960.70

     hubbard stress (kbar)      0.00      0.00      0.00
                                0.00      0.00      0.00
                                0.00      0.00      0.00

     DFT-D   stress (kbar)      0.00      0.00      0.00
                                0.00      0.00      0.00
                                0.00      0.00      0.00

     XDM     stress (kbar)      0.00      0.00      0.00
                                0.00      0.00      0.00
                                0.00      0.00      0.00

     dft-nl  stress (kbar)      0.00      0.00      0.00
                                0.00      0.00      0.00
                                0.00      0.00      0.00

     TS-vdW  stress (kbar)      0.00      0.00      0.00
                                0.00      0.00      0.00
                                0.00      0.00      0.00


                                0.00      0.00      0.00
                                0.00      0.00      0.00


                                0.00      0.00      0.00


     Writing all to output data dir calculations/myprefix.save/
 
     init_run     :      1.03s CPU      1.08s WALL (       1 calls)
     electrons    :     12.19s CPU     12.39s WALL (       1 calls)
     forces       :      0.08s CPU      0.08s WALL (       1 calls)
     stress       :      0.22s CPU      0.22s WALL (       1 calls)

     Called by init_run:
     wfcinit      :      0.02s CPU      0.04s WALL (       1 calls)
     wfcinit:atom :      0.00s CPU      0.00s WALL (       1 calls)
     wfcinit:wfcr :      0.02s CPU      0.04s WALL (       1 calls)
     potinit      :      0.54s CPU      0.56s WALL (       1 calls)
     hinit0       :      0.42s CPU      0.43s WALL (       1 calls)

     Called by electrons:
     c_bands      :      1.34s CPU      1.39s WALL (      36 calls)
     sum_band     :      0.88s CPU      0.91s WALL (      36 calls)
     v_of_rho     :      0.10s CPU      0.11s WALL (      37 calls)
     v_h          :      0.01s CPU      0.01s WALL (      37 calls)
     v_xc         :      0.10s CPU      0.10s WALL (      39 calls)
     newd         :      0.71s CPU      0.72s WALL (      37 calls)
     PAW_pot      :      9.31s CPU      9.36s WALL (      37 calls)
     mix_rho      :      0.05s CPU      0.06s WALL (      36 calls)

     Called by c_bands:
     init_us_2    :      0.01s CPU      0.01s WALL (      73 calls)
     init_us_2:cp :      0.01s CPU      0.01s WALL (      73 calls)
     regterg      :      1.31s CPU      1.35s WALL (      36 calls)

     Called by sum_band:
     sum_band:wei :      0.00s CPU      0.00s WALL (      36 calls)
     sum_band:loo :      0.09s CPU      0.10s WALL (      36 calls)
     sum_band:buf :      0.00s CPU      0.00s WALL (      36 calls)
     sum_band:ini :      0.00s CPU      0.00s WALL (      36 calls)
     sum_band:cal :      0.02s CPU      0.02s WALL (      36 calls)
     sum_band:bec :      0.00s CPU      0.00s WALL (      36 calls)
     addusdens    :      0.60s CPU      0.61s WALL (      36 calls)
     addusd:skk   :      0.00s CPU      0.00s WALL (     144 calls)
     addusd:dgemm :      0.09s CPU      0.10s WALL (     144 calls)
     addusd:qvan2 :      0.48s CPU      0.48s WALL (     144 calls)

     Called by *egterg:
     rdiaghg      :      0.78s CPU      0.80s WALL (     132 calls)
     regterg:over :      0.08s CPU      0.08s WALL (      96 calls)
     regterg:upda :      0.03s CPU      0.03s WALL (      96 calls)
     regterg:last :      0.05s CPU      0.05s WALL (      62 calls)
     rdiaghg:chol :      0.04s CPU      0.04s WALL (     132 calls)
     rdiaghg:inve :      0.01s CPU      0.01s WALL (     132 calls)
     rdiaghg:para :      0.05s CPU      0.05s WALL (     264 calls)
     h_psi        :      0.36s CPU      0.39s WALL (     133 calls)
     s_psi        :      0.01s CPU      0.01s WALL (     133 calls)
     g_psi        :      0.00s CPU      0.00s WALL (      96 calls)

     Called by h_psi:
     h_psi:calbec :      0.04s CPU      0.05s WALL (     133 calls)
     vloc_psi     :      0.31s CPU      0.33s WALL (     133 calls)
     add_vuspsi   :      0.01s CPU      0.01s WALL (     133 calls)

     General routines
     calbec       :      0.06s CPU      0.06s WALL (     174 calls)
     fft          :      0.51s CPU      0.52s WALL (     425 calls)
     ffts         :      0.27s CPU      0.27s WALL (      73 calls)
     fftw         :      0.34s CPU      0.38s WALL (    7884 calls)
     interpolate  :      0.28s CPU      0.28s WALL (      37 calls)
 
     Parallel routines

     PAW routines
     PAW_pot      :      9.31s CPU      9.36s WALL (      37 calls)
     PAW_symme    :      0.04s CPU      0.04s WALL (      73 calls)
 
     PWSCF        :     13.98s CPU     14.97s WALL

 
   This run was terminated on:  15:48:16   3Mar2023            

=------------------------------------------------------------------------------=
   JOB DONE.
=------------------------------------------------------------------------------=
