
     Program PWSCF v.7.0 starts on  6Mar2023 at 14: 8: 7 

     This program is part of the open-source Quantum ESPRESSO suite
     for quantum simulation of materials; please cite
         "P. Giannozzi et al., J. Phys.:Condens. Matter 21 395502 (2009);
         "P. Giannozzi et al., J. Phys.:Condens. Matter 29 465901 (2017);
         "P. Giannozzi et al., J. Chem. Phys. 152 154105 (2020);
          URL http://www.quantum-espresso.org", 
     in publications or presentations arising from this work. More details at
     http://www.quantum-espresso.org/quote

     Parallel version (MPI & OpenMP), running on      32 processor cores
     Number of MPI processes:                32
     Threads/MPI process:                     1

     MPI processes distributed on     1 nodes
     R & G space division:  proc/nbgrp/npool/nimage =      32
     166115 MiB available memory on the printing compute node when the environment starts
 
     Reading input from espresso_4869.pwi
Warning: card &CELL ignored
Warning: card / ignored

     Current dimensions of program PWSCF are:
     Max number of different atomic species (ntypx) = 10
     Max number of k-points (npk) =  40000
     Max angular momentum in pseudopotentials (lmaxx) =  4
     file O.pbe-n-kjpaw_psl.0.1.UPF: wavefunction(s)  2P renormalized

     gamma-point specific algorithms are used
     Message from routine setup:
     using ibrav=0 with symmetry is DISCOURAGED, use correct ibrav instead

     Subspace diagonalization in iterative solution of the eigenvalue problem:
     one sub-group per band group will be used
     scalapack distributed-memory algorithm (size of sub-group:  5*  5 procs)

 
     Parallelization info
     --------------------
     sticks:   dense  smooth     PW     G-vecs:    dense   smooth      PW
     Min          52      26      5                 4226     1490     182
     Max          54      28      8                 4254     1516     196
     Sum        1705     857    217               135667    47981    6007
 
     Using Slab Decomposition
 


     bravais-lattice index     =            0
     lattice parameter (alat)  =       8.4996  a.u.
     unit-cell volume          =    2162.0572 (a.u.)^3
     number of atoms/cell      =           20
     number of atomic types    =            3
     number of electrons       =       136.00
     number of Kohn-Sham states=           82
     kinetic-energy cutoff     =      30.0000  Ry
     charge density cutoff     =     240.0000  Ry
     scf convergence threshold =      1.0E-06
     mixing beta               =       0.7000
     number of iterations used =            8  plain     mixing
     Exchange-correlation= SLA  PW   PBX  PBC
                           (   1   4   3   4   0   0   0)

     celldm(1)=   8.499606  celldm(2)=   0.000000  celldm(3)=   0.000000
     celldm(4)=   0.000000  celldm(5)=   0.000000  celldm(6)=   0.000000

     crystal axes: (cart. coord. in units of alat)
               a(1) = (   1.000000   0.000000   0.000000 )  
               a(2) = (   0.000000   1.240807   0.000000 )  
               a(3) = (   0.000000   0.000000   2.837699 )  

     reciprocal axes: (cart. coord. in units 2 pi/alat)
               b(1) = (  1.000000  0.000000  0.000000 )  
               b(2) = (  0.000000  0.805927  0.000000 )  
               b(3) = (  0.000000  0.000000  0.352398 )  


     PseudoPot. # 1 for Sr read from file:
     /home/pragov/projects/rrg-bengioy-ad/pragov/crystal_structure_design/SSSP/Sr_pbe_v1.uspp.F.UPF
     MD5 check sum: 6b418c05fbe9db5448babca5e47b7a5b
     Pseudo is Ultrasoft + core correction, Zval = 10.0
     Generated by new atomic code, or converted to UPF format
     Using radial grid of  883 points,  6 beta functions with: 
                l(1) =   0
                l(2) =   0
                l(3) =   1
                l(4) =   1
                l(5) =   2
                l(6) =   2
     Q(r) pseudized with  6 coefficients,  rinner =    1.400   1.400   1.400
                                                       1.400   1.400

     PseudoPot. # 2 for Se read from file:
     /home/pragov/projects/rrg-bengioy-ad/pragov/crystal_structure_design/SSSP/Se_pbe_v1.uspp.F.UPF
     MD5 check sum: 1b3568f3a8ae88f9a2a0ad0698632c85
     Pseudo is Ultrasoft + core correction, Zval =  6.0
     Generated by new atomic code, or converted to UPF format
     Using radial grid of  877 points,  6 beta functions with: 
                l(1) =   0
                l(2) =   0
                l(3) =   1
                l(4) =   1
                l(5) =   2
                l(6) =   2
     Q(r) pseudized with  8 coefficients,  rinner =    1.300   1.300   1.300
                                                       1.300   1.300

     PseudoPot. # 3 for O  read from file:
     /home/pragov/projects/rrg-bengioy-ad/pragov/crystal_structure_design/SSSP/O.pbe-n-kjpaw_psl.0.1.UPF
     MD5 check sum: 0234752ac141de4415c5fc33072bef88
     Pseudo is Projector augmented-wave + core cor, Zval =  6.0
     Generated using "atomic" code by A. Dal Corso  v.5.0.99 svn rev. 10869
     Shape of augmentation charge: BESSEL
     Using radial grid of 1095 points,  4 beta functions with: 
                l(1) =   0
                l(2) =   0
                l(3) =   1
                l(4) =   1
     Q(r) pseudized with 0 coefficients 


     atomic species   valence    mass     pseudopotential
        Sr            10.00    87.62000     Sr( 1.00)
        Se             6.00    78.97100     Se( 1.00)
        O              6.00    15.99900     O ( 1.00)

      8 Sym. Ops., with inversion, found ( 6 have fractional translation)


                                    s                        frac. trans.

      isym =  1     identity                                     

 cryst.   s( 1) = (     1          0          0      )
                  (     0          1          0      )
                  (     0          0          1      )

 cart.    s( 1) = (  1.0000000  0.0000000  0.0000000 )
                  (  0.0000000  1.0000000  0.0000000 )
                  (  0.0000000  0.0000000  1.0000000 )


      isym =  2     180 deg rotation - cart. axis [0,0,1]        

 cryst.   s( 2) = (    -1          0          0      )    f =( -0.5000000 )
                  (     0         -1          0      )       (  0.5000000 )
                  (     0          0          1      )       ( -0.5000000 )

 cart.    s( 2) = ( -1.0000000  0.0000000  0.0000000 )    f =( -0.5000000 )
                  (  0.0000000 -1.0000000  0.0000000 )       (  0.6204037 )
                  (  0.0000000  0.0000000  1.0000000 )       ( -1.4188496 )


      isym =  3     180 deg rotation - cart. axis [0,1,0]        

 cryst.   s( 3) = (    -1          0          0      )    f =(  0.0000000 )
                  (     0          1          0      )       ( -0.5000000 )
                  (     0          0         -1      )       (  0.0000000 )

 cart.    s( 3) = ( -1.0000000  0.0000000  0.0000000 )    f =(  0.0000000 )
                  (  0.0000000  1.0000000  0.0000000 )       ( -0.6204037 )
                  (  0.0000000  0.0000000 -1.0000000 )       (  0.0000000 )


      isym =  4     180 deg rotation - cart. axis [1,0,0]        

 cryst.   s( 4) = (     1          0          0      )    f =(  0.5000000 )
                  (     0         -1          0      )       (  0.0000000 )
                  (     0          0         -1      )       (  0.5000000 )

 cart.    s( 4) = (  1.0000000  0.0000000  0.0000000 )    f =(  0.5000000 )
                  (  0.0000000 -1.0000000  0.0000000 )       (  0.0000000 )
                  (  0.0000000  0.0000000 -1.0000000 )       (  1.4188496 )


      isym =  5     inversion                                    

 cryst.   s( 5) = (    -1          0          0      )
                  (     0         -1          0      )
                  (     0          0         -1      )

 cart.    s( 5) = ( -1.0000000  0.0000000  0.0000000 )
                  (  0.0000000 -1.0000000  0.0000000 )
                  (  0.0000000  0.0000000 -1.0000000 )


      isym =  6     inv. 180 deg rotation - cart. axis [0,0,1]   

 cryst.   s( 6) = (     1          0          0      )    f =(  0.5000000 )
                  (     0          1          0      )       ( -0.5000000 )
                  (     0          0         -1      )       (  0.5000000 )

 cart.    s( 6) = (  1.0000000  0.0000000  0.0000000 )    f =(  0.5000000 )
                  (  0.0000000  1.0000000  0.0000000 )       ( -0.6204037 )
                  (  0.0000000  0.0000000 -1.0000000 )       (  1.4188496 )


      isym =  7     inv. 180 deg rotation - cart. axis [0,1,0]   

 cryst.   s( 7) = (     1          0          0      )    f =(  0.0000000 )
                  (     0         -1          0      )       (  0.5000000 )
                  (     0          0          1      )       (  0.0000000 )

 cart.    s( 7) = (  1.0000000  0.0000000  0.0000000 )    f =(  0.0000000 )
                  (  0.0000000 -1.0000000  0.0000000 )       (  0.6204037 )
                  (  0.0000000  0.0000000  1.0000000 )       (  0.0000000 )


      isym =  8     inv. 180 deg rotation - cart. axis [1,0,0]   

 cryst.   s( 8) = (    -1          0          0      )    f =( -0.5000000 )
                  (     0          1          0      )       (  0.0000000 )
                  (     0          0          1      )       ( -0.5000000 )

 cart.    s( 8) = ( -1.0000000  0.0000000  0.0000000 )    f =( -0.5000000 )
                  (  0.0000000  1.0000000  0.0000000 )       (  0.0000000 )
                  (  0.0000000  0.0000000  1.0000000 )       ( -1.4188496 )


   Cartesian axes

     site n.     atom                  positions (alat units)
         1           Sr  tau(   1) = (   0.5227760   0.3102018   1.8482843  )
         2           Sr  tau(   2) = (   0.9772240   0.3102018   0.4294347  )
         3           Sr  tau(   3) = (   0.4772240   0.9306055   0.9894149  )
         4           Sr  tau(   4) = (   0.0227760   0.9306055   2.4082645  )
         5           Se  tau(   5) = (   0.4969250   0.3102018   2.6139069  )
         6           Se  tau(   6) = (   0.9969250   0.9306055   1.6426419  )
         7           Se  tau(   7) = (   0.0030750   0.3102018   1.1950573  )
         8           Se  tau(   8) = (   0.5030750   0.9306055   0.2237923  )
         9           O   tau(   9) = (   0.9715320   0.0131947   0.9514891  )
        10           O   tau(  10) = (   0.9715320   0.6072089   0.9514891  )
        11           O   tau(  11) = (   0.1210810   0.3102018   2.6895004  )
        12           O   tau(  12) = (   0.3789190   0.3102018   1.2706508  )
        13           O   tau(  13) = (   0.0284680   1.2276126   1.8862102  )
        14           O   tau(  14) = (   0.5284680   0.6072089   2.3703387  )
        15           O   tau(  15) = (   0.6210810   0.9306055   1.5670485  )
        16           O   tau(  16) = (   0.5284680   0.0131947   2.3703387  )
        17           O   tau(  17) = (   0.8789190   0.9306055   0.1481988  )
        18           O   tau(  18) = (   0.0284680   0.6335984   1.8862102  )
        19           O   tau(  19) = (   0.4715320   1.2276126   0.4673606  )
        20           O   tau(  20) = (   0.4715320   0.6335984   0.4673606  )

   Crystallographic axes

     site n.     atom                  positions (cryst. coord.)
         1           Sr  tau(   1) = (  0.5227760  0.2500000  0.6513320  )
         2           Sr  tau(   2) = (  0.9772240  0.2500000  0.1513320  )
         3           Sr  tau(   3) = (  0.4772240  0.7500000  0.3486680  )
         4           Sr  tau(   4) = (  0.0227760  0.7500000  0.8486680  )
         5           Se  tau(   5) = (  0.4969250  0.2500000  0.9211360  )
         6           Se  tau(   6) = (  0.9969250  0.7500000  0.5788640  )
         7           Se  tau(   7) = (  0.0030750  0.2500000  0.4211360  )
         8           Se  tau(   8) = (  0.5030750  0.7500000  0.0788640  )
         9           O   tau(   9) = (  0.9715320  0.0106340  0.3353030  )
        10           O   tau(  10) = (  0.9715320  0.4893660  0.3353030  )
        11           O   tau(  11) = (  0.1210810  0.2500000  0.9477750  )
        12           O   tau(  12) = (  0.3789190  0.2500000  0.4477750  )
        13           O   tau(  13) = (  0.0284680  0.9893660  0.6646970  )
        14           O   tau(  14) = (  0.5284680  0.4893660  0.8353030  )
        15           O   tau(  15) = (  0.6210810  0.7500000  0.5522250  )
        16           O   tau(  16) = (  0.5284680  0.0106340  0.8353030  )
        17           O   tau(  17) = (  0.8789190  0.7500000  0.0522250  )
        18           O   tau(  18) = (  0.0284680  0.5106340  0.6646970  )
        19           O   tau(  19) = (  0.4715320  0.9893660  0.1646970  )
        20           O   tau(  20) = (  0.4715320  0.5106340  0.1646970  )

     number of k points=     1  Methfessel-Paxton smearing, width (Ry)=  0.0010
                       cart. coord. in units 2pi/alat
        k(    1) = (   0.0000000   0.0000000   0.0000000), wk =   2.0000000

                       cryst. coord.
        k(    1) = (   0.0000000   0.0000000   0.0000000), wk =   2.0000000

     Dense  grid:    67834 G-vectors     FFT dimensions: (  48,  54, 120)

     Smooth grid:    23991 G-vectors     FFT dimensions: (  30,  40,  90)

     Dynamical RAM for                 wfc:       0.12 MB

     Dynamical RAM for     wfc (w. buffer):       0.12 MB

     Dynamical RAM for           str. fact:       0.10 MB

     Dynamical RAM for           local pot:       0.00 MB

     Dynamical RAM for          nlocal pot:       0.34 MB

     Dynamical RAM for                qrad:       3.73 MB

     Dynamical RAM for          rho,v,vnew:       0.33 MB

     Dynamical RAM for               rhoin:       0.11 MB

     Dynamical RAM for            rho*nmix:       0.52 MB

     Dynamical RAM for           G-vectors:       0.13 MB

     Dynamical RAM for          h,s,v(r/c):       0.02 MB

     Dynamical RAM for          <psi|beta>:       0.15 MB

     Dynamical RAM for                 psi:       0.23 MB

     Dynamical RAM for                hpsi:       0.23 MB

     Dynamical RAM for                spsi:       0.23 MB

     Dynamical RAM for      wfcinit/wfcrot:       0.64 MB

     Dynamical RAM for           addusdens:       6.39 MB

     Dynamical RAM for          addusforce:       7.17 MB

     Dynamical RAM for         addusstress:       6.49 MB

     Estimated static dynamical RAM per process >       5.38 MB

     Estimated max dynamical RAM per process >      13.07 MB

     Estimated total dynamical RAM >     418.11 MB

     Check: negative core charge=   -0.000009

     Initial potential from superposition of free atoms

     starting charge     135.8651, renormalised to     136.0000

     negative rho (up, down):  2.580E-01 0.000E+00
     Starting wfcs are  116 randomized atomic wfcs
     Checking if some PAW data can be deallocated... 
       PAW data deallocated on   16 nodes for type:  3

     total cpu time spent up to now is        1.3 secs

     Self-consistent Calculation

     iteration #  1     ecut=    30.00 Ry     beta= 0.70
     Davidson diagonalization with overlap

---- Real-time Memory Report at c_bands before calling an iterative solver
           143 MiB given to the printing process from OS
             0 MiB allocation reported by mallinfo(arena+hblkhd)
        165107 MiB available memory on the node where the printing process lives
------------------
     ethr =  1.00E-02,  avg # of iterations =  2.0

     negative rho (up, down):  2.626E-01 0.000E+00

     total cpu time spent up to now is        1.5 secs

     total energy              =    -952.70704389 Ry
     estimated scf accuracy    <       5.59794481 Ry

     iteration #  2     ecut=    30.00 Ry     beta= 0.70
     Davidson diagonalization with overlap

---- Real-time Memory Report at c_bands before calling an iterative solver
           150 MiB given to the printing process from OS
             0 MiB allocation reported by mallinfo(arena+hblkhd)
        165048 MiB available memory on the node where the printing process lives
------------------
     ethr =  4.12E-03,  avg # of iterations =  3.0

     negative rho (up, down):  2.652E-01 0.000E+00

     total cpu time spent up to now is        1.6 secs

     total energy              =    -953.36392783 Ry
     estimated scf accuracy    <      10.92979899 Ry

     iteration #  3     ecut=    30.00 Ry     beta= 0.70
     Davidson diagonalization with overlap

---- Real-time Memory Report at c_bands before calling an iterative solver
           151 MiB given to the printing process from OS
             0 MiB allocation reported by mallinfo(arena+hblkhd)
        165023 MiB available memory on the node where the printing process lives
------------------
     ethr =  4.12E-03,  avg # of iterations =  3.0

     negative rho (up, down):  2.667E-01 0.000E+00

     total cpu time spent up to now is        1.8 secs

     total energy              =    -955.45482533 Ry
     estimated scf accuracy    <       0.43548834 Ry

     iteration #  4     ecut=    30.00 Ry     beta= 0.70
     Davidson diagonalization with overlap

---- Real-time Memory Report at c_bands before calling an iterative solver
           152 MiB given to the printing process from OS
             0 MiB allocation reported by mallinfo(arena+hblkhd)
        165025 MiB available memory on the node where the printing process lives
------------------
     ethr =  3.20E-04,  avg # of iterations =  2.0

     negative rho (up, down):  2.688E-01 0.000E+00

     total cpu time spent up to now is        1.9 secs

     total energy              =    -955.55165920 Ry
     estimated scf accuracy    <       0.04491898 Ry

     iteration #  5     ecut=    30.00 Ry     beta= 0.70
     Davidson diagonalization with overlap

---- Real-time Memory Report at c_bands before calling an iterative solver
           153 MiB given to the printing process from OS
             0 MiB allocation reported by mallinfo(arena+hblkhd)
        165016 MiB available memory on the node where the printing process lives
------------------
     ethr =  3.30E-05,  avg # of iterations =  6.0

     negative rho (up, down):  2.693E-01 0.000E+00

     total cpu time spent up to now is        2.1 secs

     total energy              =    -955.55928839 Ry
     estimated scf accuracy    <       0.00746225 Ry

     iteration #  6     ecut=    30.00 Ry     beta= 0.70
     Davidson diagonalization with overlap

---- Real-time Memory Report at c_bands before calling an iterative solver
           153 MiB given to the printing process from OS
             0 MiB allocation reported by mallinfo(arena+hblkhd)
        165012 MiB available memory on the node where the printing process lives
------------------
     ethr =  5.49E-06,  avg # of iterations =  5.0

     negative rho (up, down):  2.693E-01 0.000E+00

     total cpu time spent up to now is        2.2 secs

     total energy              =    -955.56049266 Ry
     estimated scf accuracy    <       0.00070542 Ry

     iteration #  7     ecut=    30.00 Ry     beta= 0.70
     Davidson diagonalization with overlap

---- Real-time Memory Report at c_bands before calling an iterative solver
           154 MiB given to the printing process from OS
             0 MiB allocation reported by mallinfo(arena+hblkhd)
        165012 MiB available memory on the node where the printing process lives
------------------
     ethr =  5.19E-07,  avg # of iterations =  5.0

     negative rho (up, down):  2.693E-01 0.000E+00

     total cpu time spent up to now is        2.4 secs

     total energy              =    -955.56066568 Ry
     estimated scf accuracy    <       0.00007887 Ry

     iteration #  8     ecut=    30.00 Ry     beta= 0.70
     Davidson diagonalization with overlap

---- Real-time Memory Report at c_bands before calling an iterative solver
           154 MiB given to the printing process from OS
             0 MiB allocation reported by mallinfo(arena+hblkhd)
        165009 MiB available memory on the node where the printing process lives
------------------
     ethr =  5.80E-08,  avg # of iterations =  2.0

     negative rho (up, down):  2.694E-01 0.000E+00

     total cpu time spent up to now is        2.6 secs

     total energy              =    -955.56068237 Ry
     estimated scf accuracy    <       0.00001829 Ry

     iteration #  9     ecut=    30.00 Ry     beta= 0.70
     Davidson diagonalization with overlap

---- Real-time Memory Report at c_bands before calling an iterative solver
           155 MiB given to the printing process from OS
             0 MiB allocation reported by mallinfo(arena+hblkhd)
        164997 MiB available memory on the node where the printing process lives
------------------
     ethr =  1.35E-08,  avg # of iterations =  2.0

     negative rho (up, down):  2.694E-01 0.000E+00

     total cpu time spent up to now is        2.7 secs

     total energy              =    -955.56068675 Ry
     estimated scf accuracy    <       0.00000160 Ry

     iteration # 10     ecut=    30.00 Ry     beta= 0.70
     Davidson diagonalization with overlap

---- Real-time Memory Report at c_bands before calling an iterative solver
           155 MiB given to the printing process from OS
             0 MiB allocation reported by mallinfo(arena+hblkhd)
        165014 MiB available memory on the node where the printing process lives
------------------
     ethr =  1.18E-09,  avg # of iterations =  2.0

     negative rho (up, down):  2.695E-01 0.000E+00

     total cpu time spent up to now is        2.8 secs

     End of self-consistent calculation

          k = 0.0000 0.0000 0.0000 (  3004 PWs)   bands (ev):

   -27.1059 -27.1036 -27.0944 -27.0923 -14.4886 -14.4845 -14.3554 -14.2984
   -11.9533 -11.8469 -11.8308 -11.8281 -11.7914 -11.7837 -11.5584 -11.5171
    -9.1663  -9.1332  -9.1175  -9.0726  -9.0694  -9.0397  -9.0350  -9.0237
    -9.0072  -9.0000  -8.8631  -8.8534  -4.5649  -4.4195  -4.3533  -4.2790
    -0.0175  -0.0005   0.0225   0.0238   0.1725   0.2860   0.4059   0.6294
     0.9890   1.2984   1.4812   1.5365   3.1177   3.2798   3.4154   3.4705
     3.5952   3.6351   3.6941   3.7208   3.8827   3.9779   4.1017   4.2172
     4.2591   4.2913   4.5539   4.6762   4.7510   4.8315   4.8522   4.9574
     4.9681   5.0377   5.1150   5.1293   9.6981   9.9448  10.5282  10.7733
    10.8590  10.8998  11.8399  12.0851  12.0992  12.2119  12.2769  12.3893
    12.6743  12.8404

     occupation numbers 
     1.0000   1.0000   1.0000   1.0000   1.0000   1.0000   1.0000   1.0000
     1.0000   1.0000   1.0000   1.0000   1.0000   1.0000   1.0000   1.0000
     1.0000   1.0000   1.0000   1.0000   1.0000   1.0000   1.0000   1.0000
     1.0000   1.0000   1.0000   1.0000   1.0000   1.0000   1.0000   1.0000
     1.0000   1.0000   1.0000   1.0000   1.0000   1.0000   1.0000   1.0000
     1.0000   1.0000   1.0000   1.0000   1.0000   1.0000   1.0000   1.0000
     1.0000   1.0000   1.0000   1.0000   1.0000   1.0000   1.0000   1.0000
     1.0000   1.0000   1.0000   1.0000   1.0000   1.0000   1.0000   1.0000
     1.0000   1.0000   1.0000   1.0000  -0.0000  -0.0000  -0.0000  -0.0000
    -0.0000  -0.0000  -0.0000  -0.0000  -0.0000  -0.0000  -0.0000  -0.0000
    -0.0000  -0.0000

     the Fermi energy is     7.9491 ev

!    total energy              =    -955.56068662 Ry
     estimated scf accuracy    <       0.00000075 Ry
     smearing contrib. (-TS)   =       0.00000000 Ry
     internal energy E=F+TS    =    -955.56068662 Ry

     The total energy is F=E-TS. E is the sum of the following terms:
     one-electron contribution =    -191.84328394 Ry
     hartree contribution      =     169.12535433 Ry
     xc contribution           =    -281.40961093 Ry
     ewald contribution        =    -537.06991598 Ry
     one-center paw contrib.   =    -114.36323009 Ry
      -> PAW hartree energy AE =       0.00000000 Ry
      -> PAW hartree energy PS =       0.00000000 Ry
      -> PAW xc energy AE      =       0.00000000 Ry
      -> PAW xc energy PS      =       0.00000000 Ry
      -> total E_H with PAW    =     169.12535433 Ry
      -> total E_XC with PAW   =    -281.40961093 Ry

     convergence has been achieved in  10 iterations

     negative rho (up, down):  2.695E-01 0.000E+00

     Forces acting on atoms (cartesian axes, Ry/au):

     atom    1 type  1   force =     0.00205632    0.00000000    0.00788923
     atom    2 type  1   force =    -0.00205632    0.00000000    0.00788923
     atom    3 type  1   force =    -0.00205632    0.00000000   -0.00788923
     atom    4 type  1   force =     0.00205632    0.00000000   -0.00788923
     atom    5 type  2   force =     0.07814902    0.00000000   -0.02892634
     atom    6 type  2   force =     0.07814902   -0.00000000    0.02892634
     atom    7 type  2   force =    -0.07814902   -0.00000000   -0.02892634
     atom    8 type  2   force =    -0.07814902    0.00000000    0.02892634
     atom    9 type  3   force =     0.00789979    0.00629734    0.00514042
     atom   10 type  3   force =     0.00789979   -0.00629734    0.00514042
     atom   11 type  3   force =    -0.06425843    0.00000000    0.02636540
     atom   12 type  3   force =     0.06425843    0.00000000    0.02636540
     atom   13 type  3   force =    -0.00789979   -0.00629734   -0.00514042
     atom   14 type  3   force =    -0.00789979   -0.00629734    0.00514042
     atom   15 type  3   force =    -0.06425843    0.00000000   -0.02636540
     atom   16 type  3   force =    -0.00789979    0.00629734    0.00514042
     atom   17 type  3   force =     0.06425843    0.00000000   -0.02636540
     atom   18 type  3   force =    -0.00789979    0.00629734   -0.00514042
     atom   19 type  3   force =     0.00789979   -0.00629734   -0.00514042
     atom   20 type  3   force =     0.00789979    0.00629734   -0.00514042
     The non-local contrib.  to forces
     atom    1 type  1   force =     0.00564302   -0.00000000   -0.02192396
     atom    2 type  1   force =    -0.00564302    0.00000000   -0.02192396
     atom    3 type  1   force =    -0.00564302   -0.00000000    0.02192396
     atom    4 type  1   force =     0.00564302    0.00000000    0.02192396
     atom    5 type  2   force =    -0.27728979    0.00000000   -0.66227628
     atom    6 type  2   force =    -0.27728979    0.00000000    0.66227628
     atom    7 type  2   force =     0.27728979    0.00000000   -0.66227628
     atom    8 type  2   force =     0.27728979    0.00000000    0.66227628
     atom    9 type  3   force =     0.15456529    1.14471828    0.84278269
     atom   10 type  3   force =     0.15456529   -1.14471828    0.84278269
     atom   11 type  3   force =     1.13313485    0.00000000   -0.35677090
     atom   12 type  3   force =    -1.13313485    0.00000000   -0.35677090
     atom   13 type  3   force =    -0.15456529   -1.14471828   -0.84278269
     atom   14 type  3   force =    -0.15456529   -1.14471828    0.84278269
     atom   15 type  3   force =     1.13313485    0.00000000    0.35677090
     atom   16 type  3   force =    -0.15456529    1.14471828    0.84278269
     atom   17 type  3   force =    -1.13313485    0.00000000    0.35677090
     atom   18 type  3   force =    -0.15456529    1.14471828   -0.84278269
     atom   19 type  3   force =     0.15456529   -1.14471828   -0.84278269
     atom   20 type  3   force =     0.15456529    1.14471828   -0.84278269
     The ionic contribution  to forces
     atom    1 type  1   force =     0.26080978   -0.00000000   -1.55269853
     atom    2 type  1   force =    -0.26080978   -0.00000000   -1.55269853
     atom    3 type  1   force =    -0.26080978   -0.00000000    1.55269853
     atom    4 type  1   force =     0.26080978   -0.00000000    1.55269853
     atom    5 type  2   force =     3.36848810   -0.00000000    5.02121952
     atom    6 type  2   force =     3.36848810   -0.00000000   -5.02121952
     atom    7 type  2   force =    -3.36848810    0.00000000    5.02121952
     atom    8 type  2   force =    -3.36848810   -0.00000000   -5.02121952
     atom    9 type  3   force =    -0.74382182   -3.58716824   -1.98815476
     atom   10 type  3   force =    -0.74382182    3.58716824   -1.98815476
     atom   11 type  3   force =    -4.60178623   -0.00000000    1.06134895
     atom   12 type  3   force =     4.60178623   -0.00000000    1.06134895
     atom   13 type  3   force =     0.74382182    3.58716824    1.98815476
     atom   14 type  3   force =     0.74382182    3.58716824   -1.98815476
     atom   15 type  3   force =    -4.60178623   -0.00000000   -1.06134895
     atom   16 type  3   force =     0.74382182   -3.58716824   -1.98815476
     atom   17 type  3   force =     4.60178623   -0.00000000   -1.06134895
     atom   18 type  3   force =     0.74382182   -3.58716824    1.98815476
     atom   19 type  3   force =    -0.74382182    3.58716824    1.98815476
     atom   20 type  3   force =    -0.74382182   -3.58716824    1.98815476
     The local contribution  to forces
     atom    1 type  1   force =    -0.26421287   -0.00003728    1.58024350
     atom    2 type  1   force =     0.26427656   -0.00004311    1.58132020
     atom    3 type  1   force =     0.26422752    0.00004256   -1.58096156
     atom    4 type  1   force =    -0.26422396   -0.00008971   -1.58068450
     atom    5 type  2   force =    -3.04835133    0.00016354   -4.47344520
     atom    6 type  2   force =    -3.04826162    0.00013170    4.47318678
     atom    7 type  2   force =     3.04816524   -0.00001812   -4.47393261
     atom    8 type  2   force =     3.04820165    0.00005376    4.47418576
     atom    9 type  3   force =     0.59875911    2.46027590    1.15879070
     atom   10 type  3   force =     0.59875599   -2.46028706    1.15877536
     atom   11 type  3   force =     3.41453545    0.00006548   -0.68215368
     atom   12 type  3   force =    -3.41472418   -0.00002173   -0.68262181
     atom   13 type  3   force =    -0.59878912   -2.46040609   -1.15917437
     atom   14 type  3   force =    -0.59873794   -2.46022267    1.15874820
     atom   15 type  3   force =     3.41487782    0.00005460    0.68199886
     atom   16 type  3   force =    -0.59874382    2.46014707    1.15872310
     atom   17 type  3   force =    -3.41443823    0.00001088    0.68274506
     atom   18 type  3   force =    -0.59879044    2.46035515   -1.15914064
     atom   19 type  3   force =     0.59871623   -2.46017002   -1.15838006
     atom   20 type  3   force =     0.59871825    2.46012530   -1.15842267
     The core correction contribution to forces
     atom    1 type  1   force =    -0.00021125   -0.00000002    0.00139177
     atom    2 type  1   force =     0.00021273    0.00000012    0.00139707
     atom    3 type  1   force =     0.00021057    0.00000013   -0.00139372
     atom    4 type  1   force =    -0.00021139   -0.00000066   -0.00139592
     atom    5 type  2   force =     0.03530567   -0.00000150    0.08586411
     atom    6 type  2   force =     0.03529694   -0.00000082   -0.08586479
     atom    7 type  2   force =    -0.03530335   -0.00000121    0.08586565
     atom    8 type  2   force =    -0.03530972   -0.00000193   -0.08586462
     atom    9 type  3   force =    -0.00161384   -0.01133188   -0.00811780
     atom   10 type  3   force =    -0.00161387    0.01133163   -0.00811789
     atom   11 type  3   force =    -0.01012871    0.00000006    0.00417585
     atom   12 type  3   force =     0.01012913    0.00000001    0.00417772
     atom   13 type  3   force =     0.00161367    0.01133246    0.00812012
     atom   14 type  3   force =     0.00161420    0.01133216   -0.00811907
     atom   15 type  3   force =    -0.01012815    0.00000010   -0.00417619
     atom   16 type  3   force =     0.00161425   -0.01133433   -0.00811981
     atom   17 type  3   force =     0.01012950    0.00000003   -0.00417770
     atom   18 type  3   force =     0.00161382   -0.01133411    0.00812056
     atom   19 type  3   force =    -0.00161417    0.01133104    0.00811661
     atom   20 type  3   force =    -0.00161424   -0.01133227    0.00811678
     The Hubbard contrib.    to forces
     atom    1 type  1   force =     0.00000000    0.00000000    0.00000000
     atom    2 type  1   force =     0.00000000    0.00000000    0.00000000
     atom    3 type  1   force =     0.00000000    0.00000000    0.00000000
     atom    4 type  1   force =     0.00000000    0.00000000    0.00000000
     atom    5 type  2   force =     0.00000000    0.00000000    0.00000000
     atom    6 type  2   force =     0.00000000    0.00000000    0.00000000
     atom    7 type  2   force =     0.00000000    0.00000000    0.00000000
     atom    8 type  2   force =     0.00000000    0.00000000    0.00000000
     atom    9 type  3   force =     0.00000000    0.00000000    0.00000000
     atom   10 type  3   force =     0.00000000    0.00000000    0.00000000
     atom   11 type  3   force =     0.00000000    0.00000000    0.00000000
     atom   12 type  3   force =     0.00000000    0.00000000    0.00000000
     atom   13 type  3   force =     0.00000000    0.00000000    0.00000000
     atom   14 type  3   force =     0.00000000    0.00000000    0.00000000
     atom   15 type  3   force =     0.00000000    0.00000000    0.00000000
     atom   16 type  3   force =     0.00000000    0.00000000    0.00000000
     atom   17 type  3   force =     0.00000000    0.00000000    0.00000000
     atom   18 type  3   force =     0.00000000    0.00000000    0.00000000
     atom   19 type  3   force =     0.00000000    0.00000000    0.00000000
     atom   20 type  3   force =     0.00000000    0.00000000    0.00000000
     The SCF correction term to forces
     atom    1 type  1   force =     0.00003481    0.00003884    0.00090188
     atom    2 type  1   force =    -0.00008035    0.00004868   -0.00025735
     atom    3 type  1   force =    -0.00004411   -0.00004284   -0.00015606
     atom    4 type  1   force =     0.00004166    0.00008893   -0.00045802
     atom    5 type  2   force =     0.00001711   -0.00019518   -0.00032296
     atom    6 type  2   force =    -0.00012985   -0.00015492    0.00060584
     atom    7 type  2   force =     0.00019921    0.00000909    0.00023588
     atom    8 type  2   force =     0.00012105   -0.00007763   -0.00050578
     atom    9 type  3   force =     0.00002250   -0.00016975   -0.00013186
     atom   10 type  3   force =     0.00002365    0.00016932   -0.00012729
     atom   11 type  3   force =    -0.00000411   -0.00006555   -0.00031129
     atom   12 type  3   force =     0.00021535    0.00002793    0.00030291
     atom   13 type  3   force =    -0.00000136    0.00033036    0.00067803
     atom   14 type  3   force =    -0.00001632    0.00012617   -0.00014126
     atom   15 type  3   force =    -0.00033974   -0.00005454    0.00046075
     atom   16 type  3   force =    -0.00001046   -0.00014935   -0.00013301
     atom   17 type  3   force =    -0.00007080   -0.00000673   -0.00043049
     atom   18 type  3   force =     0.00000474   -0.00035161    0.00064014
     atom   19 type  3   force =     0.00004334    0.00002256   -0.00039489
     atom   20 type  3   force =     0.00003885   -0.00003190   -0.00035017

     Total force =     0.219925     Total SCF correction =     0.002092


     Computing stress (Cartesian axis) and pressure


     negative rho (up, down):  2.695E-01 0.000E+00
          total   stress  (Ry/bohr**3)                   (kbar)     P=     -291.85
  -0.00232869   0.00000000   0.00000000         -342.56        0.00        0.00
   0.00000000  -0.00175403   0.00000000            0.00     -258.03        0.00
   0.00000000   0.00000000  -0.00186914            0.00        0.00     -274.96

     kinetic stress (kbar)  14077.79      0.00      0.00
                                0.00  14154.13      0.00
                                0.00      0.00  14235.69

     local   stress (kbar)  -9330.27     -0.01      0.01
                               -0.01 -10247.31     -0.00
                                0.01     -0.00  -7137.05

     nonloc. stress (kbar)   6376.02      0.00      0.00
                                0.00   6381.87      0.00
                                0.00      0.00   6388.75

     hartree stress (kbar)   4007.48      0.01     -0.01
                                0.01   4338.19      0.00
                               -0.01      0.00   3161.52

     exc-cor stress (kbar)   6319.49      0.00      0.00
                                0.00   6316.09     -0.00
                                0.00     -0.00   6313.47

     corecor stress (kbar)  -9894.94     -0.00     -0.00
                               -0.00  -9896.41      0.00
                               -0.00      0.00  -9898.16

     ewald   stress (kbar) -11898.13     -0.00      0.00
                               -0.00 -11304.60     -0.00
                                0.00     -0.00 -13339.18

     hubbard stress (kbar)      0.00      0.00      0.00
                                0.00      0.00      0.00
                                0.00      0.00      0.00

     DFT-D   stress (kbar)      0.00      0.00      0.00
                                0.00      0.00      0.00
                                0.00      0.00      0.00

     XDM     stress (kbar)      0.00      0.00      0.00
                                0.00      0.00      0.00
                                0.00      0.00      0.00

     dft-nl  stress (kbar)      0.00      0.00      0.00
                                0.00      0.00      0.00
                                0.00      0.00      0.00

     TS-vdW  stress (kbar)      0.00      0.00      0.00
                                0.00      0.00      0.00
                                0.00      0.00      0.00


                                0.00      0.00      0.00
                                0.00      0.00      0.00


                                0.00      0.00      0.00


     Writing all to output data dir calculations/myprefix.save/
 
     init_run     :      1.00s CPU      1.03s WALL (       1 calls)
     electrons    :      1.45s CPU      1.53s WALL (       1 calls)
     forces       :      0.11s CPU      0.11s WALL (       1 calls)
     stress       :      0.26s CPU      0.27s WALL (       1 calls)

     Called by init_run:
     wfcinit      :      0.03s CPU      0.05s WALL (       1 calls)
     wfcinit:atom :      0.00s CPU      0.00s WALL (       1 calls)
     wfcinit:wfcr :      0.03s CPU      0.04s WALL (       1 calls)
     potinit      :      0.36s CPU      0.36s WALL (       1 calls)
     hinit0       :      0.57s CPU      0.58s WALL (       1 calls)

     Called by electrons:
     c_bands      :      0.61s CPU      0.63s WALL (      10 calls)
     sum_band     :      0.25s CPU      0.26s WALL (      10 calls)
     v_of_rho     :      0.06s CPU      0.07s WALL (      11 calls)
     v_h          :      0.00s CPU      0.00s WALL (      11 calls)
     v_xc         :      0.07s CPU      0.07s WALL (      13 calls)
     newd         :      0.19s CPU      0.22s WALL (      11 calls)
     PAW_pot      :      0.37s CPU      0.37s WALL (      11 calls)
     mix_rho      :      0.02s CPU      0.02s WALL (      10 calls)

     Called by c_bands:
     init_us_2    :      0.00s CPU      0.00s WALL (      21 calls)
     init_us_2:cp :      0.00s CPU      0.00s WALL (      21 calls)
     regterg      :      0.59s CPU      0.61s WALL (      10 calls)

     Called by sum_band:
     sum_band:wei :      0.00s CPU      0.00s WALL (      10 calls)
     sum_band:loo :      0.04s CPU      0.05s WALL (      10 calls)
     sum_band:buf :      0.00s CPU      0.00s WALL (      10 calls)
     sum_band:ini :      0.00s CPU      0.00s WALL (      10 calls)
     sum_band:cal :      0.01s CPU      0.01s WALL (      10 calls)
     sum_band:bec :      0.00s CPU      0.00s WALL (      10 calls)
     addusdens    :      0.15s CPU      0.16s WALL (      10 calls)
     addusd:skk   :      0.00s CPU      0.00s WALL (      30 calls)
     addusd:dgemm :      0.04s CPU      0.04s WALL (      30 calls)
     addusd:qvan2 :      0.10s CPU      0.11s WALL (      30 calls)

     Called by *egterg:
     rdiaghg      :      0.30s CPU      0.31s WALL (      42 calls)
     regterg:over :      0.03s CPU      0.04s WALL (      32 calls)
     regterg:upda :      0.01s CPU      0.02s WALL (      32 calls)
     regterg:last :      0.02s CPU      0.02s WALL (      20 calls)
     rdiaghg:chol :      0.02s CPU      0.02s WALL (      42 calls)
     rdiaghg:inve :      0.00s CPU      0.00s WALL (      42 calls)
     rdiaghg:para :      0.02s CPU      0.02s WALL (      84 calls)
     h_psi        :      0.23s CPU      0.24s WALL (      43 calls)
     s_psi        :      0.00s CPU      0.01s WALL (      43 calls)
     g_psi        :      0.00s CPU      0.00s WALL (      32 calls)

     Called by h_psi:
     h_psi:calbec :      0.02s CPU      0.02s WALL (      43 calls)
     vloc_psi     :      0.20s CPU      0.21s WALL (      43 calls)
     add_vuspsi   :      0.01s CPU      0.01s WALL (      43 calls)

     General routines
     calbec       :      0.03s CPU      0.03s WALL (      58 calls)
     fft          :      0.55s CPU      0.56s WALL (     139 calls)
     ffts         :      0.28s CPU      0.28s WALL (      21 calls)
     fftw         :      0.21s CPU      0.23s WALL (    2678 calls)
     interpolate  :      0.28s CPU      0.28s WALL (      11 calls)
 
     Parallel routines

     PAW routines
     PAW_pot      :      0.37s CPU      0.37s WALL (      11 calls)
     PAW_symme    :      0.01s CPU      0.01s WALL (      21 calls)
 
     PWSCF        :      3.06s CPU      3.51s WALL

 
   This run was terminated on:  14: 8:11   6Mar2023            

=------------------------------------------------------------------------------=
   JOB DONE.
=------------------------------------------------------------------------------=
