
     Program PWSCF v.7.0 starts on  6Mar2023 at 14:19: 5 

     This program is part of the open-source Quantum ESPRESSO suite
     for quantum simulation of materials; please cite
         "P. Giannozzi et al., J. Phys.:Condens. Matter 21 395502 (2009);
         "P. Giannozzi et al., J. Phys.:Condens. Matter 29 465901 (2017);
         "P. Giannozzi et al., J. Chem. Phys. 152 154105 (2020);
          URL http://www.quantum-espresso.org", 
     in publications or presentations arising from this work. More details at
     http://www.quantum-espresso.org/quote

     Parallel version (MPI & OpenMP), running on      32 processor cores
     Number of MPI processes:                32
     Threads/MPI process:                     1

     MPI processes distributed on     1 nodes
     R & G space division:  proc/nbgrp/npool/nimage =      32
     166112 MiB available memory on the printing compute node when the environment starts
 
     Reading input from espresso_4906.pwi
Warning: card &CELL ignored
Warning: card / ignored

     Current dimensions of program PWSCF are:
     Max number of different atomic species (ntypx) = 10
     Max number of k-points (npk) =  40000
     Max angular momentum in pseudopotentials (lmaxx) =  4
     file Ga.pbe-dn-kjpaw_psl.1.0.0.UPF: wavefunction(s)  4S renormalized
     file Fe.pbe-spn-kjpaw_psl.0.2.1.UPF: wavefunction(s)  3D renormalized
     file O.pbe-n-kjpaw_psl.0.1.UPF: wavefunction(s)  2P renormalized

     gamma-point specific algorithms are used

     Subspace diagonalization in iterative solution of the eigenvalue problem:
     one sub-group per band group will be used
     scalapack distributed-memory algorithm (size of sub-group:  5*  5 procs)

 
     Parallelization info
     --------------------
     sticks:   dense  smooth     PW     G-vecs:    dense   smooth      PW
     Min          46      22      5                 1744      612      66
     Max          48      24      6                 1760      624      84
     Sum        1523     765    191                56065    19851    2477
 
     Using Slab Decomposition
 


     bravais-lattice index     =            0
     lattice parameter (alat)  =       7.0866  a.u.
     unit-cell volume          =     893.0083 (a.u.)^3
     number of atoms/cell      =           10
     number of atomic types    =            4
     number of electrons       =        95.00
     number of Kohn-Sham states=           58
     kinetic-energy cutoff     =      30.0000  Ry
     charge density cutoff     =     240.0000  Ry
     scf convergence threshold =      1.0E-06
     mixing beta               =       0.7000
     number of iterations used =            8  plain     mixing
     Exchange-correlation= SLA  PW   PBX  PBC
                           (   1   4   3   4   0   0   0)

     celldm(1)=   7.086615  celldm(2)=   0.000000  celldm(3)=   0.000000
     celldm(4)=   0.000000  celldm(5)=   0.000000  celldm(6)=   0.000000

     crystal axes: (cart. coord. in units of alat)
               a(1) = (   1.000000   0.000000   0.000000 )  
               a(2) = (   0.036513   1.581994   0.000000 )  
               a(3) = (   0.046369   0.371771   1.586113 )  

     reciprocal axes: (cart. coord. in units 2 pi/alat)
               b(1) = (  1.000000 -0.023080 -0.023825 )  
               b(2) = (  0.000000  0.632114 -0.148162 )  
               b(3) = (  0.000000  0.000000  0.630472 )  


     PseudoPot. # 1 for Ga read from file:
     /home/pragov/projects/rrg-bengioy-ad/pragov/crystal_structure_design/SSSP/Ga.pbe-dn-kjpaw_psl.1.0.0.UPF
     MD5 check sum: a27b4342b1af7e5f338de752e9ed7044
     Pseudo is Projector augmented-wave + core cor, Zval = 13.0
     Generated using "atomic" code by A. Dal Corso  v.5.1
     Shape of augmentation charge: PSQ
     Using radial grid of 1205 points,  6 beta functions with: 
                l(1) =   0
                l(2) =   0
                l(3) =   1
                l(4) =   1
                l(5) =   2
                l(6) =   2
     Q(r) pseudized with 0 coefficients 


     PseudoPot. # 2 for Fe read from file:
     /home/pragov/projects/rrg-bengioy-ad/pragov/crystal_structure_design/SSSP/Fe.pbe-spn-kjpaw_psl.0.2.1.UPF
     MD5 check sum: e86618425769142926afa95317d90200
     Pseudo is Projector augmented-wave + core cor, Zval = 16.0
     Generated using "atomic" code by A. Dal Corso  v.5.0.99 svn rev. 10869
     Shape of augmentation charge: PSQ
     Using radial grid of 1191 points,  6 beta functions with: 
                l(1) =   0
                l(2) =   0
                l(3) =   1
                l(4) =   1
                l(5) =   2
                l(6) =   2
     Q(r) pseudized with 0 coefficients 


     PseudoPot. # 3 for Bi read from file:
     /home/pragov/projects/rrg-bengioy-ad/pragov/crystal_structure_design/SSSP/Bi_pbe_v1.uspp.F.UPF
     MD5 check sum: cceb9f28ec65b6d7ff33140f5b0b1758
     Pseudo is Ultrasoft + core correction, Zval = 15.0
     Generated by new atomic code, or converted to UPF format
     Using radial grid of  899 points,  6 beta functions with: 
                l(1) =   0
                l(2) =   0
                l(3) =   1
                l(4) =   1
                l(5) =   2
                l(6) =   2
     Q(r) pseudized with  6 coefficients,  rinner =    1.000   1.000   1.000
                                                       1.000   1.000

     PseudoPot. # 4 for O  read from file:
     /home/pragov/projects/rrg-bengioy-ad/pragov/crystal_structure_design/SSSP/O.pbe-n-kjpaw_psl.0.1.UPF
     MD5 check sum: 0234752ac141de4415c5fc33072bef88
     Pseudo is Projector augmented-wave + core cor, Zval =  6.0
     Generated using "atomic" code by A. Dal Corso  v.5.0.99 svn rev. 10869
     Shape of augmentation charge: BESSEL
     Using radial grid of 1095 points,  4 beta functions with: 
                l(1) =   0
                l(2) =   0
                l(3) =   1
                l(4) =   1
     Q(r) pseudized with 0 coefficients 


     atomic species   valence    mass     pseudopotential
        Ga            13.00    69.72300     Ga( 1.00)
        Fe            16.00    55.84500     Fe( 1.00)
        Bi            15.00   208.98040     Bi( 1.00)
        O              6.00    15.99900     O ( 1.00)

     No symmetry found


                                    s                        frac. trans.

      isym =  1     identity                                     

 cryst.   s( 1) = (     1          0          0      )
                  (     0          1          0      )
                  (     0          0          1      )

 cart.    s( 1) = (  1.0000000  0.0000000 -0.0000000 )
                  (  0.0000000  1.0000000  0.0000000 )
                  (  0.0000000  0.0000000  1.0000000 )


   Cartesian axes

     site n.     atom                  positions (alat units)
         1           Ga  tau(   1) = (   0.5686775   0.2182192   0.8774014  )
         2           Fe  tau(   2) = (   0.5707497   0.8513441   0.1054067  )
         3           Bi  tau(   3) = (   0.0018403   0.0092187   0.0038828  )
         4           Bi  tau(   4) = (   0.0452064   0.9730065   0.8007176  )
         5           O   tau(   5) = (   0.6162448   1.4044847   0.5878168  )
         6           O   tau(   6) = (   0.6236296   0.8120987   1.3959384  )
         7           O   tau(   7) = (   0.0743477   0.3565123   0.9888941  )
         8           O   tau(   8) = (   0.0699901   0.9510886   0.1912107  )
         9           O   tau(   9) = (   0.5741838   0.6566175   0.5905497  )
        10           O   tau(  10) = (   0.6183347   1.6373156   1.3822026  )

   Crystallographic axes

     site n.     atom                  positions (cryst. coord.)
         1           Ga  tau(   1) = (  0.5427370  0.0079420  0.5531770  )
         2           Fe  tau(   2) = (  0.5485890  0.5225290  0.0664560  )
         3           Bi  tau(   3) = (  0.0015350  0.0052520  0.0024480  )
         4           Bi  tau(   4) = (  0.0036720  0.4964150  0.5048300  )
         5           O   tau(   5) = (  0.5698240  0.8007020  0.3706020  )
         6           O   tau(   6) = (  0.5716280  0.3065140  0.8801000  )
         7           O   tau(   7) = (  0.0425590  0.0788400  0.6234700  )
         8           O   tau(   8) = (  0.0434830  0.5728660  0.1205530  )
         9           O   tau(   9) = (  0.5449590  0.3275600  0.3723250  )
        10           O   tau(  10) = (  0.5476140  0.8301800  0.8714400  )

     number of k points=     1  Methfessel-Paxton smearing, width (Ry)=  0.0010
                       cart. coord. in units 2pi/alat
        k(    1) = (   0.0000000   0.0000000   0.0000000), wk =   2.0000000

                       cryst. coord.
        k(    1) = (   0.0000000   0.0000000   0.0000000), wk =   2.0000000

     Dense  grid:    28033 G-vectors     FFT dimensions: (  36,  60,  60)

     Smooth grid:     9926 G-vectors     FFT dimensions: (  25,  40,  45)

     Dynamical RAM for                 wfc:       0.03 MB

     Dynamical RAM for     wfc (w. buffer):       0.03 MB

     Dynamical RAM for           str. fact:       0.05 MB

     Dynamical RAM for           local pot:       0.00 MB

     Dynamical RAM for          nlocal pot:       0.07 MB

     Dynamical RAM for                qrad:       4.98 MB

     Dynamical RAM for          rho,v,vnew:       0.14 MB

     Dynamical RAM for               rhoin:       0.05 MB

     Dynamical RAM for            rho*nmix:       0.21 MB

     Dynamical RAM for           G-vectors:       0.05 MB

     Dynamical RAM for          h,s,v(r/c):       0.01 MB

     Dynamical RAM for          <psi|beta>:       0.05 MB

     Dynamical RAM for                 psi:       0.07 MB

     Dynamical RAM for                hpsi:       0.07 MB

     Dynamical RAM for                spsi:       0.07 MB

     Dynamical RAM for      wfcinit/wfcrot:       0.17 MB

     Dynamical RAM for           addusdens:       2.56 MB

     Dynamical RAM for          addusforce:       2.72 MB

     Dynamical RAM for         addusstress:       2.68 MB

     Estimated static dynamical RAM per process >       5.60 MB

     Estimated max dynamical RAM per process >       8.54 MB

     Estimated total dynamical RAM >     273.15 MB

     Check: negative core charge=   -0.000058

     Initial potential from superposition of free atoms

     starting charge      92.9965, renormalised to      95.0000

     negative rho (up, down):  8.609E-02 0.000E+00
     Starting wfcs are   64 randomized atomic wfcs
     Checking if some PAW data can be deallocated... 
       PAW data deallocated on   28 nodes for type:  1
       PAW data deallocated on   28 nodes for type:  2
       PAW data deallocated on   14 nodes for type:  4

     total cpu time spent up to now is        1.3 secs

     Self-consistent Calculation

     iteration #  1     ecut=    30.00 Ry     beta= 0.70
     Davidson diagonalization with overlap

---- Real-time Memory Report at c_bands before calling an iterative solver
           149 MiB given to the printing process from OS
             0 MiB allocation reported by mallinfo(arena+hblkhd)
        165033 MiB available memory on the node where the printing process lives
------------------
     ethr =  1.00E-02,  avg # of iterations =  3.0

     negative rho (up, down):  8.221E-02 0.000E+00

     total cpu time spent up to now is        1.4 secs

     total energy              =   -1218.86481992 Ry
     estimated scf accuracy    <      10.43614617 Ry

     iteration #  2     ecut=    30.00 Ry     beta= 0.70
     Davidson diagonalization with overlap

---- Real-time Memory Report at c_bands before calling an iterative solver
           156 MiB given to the printing process from OS
             0 MiB allocation reported by mallinfo(arena+hblkhd)
        164945 MiB available memory on the node where the printing process lives
------------------
     ethr =  1.00E-02,  avg # of iterations =  3.0

     negative rho (up, down):  8.256E-02 0.000E+00

     total cpu time spent up to now is        1.6 secs

     total energy              =   -1221.87976223 Ry
     estimated scf accuracy    <      73.99955355 Ry

     iteration #  3     ecut=    30.00 Ry     beta= 0.70
     Davidson diagonalization with overlap

---- Real-time Memory Report at c_bands before calling an iterative solver
           157 MiB given to the printing process from OS
             0 MiB allocation reported by mallinfo(arena+hblkhd)
        164934 MiB available memory on the node where the printing process lives
------------------
     ethr =  1.00E-02,  avg # of iterations =  3.0

     negative rho (up, down):  8.284E-02 0.000E+00

     total cpu time spent up to now is        1.7 secs

     total energy              =   -1225.69878607 Ry
     estimated scf accuracy    <      20.76789152 Ry

     iteration #  4     ecut=    30.00 Ry     beta= 0.70
     Davidson diagonalization with overlap

---- Real-time Memory Report at c_bands before calling an iterative solver
           158 MiB given to the printing process from OS
             0 MiB allocation reported by mallinfo(arena+hblkhd)
        164934 MiB available memory on the node where the printing process lives
------------------
     ethr =  1.00E-02,  avg # of iterations =  2.0

     negative rho (up, down):  8.280E-02 0.000E+00

     total cpu time spent up to now is        1.8 secs

     total energy              =   -1226.24079623 Ry
     estimated scf accuracy    <       5.42378229 Ry

     iteration #  5     ecut=    30.00 Ry     beta= 0.70
     Davidson diagonalization with overlap

---- Real-time Memory Report at c_bands before calling an iterative solver
           159 MiB given to the printing process from OS
             0 MiB allocation reported by mallinfo(arena+hblkhd)
        164934 MiB available memory on the node where the printing process lives
------------------
     ethr =  5.71E-03,  avg # of iterations =  1.0

     negative rho (up, down):  8.268E-02 0.000E+00

     total cpu time spent up to now is        1.9 secs

     total energy              =   -1226.52597865 Ry
     estimated scf accuracy    <       0.59757348 Ry

     iteration #  6     ecut=    30.00 Ry     beta= 0.70
     Davidson diagonalization with overlap

---- Real-time Memory Report at c_bands before calling an iterative solver
           159 MiB given to the printing process from OS
             0 MiB allocation reported by mallinfo(arena+hblkhd)
        164934 MiB available memory on the node where the printing process lives
------------------
     ethr =  6.29E-04,  avg # of iterations =  2.0

     negative rho (up, down):  8.257E-02 0.000E+00

     total cpu time spent up to now is        2.0 secs

     total energy              =   -1226.57779643 Ry
     estimated scf accuracy    <       0.07277981 Ry

     iteration #  7     ecut=    30.00 Ry     beta= 0.70
     Davidson diagonalization with overlap

---- Real-time Memory Report at c_bands before calling an iterative solver
           160 MiB given to the printing process from OS
             0 MiB allocation reported by mallinfo(arena+hblkhd)
        164934 MiB available memory on the node where the printing process lives
------------------
     ethr =  7.66E-05,  avg # of iterations =  9.0

     negative rho (up, down):  8.245E-02 0.000E+00

     total cpu time spent up to now is        2.2 secs

     total energy              =   -1226.59032830 Ry
     estimated scf accuracy    <       0.32586821 Ry

     iteration #  8     ecut=    30.00 Ry     beta= 0.70
     Davidson diagonalization with overlap

---- Real-time Memory Report at c_bands before calling an iterative solver
           160 MiB given to the printing process from OS
             0 MiB allocation reported by mallinfo(arena+hblkhd)
        164931 MiB available memory on the node where the printing process lives
------------------
     ethr =  7.66E-05,  avg # of iterations =  2.0

     negative rho (up, down):  8.249E-02 0.000E+00

     total cpu time spent up to now is        2.3 secs

     total energy              =   -1226.60180121 Ry
     estimated scf accuracy    <       0.07070394 Ry

     iteration #  9     ecut=    30.00 Ry     beta= 0.70
     Davidson diagonalization with overlap

---- Real-time Memory Report at c_bands before calling an iterative solver
           161 MiB given to the printing process from OS
             0 MiB allocation reported by mallinfo(arena+hblkhd)
        164925 MiB available memory on the node where the printing process lives
------------------
     ethr =  7.44E-05,  avg # of iterations =  1.0

     negative rho (up, down):  8.256E-02 0.000E+00

     total cpu time spent up to now is        2.4 secs

     total energy              =   -1226.59568029 Ry
     estimated scf accuracy    <       0.08542288 Ry

     iteration # 10     ecut=    30.00 Ry     beta= 0.70
     Davidson diagonalization with overlap

---- Real-time Memory Report at c_bands before calling an iterative solver
           161 MiB given to the printing process from OS
             0 MiB allocation reported by mallinfo(arena+hblkhd)
        164925 MiB available memory on the node where the printing process lives
------------------
     ethr =  7.44E-05,  avg # of iterations =  1.0

     negative rho (up, down):  8.257E-02 0.000E+00

     total cpu time spent up to now is        2.5 secs

     total energy              =   -1226.60477613 Ry
     estimated scf accuracy    <       0.05725642 Ry

     iteration # 11     ecut=    30.00 Ry     beta= 0.70
     Davidson diagonalization with overlap

---- Real-time Memory Report at c_bands before calling an iterative solver
           162 MiB given to the printing process from OS
             0 MiB allocation reported by mallinfo(arena+hblkhd)
        164925 MiB available memory on the node where the printing process lives
------------------
     ethr =  6.03E-05,  avg # of iterations =  1.0

     negative rho (up, down):  8.254E-02 0.000E+00

     total cpu time spent up to now is        2.6 secs

     total energy              =   -1226.60185940 Ry
     estimated scf accuracy    <       0.03535323 Ry

     iteration # 12     ecut=    30.00 Ry     beta= 0.70
     Davidson diagonalization with overlap

---- Real-time Memory Report at c_bands before calling an iterative solver
           162 MiB given to the printing process from OS
             0 MiB allocation reported by mallinfo(arena+hblkhd)
        164925 MiB available memory on the node where the printing process lives
------------------
     ethr =  3.72E-05,  avg # of iterations =  1.0

     negative rho (up, down):  8.257E-02 0.000E+00

     total cpu time spent up to now is        2.7 secs

     total energy              =   -1226.60032606 Ry
     estimated scf accuracy    <       0.02486174 Ry

     iteration # 13     ecut=    30.00 Ry     beta= 0.70
     Davidson diagonalization with overlap

---- Real-time Memory Report at c_bands before calling an iterative solver
           162 MiB given to the printing process from OS
             0 MiB allocation reported by mallinfo(arena+hblkhd)
        164923 MiB available memory on the node where the printing process lives
------------------
     ethr =  2.62E-05,  avg # of iterations =  1.0

     negative rho (up, down):  8.269E-02 0.000E+00

     total cpu time spent up to now is        2.8 secs

     total energy              =   -1226.60172701 Ry
     estimated scf accuracy    <       0.01164381 Ry

     iteration # 14     ecut=    30.00 Ry     beta= 0.70
     Davidson diagonalization with overlap

---- Real-time Memory Report at c_bands before calling an iterative solver
           162 MiB given to the printing process from OS
             0 MiB allocation reported by mallinfo(arena+hblkhd)
        164923 MiB available memory on the node where the printing process lives
------------------
     ethr =  1.23E-05,  avg # of iterations =  1.0

     negative rho (up, down):  8.271E-02 0.000E+00

     total cpu time spent up to now is        2.9 secs

     total energy              =   -1226.60556717 Ry
     estimated scf accuracy    <       0.07410316 Ry

     iteration # 15     ecut=    30.00 Ry     beta= 0.70
     Davidson diagonalization with overlap

---- Real-time Memory Report at c_bands before calling an iterative solver
           162 MiB given to the printing process from OS
             0 MiB allocation reported by mallinfo(arena+hblkhd)
        164923 MiB available memory on the node where the printing process lives
------------------
     ethr =  1.23E-05,  avg # of iterations =  2.0

     negative rho (up, down):  8.270E-02 0.000E+00

     total cpu time spent up to now is        3.1 secs

     total energy              =   -1226.59740972 Ry
     estimated scf accuracy    <       0.05930053 Ry

     iteration # 16     ecut=    30.00 Ry     beta= 0.70
     Davidson diagonalization with overlap

---- Real-time Memory Report at c_bands before calling an iterative solver
           162 MiB given to the printing process from OS
             0 MiB allocation reported by mallinfo(arena+hblkhd)
        164923 MiB available memory on the node where the printing process lives
------------------
     ethr =  1.23E-05,  avg # of iterations =  1.0

     negative rho (up, down):  8.273E-02 0.000E+00

     total cpu time spent up to now is        3.2 secs

     total energy              =   -1226.59438843 Ry
     estimated scf accuracy    <       0.05259714 Ry

     iteration # 17     ecut=    30.00 Ry     beta= 0.70
     Davidson diagonalization with overlap

---- Real-time Memory Report at c_bands before calling an iterative solver
           162 MiB given to the printing process from OS
             0 MiB allocation reported by mallinfo(arena+hblkhd)
        164922 MiB available memory on the node where the printing process lives
------------------
     ethr =  1.23E-05,  avg # of iterations =  1.0

     negative rho (up, down):  8.274E-02 0.000E+00

     total cpu time spent up to now is        3.3 secs

     total energy              =   -1226.59386740 Ry
     estimated scf accuracy    <       0.04904598 Ry

     iteration # 18     ecut=    30.00 Ry     beta= 0.70
     Davidson diagonalization with overlap

---- Real-time Memory Report at c_bands before calling an iterative solver
           162 MiB given to the printing process from OS
             0 MiB allocation reported by mallinfo(arena+hblkhd)
        164922 MiB available memory on the node where the printing process lives
------------------
     ethr =  1.23E-05,  avg # of iterations =  1.0

     negative rho (up, down):  8.276E-02 0.000E+00

     total cpu time spent up to now is        3.4 secs

     total energy              =   -1226.59400296 Ry
     estimated scf accuracy    <       0.04254211 Ry

     iteration # 19     ecut=    30.00 Ry     beta= 0.70
     Davidson diagonalization with overlap

---- Real-time Memory Report at c_bands before calling an iterative solver
           163 MiB given to the printing process from OS
             0 MiB allocation reported by mallinfo(arena+hblkhd)
        164923 MiB available memory on the node where the printing process lives
------------------
     ethr =  1.23E-05,  avg # of iterations =  1.0

     negative rho (up, down):  8.282E-02 0.000E+00

     total cpu time spent up to now is        3.5 secs

     total energy              =   -1226.59602561 Ry
     estimated scf accuracy    <       0.03577340 Ry

     iteration # 20     ecut=    30.00 Ry     beta= 0.70
     Davidson diagonalization with overlap

---- Real-time Memory Report at c_bands before calling an iterative solver
           163 MiB given to the printing process from OS
             0 MiB allocation reported by mallinfo(arena+hblkhd)
        164923 MiB available memory on the node where the printing process lives
------------------
     ethr =  1.23E-05,  avg # of iterations =  1.0

     negative rho (up, down):  8.279E-02 0.000E+00

     total cpu time spent up to now is        3.6 secs

     total energy              =   -1226.60669764 Ry
     estimated scf accuracy    <       0.03850579 Ry

     iteration # 21     ecut=    30.00 Ry     beta= 0.70
     Davidson diagonalization with overlap

---- Real-time Memory Report at c_bands before calling an iterative solver
           163 MiB given to the printing process from OS
             0 MiB allocation reported by mallinfo(arena+hblkhd)
        164923 MiB available memory on the node where the printing process lives
------------------
     ethr =  1.23E-05,  avg # of iterations =  2.0

     negative rho (up, down):  8.274E-02 0.000E+00

     total cpu time spent up to now is        3.7 secs

     total energy              =   -1226.60182284 Ry
     estimated scf accuracy    <       0.04783658 Ry

     iteration # 22     ecut=    30.00 Ry     beta= 0.70
     Davidson diagonalization with overlap

---- Real-time Memory Report at c_bands before calling an iterative solver
           163 MiB given to the printing process from OS
             0 MiB allocation reported by mallinfo(arena+hblkhd)
        164923 MiB available memory on the node where the printing process lives
------------------
     ethr =  1.23E-05,  avg # of iterations =  1.0

     negative rho (up, down):  8.274E-02 0.000E+00

     total cpu time spent up to now is        3.8 secs

     total energy              =   -1226.59992255 Ry
     estimated scf accuracy    <       0.02531897 Ry

     iteration # 23     ecut=    30.00 Ry     beta= 0.70
     Davidson diagonalization with overlap

---- Real-time Memory Report at c_bands before calling an iterative solver
           163 MiB given to the printing process from OS
             0 MiB allocation reported by mallinfo(arena+hblkhd)
        164923 MiB available memory on the node where the printing process lives
------------------
     ethr =  1.23E-05,  avg # of iterations =  1.0

     negative rho (up, down):  8.273E-02 0.000E+00

     total cpu time spent up to now is        3.9 secs

     total energy              =   -1226.60084102 Ry
     estimated scf accuracy    <       0.02311592 Ry

     iteration # 24     ecut=    30.00 Ry     beta= 0.70
     Davidson diagonalization with overlap

---- Real-time Memory Report at c_bands before calling an iterative solver
           163 MiB given to the printing process from OS
             0 MiB allocation reported by mallinfo(arena+hblkhd)
        164923 MiB available memory on the node where the printing process lives
------------------
     ethr =  1.23E-05,  avg # of iterations =  1.0

     negative rho (up, down):  8.274E-02 0.000E+00

     total cpu time spent up to now is        4.0 secs

     total energy              =   -1226.60139538 Ry
     estimated scf accuracy    <       0.01085459 Ry

     iteration # 25     ecut=    30.00 Ry     beta= 0.70
     Davidson diagonalization with overlap

---- Real-time Memory Report at c_bands before calling an iterative solver
           163 MiB given to the printing process from OS
             0 MiB allocation reported by mallinfo(arena+hblkhd)
        164923 MiB available memory on the node where the printing process lives
------------------
     ethr =  1.14E-05,  avg # of iterations =  1.0

     negative rho (up, down):  8.275E-02 0.000E+00

     total cpu time spent up to now is        4.1 secs

     total energy              =   -1226.60155854 Ry
     estimated scf accuracy    <       0.00896579 Ry

     iteration # 26     ecut=    30.00 Ry     beta= 0.70
     Davidson diagonalization with overlap

---- Real-time Memory Report at c_bands before calling an iterative solver
           163 MiB given to the printing process from OS
             0 MiB allocation reported by mallinfo(arena+hblkhd)
        164923 MiB available memory on the node where the printing process lives
------------------
     ethr =  9.44E-06,  avg # of iterations =  1.0

     negative rho (up, down):  8.276E-02 0.000E+00

     total cpu time spent up to now is        4.3 secs

     total energy              =   -1226.60099319 Ry
     estimated scf accuracy    <       0.00708717 Ry

     iteration # 27     ecut=    30.00 Ry     beta= 0.70
     Davidson diagonalization with overlap

---- Real-time Memory Report at c_bands before calling an iterative solver
           163 MiB given to the printing process from OS
             0 MiB allocation reported by mallinfo(arena+hblkhd)
        164923 MiB available memory on the node where the printing process lives
------------------
     ethr =  7.46E-06,  avg # of iterations =  1.0

     negative rho (up, down):  8.276E-02 0.000E+00

     total cpu time spent up to now is        4.4 secs

     total energy              =   -1226.59983886 Ry
     estimated scf accuracy    <       0.00694710 Ry

     iteration # 28     ecut=    30.00 Ry     beta= 0.70
     Davidson diagonalization with overlap

---- Real-time Memory Report at c_bands before calling an iterative solver
           163 MiB given to the printing process from OS
             0 MiB allocation reported by mallinfo(arena+hblkhd)
        164923 MiB available memory on the node where the printing process lives
------------------
     ethr =  7.31E-06,  avg # of iterations =  1.0

     negative rho (up, down):  8.276E-02 0.000E+00

     total cpu time spent up to now is        4.5 secs

     total energy              =   -1226.59658045 Ry
     estimated scf accuracy    <       0.00882094 Ry

     iteration # 29     ecut=    30.00 Ry     beta= 0.70
     Davidson diagonalization with overlap

---- Real-time Memory Report at c_bands before calling an iterative solver
           163 MiB given to the printing process from OS
             0 MiB allocation reported by mallinfo(arena+hblkhd)
        164923 MiB available memory on the node where the printing process lives
------------------
     ethr =  7.31E-06,  avg # of iterations =  1.0

     negative rho (up, down):  8.276E-02 0.000E+00

     total cpu time spent up to now is        4.6 secs

     total energy              =   -1226.59788934 Ry
     estimated scf accuracy    <       0.02144168 Ry

     iteration # 30     ecut=    30.00 Ry     beta= 0.70
     Davidson diagonalization with overlap

---- Real-time Memory Report at c_bands before calling an iterative solver
           163 MiB given to the printing process from OS
             0 MiB allocation reported by mallinfo(arena+hblkhd)
        164923 MiB available memory on the node where the printing process lives
------------------
     ethr =  7.31E-06,  avg # of iterations =  1.0

     negative rho (up, down):  8.276E-02 0.000E+00

     total cpu time spent up to now is        4.7 secs

     total energy              =   -1226.59651940 Ry
     estimated scf accuracy    <       0.03185560 Ry

     iteration # 31     ecut=    30.00 Ry     beta= 0.70
     Davidson diagonalization with overlap

---- Real-time Memory Report at c_bands before calling an iterative solver
           163 MiB given to the printing process from OS
             0 MiB allocation reported by mallinfo(arena+hblkhd)
        164923 MiB available memory on the node where the printing process lives
------------------
     ethr =  7.31E-06,  avg # of iterations =  1.0

     negative rho (up, down):  8.276E-02 0.000E+00

     total cpu time spent up to now is        4.8 secs

     total energy              =   -1226.59592991 Ry
     estimated scf accuracy    <       0.03066877 Ry

     iteration # 32     ecut=    30.00 Ry     beta= 0.70
     Davidson diagonalization with overlap

---- Real-time Memory Report at c_bands before calling an iterative solver
           163 MiB given to the printing process from OS
             0 MiB allocation reported by mallinfo(arena+hblkhd)
        164923 MiB available memory on the node where the printing process lives
------------------
     ethr =  7.31E-06,  avg # of iterations =  1.0

     negative rho (up, down):  8.275E-02 0.000E+00

     total cpu time spent up to now is        4.9 secs

     total energy              =   -1226.59477533 Ry
     estimated scf accuracy    <       0.02620240 Ry

     iteration # 33     ecut=    30.00 Ry     beta= 0.70
     Davidson diagonalization with overlap

---- Real-time Memory Report at c_bands before calling an iterative solver
           163 MiB given to the printing process from OS
             0 MiB allocation reported by mallinfo(arena+hblkhd)
        164923 MiB available memory on the node where the printing process lives
------------------
     ethr =  7.31E-06,  avg # of iterations =  1.0

     negative rho (up, down):  8.276E-02 0.000E+00

     total cpu time spent up to now is        5.0 secs

     total energy              =   -1226.59461040 Ry
     estimated scf accuracy    <       0.03636128 Ry

     iteration # 34     ecut=    30.00 Ry     beta= 0.70
     Davidson diagonalization with overlap

---- Real-time Memory Report at c_bands before calling an iterative solver
           163 MiB given to the printing process from OS
             0 MiB allocation reported by mallinfo(arena+hblkhd)
        164923 MiB available memory on the node where the printing process lives
------------------
     ethr =  7.31E-06,  avg # of iterations =  1.0

     negative rho (up, down):  8.273E-02 0.000E+00

     total cpu time spent up to now is        5.1 secs

     total energy              =   -1226.59253652 Ry
     estimated scf accuracy    <       0.04807088 Ry

     iteration # 35     ecut=    30.00 Ry     beta= 0.70
     Davidson diagonalization with overlap

---- Real-time Memory Report at c_bands before calling an iterative solver
           163 MiB given to the printing process from OS
             0 MiB allocation reported by mallinfo(arena+hblkhd)
        164923 MiB available memory on the node where the printing process lives
------------------
     ethr =  7.31E-06,  avg # of iterations =  1.0

     negative rho (up, down):  8.275E-02 0.000E+00

     total cpu time spent up to now is        5.2 secs

     total energy              =   -1226.59254661 Ry
     estimated scf accuracy    <       0.06265867 Ry

     iteration # 36     ecut=    30.00 Ry     beta= 0.70
     Davidson diagonalization with overlap

---- Real-time Memory Report at c_bands before calling an iterative solver
           163 MiB given to the printing process from OS
             0 MiB allocation reported by mallinfo(arena+hblkhd)
        164924 MiB available memory on the node where the printing process lives
------------------
     ethr =  7.31E-06,  avg # of iterations =  1.0

     negative rho (up, down):  8.274E-02 0.000E+00

     total cpu time spent up to now is        5.3 secs

     total energy              =   -1226.59112592 Ry
     estimated scf accuracy    <       0.06040853 Ry

     iteration # 37     ecut=    30.00 Ry     beta= 0.70
     Davidson diagonalization with overlap

---- Real-time Memory Report at c_bands before calling an iterative solver
           163 MiB given to the printing process from OS
             0 MiB allocation reported by mallinfo(arena+hblkhd)
        164924 MiB available memory on the node where the printing process lives
------------------
     ethr =  7.31E-06,  avg # of iterations =  1.0

     negative rho (up, down):  8.278E-02 0.000E+00

     total cpu time spent up to now is        5.4 secs

     total energy              =   -1226.59242571 Ry
     estimated scf accuracy    <       0.05312427 Ry

     iteration # 38     ecut=    30.00 Ry     beta= 0.70
     Davidson diagonalization with overlap

---- Real-time Memory Report at c_bands before calling an iterative solver
           163 MiB given to the printing process from OS
             0 MiB allocation reported by mallinfo(arena+hblkhd)
        164924 MiB available memory on the node where the printing process lives
------------------
     ethr =  7.31E-06,  avg # of iterations =  6.0

     negative rho (up, down):  8.275E-02 0.000E+00

     total cpu time spent up to now is        5.6 secs

     total energy              =   -1226.60328337 Ry
     estimated scf accuracy    <       0.07835414 Ry

     iteration # 39     ecut=    30.00 Ry     beta= 0.70
     Davidson diagonalization with overlap

---- Real-time Memory Report at c_bands before calling an iterative solver
           163 MiB given to the printing process from OS
             0 MiB allocation reported by mallinfo(arena+hblkhd)
        164924 MiB available memory on the node where the printing process lives
------------------
     ethr =  7.31E-06,  avg # of iterations =  2.0

     negative rho (up, down):  8.273E-02 0.000E+00

     total cpu time spent up to now is        5.7 secs

     total energy              =   -1226.59772069 Ry
     estimated scf accuracy    <       0.04893528 Ry

     iteration # 40     ecut=    30.00 Ry     beta= 0.70
     Davidson diagonalization with overlap

---- Real-time Memory Report at c_bands before calling an iterative solver
           163 MiB given to the printing process from OS
             0 MiB allocation reported by mallinfo(arena+hblkhd)
        164924 MiB available memory on the node where the printing process lives
------------------
     ethr =  7.31E-06,  avg # of iterations =  1.0

     negative rho (up, down):  8.272E-02 0.000E+00

     total cpu time spent up to now is        5.8 secs

     total energy              =   -1226.59551321 Ry
     estimated scf accuracy    <       0.02813566 Ry

     iteration # 41     ecut=    30.00 Ry     beta= 0.70
     Davidson diagonalization with overlap

---- Real-time Memory Report at c_bands before calling an iterative solver
           163 MiB given to the printing process from OS
             0 MiB allocation reported by mallinfo(arena+hblkhd)
        164924 MiB available memory on the node where the printing process lives
------------------
     ethr =  7.31E-06,  avg # of iterations =  1.0

     negative rho (up, down):  8.272E-02 0.000E+00

     total cpu time spent up to now is        5.9 secs

     total energy              =   -1226.59473096 Ry
     estimated scf accuracy    <       0.02413582 Ry

     iteration # 42     ecut=    30.00 Ry     beta= 0.70
     Davidson diagonalization with overlap

---- Real-time Memory Report at c_bands before calling an iterative solver
           163 MiB given to the printing process from OS
             0 MiB allocation reported by mallinfo(arena+hblkhd)
        164924 MiB available memory on the node where the printing process lives
------------------
     ethr =  7.31E-06,  avg # of iterations =  1.0

     negative rho (up, down):  8.271E-02 0.000E+00

     total cpu time spent up to now is        6.0 secs

     total energy              =   -1226.59307975 Ry
     estimated scf accuracy    <       0.02106597 Ry

     iteration # 43     ecut=    30.00 Ry     beta= 0.70
     Davidson diagonalization with overlap

---- Real-time Memory Report at c_bands before calling an iterative solver
           163 MiB given to the printing process from OS
             0 MiB allocation reported by mallinfo(arena+hblkhd)
        164924 MiB available memory on the node where the printing process lives
------------------
     ethr =  7.31E-06,  avg # of iterations =  1.0

     negative rho (up, down):  8.272E-02 0.000E+00

     total cpu time spent up to now is        6.1 secs

     total energy              =   -1226.59614314 Ry
     estimated scf accuracy    <       0.02709240 Ry

     iteration # 44     ecut=    30.00 Ry     beta= 0.70
     Davidson diagonalization with overlap

---- Real-time Memory Report at c_bands before calling an iterative solver
           163 MiB given to the printing process from OS
             0 MiB allocation reported by mallinfo(arena+hblkhd)
        164924 MiB available memory on the node where the printing process lives
------------------
     ethr =  7.31E-06,  avg # of iterations =  2.0

     negative rho (up, down):  8.268E-02 0.000E+00

     total cpu time spent up to now is        6.3 secs

     total energy              =   -1226.59927284 Ry
     estimated scf accuracy    <       0.01209619 Ry

     iteration # 45     ecut=    30.00 Ry     beta= 0.70
     Davidson diagonalization with overlap

---- Real-time Memory Report at c_bands before calling an iterative solver
           163 MiB given to the printing process from OS
             0 MiB allocation reported by mallinfo(arena+hblkhd)
        164924 MiB available memory on the node where the printing process lives
------------------
     ethr =  7.31E-06,  avg # of iterations =  2.0

     negative rho (up, down):  8.275E-02 0.000E+00

     total cpu time spent up to now is        6.4 secs

     total energy              =   -1226.60249004 Ry
     estimated scf accuracy    <       0.07189843 Ry

     iteration # 46     ecut=    30.00 Ry     beta= 0.70
     Davidson diagonalization with overlap

---- Real-time Memory Report at c_bands before calling an iterative solver
           163 MiB given to the printing process from OS
             0 MiB allocation reported by mallinfo(arena+hblkhd)
        164924 MiB available memory on the node where the printing process lives
------------------
     ethr =  7.31E-06,  avg # of iterations =  2.0

     negative rho (up, down):  8.275E-02 0.000E+00

     total cpu time spent up to now is        6.5 secs

     total energy              =   -1226.59674240 Ry
     estimated scf accuracy    <       0.04850979 Ry

     iteration # 47     ecut=    30.00 Ry     beta= 0.70
     Davidson diagonalization with overlap

---- Real-time Memory Report at c_bands before calling an iterative solver
           163 MiB given to the printing process from OS
             0 MiB allocation reported by mallinfo(arena+hblkhd)
        164924 MiB available memory on the node where the printing process lives
------------------
     ethr =  7.31E-06,  avg # of iterations =  2.0

     negative rho (up, down):  8.279E-02 0.000E+00

     total cpu time spent up to now is        6.6 secs

     total energy              =   -1226.59643759 Ry
     estimated scf accuracy    <       0.02845578 Ry

     iteration # 48     ecut=    30.00 Ry     beta= 0.70
     Davidson diagonalization with overlap

---- Real-time Memory Report at c_bands before calling an iterative solver
           163 MiB given to the printing process from OS
             0 MiB allocation reported by mallinfo(arena+hblkhd)
        164924 MiB available memory on the node where the printing process lives
------------------
     ethr =  7.31E-06,  avg # of iterations =  1.0

     negative rho (up, down):  8.277E-02 0.000E+00

     total cpu time spent up to now is        6.7 secs

     total energy              =   -1226.60314812 Ry
     estimated scf accuracy    <       0.02588924 Ry

     iteration # 49     ecut=    30.00 Ry     beta= 0.70
     Davidson diagonalization with overlap

---- Real-time Memory Report at c_bands before calling an iterative solver
           163 MiB given to the printing process from OS
             0 MiB allocation reported by mallinfo(arena+hblkhd)
        164924 MiB available memory on the node where the printing process lives
------------------
     ethr =  7.31E-06,  avg # of iterations =  2.0

     negative rho (up, down):  8.277E-02 0.000E+00

     total cpu time spent up to now is        6.8 secs

     total energy              =   -1226.59998885 Ry
     estimated scf accuracy    <       0.01125780 Ry

     iteration # 50     ecut=    30.00 Ry     beta= 0.70
     Davidson diagonalization with overlap

---- Real-time Memory Report at c_bands before calling an iterative solver
           163 MiB given to the printing process from OS
             0 MiB allocation reported by mallinfo(arena+hblkhd)
        164924 MiB available memory on the node where the printing process lives
------------------
     ethr =  7.31E-06,  avg # of iterations =  1.0

     negative rho (up, down):  8.278E-02 0.000E+00

     total cpu time spent up to now is        6.9 secs

     total energy              =   -1226.59791727 Ry
     estimated scf accuracy    <       0.01869198 Ry

     iteration # 51     ecut=    30.00 Ry     beta= 0.70
     Davidson diagonalization with overlap

---- Real-time Memory Report at c_bands before calling an iterative solver
           163 MiB given to the printing process from OS
             0 MiB allocation reported by mallinfo(arena+hblkhd)
        164924 MiB available memory on the node where the printing process lives
------------------
     ethr =  7.31E-06,  avg # of iterations =  1.0

     negative rho (up, down):  8.279E-02 0.000E+00

     total cpu time spent up to now is        7.0 secs

     total energy              =   -1226.59784803 Ry
     estimated scf accuracy    <       0.01989746 Ry

     iteration # 52     ecut=    30.00 Ry     beta= 0.70
     Davidson diagonalization with overlap

---- Real-time Memory Report at c_bands before calling an iterative solver
           163 MiB given to the printing process from OS
             0 MiB allocation reported by mallinfo(arena+hblkhd)
        164924 MiB available memory on the node where the printing process lives
------------------
     ethr =  7.31E-06,  avg # of iterations =  1.0

     negative rho (up, down):  8.278E-02 0.000E+00

     total cpu time spent up to now is        7.1 secs

     total energy              =   -1226.59483176 Ry
     estimated scf accuracy    <       0.01096298 Ry

     iteration # 53     ecut=    30.00 Ry     beta= 0.70
     Davidson diagonalization with overlap

---- Real-time Memory Report at c_bands before calling an iterative solver
           163 MiB given to the printing process from OS
             0 MiB allocation reported by mallinfo(arena+hblkhd)
        164924 MiB available memory on the node where the printing process lives
------------------
     ethr =  7.31E-06,  avg # of iterations =  1.0

     negative rho (up, down):  8.281E-02 0.000E+00

     total cpu time spent up to now is        7.3 secs

     total energy              =   -1226.58827721 Ry
     estimated scf accuracy    <       0.01811143 Ry

     iteration # 54     ecut=    30.00 Ry     beta= 0.70
     Davidson diagonalization with overlap

---- Real-time Memory Report at c_bands before calling an iterative solver
           163 MiB given to the printing process from OS
             0 MiB allocation reported by mallinfo(arena+hblkhd)
        164925 MiB available memory on the node where the printing process lives
------------------
     ethr =  7.31E-06,  avg # of iterations =  1.0

     negative rho (up, down):  8.283E-02 0.000E+00

     total cpu time spent up to now is        7.4 secs

     total energy              =   -1226.58916866 Ry
     estimated scf accuracy    <       0.01445807 Ry

     iteration # 55     ecut=    30.00 Ry     beta= 0.70
     Davidson diagonalization with overlap

---- Real-time Memory Report at c_bands before calling an iterative solver
           163 MiB given to the printing process from OS
             0 MiB allocation reported by mallinfo(arena+hblkhd)
        164925 MiB available memory on the node where the printing process lives
------------------
     ethr =  7.31E-06,  avg # of iterations =  2.0

     negative rho (up, down):  8.281E-02 0.000E+00

     total cpu time spent up to now is        7.5 secs

     total energy              =   -1226.59870984 Ry
     estimated scf accuracy    <       0.04490615 Ry

     iteration # 56     ecut=    30.00 Ry     beta= 0.70
     Davidson diagonalization with overlap

---- Real-time Memory Report at c_bands before calling an iterative solver
           163 MiB given to the printing process from OS
             0 MiB allocation reported by mallinfo(arena+hblkhd)
        164925 MiB available memory on the node where the printing process lives
------------------
     ethr =  7.31E-06,  avg # of iterations =  2.0

     negative rho (up, down):  8.277E-02 0.000E+00

     total cpu time spent up to now is        7.6 secs

     total energy              =   -1226.60030774 Ry
     estimated scf accuracy    <       0.04808695 Ry

     iteration # 57     ecut=    30.00 Ry     beta= 0.70
     Davidson diagonalization with overlap

---- Real-time Memory Report at c_bands before calling an iterative solver
           163 MiB given to the printing process from OS
             0 MiB allocation reported by mallinfo(arena+hblkhd)
        164925 MiB available memory on the node where the printing process lives
------------------
     ethr =  7.31E-06,  avg # of iterations =  1.0

     negative rho (up, down):  8.276E-02 0.000E+00

     total cpu time spent up to now is        7.7 secs

     total energy              =   -1226.60059111 Ry
     estimated scf accuracy    <       0.03739415 Ry

     iteration # 58     ecut=    30.00 Ry     beta= 0.70
     Davidson diagonalization with overlap

---- Real-time Memory Report at c_bands before calling an iterative solver
           163 MiB given to the printing process from OS
             0 MiB allocation reported by mallinfo(arena+hblkhd)
        164925 MiB available memory on the node where the printing process lives
------------------
     ethr =  7.31E-06,  avg # of iterations =  1.0

     negative rho (up, down):  8.276E-02 0.000E+00

     total cpu time spent up to now is        7.8 secs

     total energy              =   -1226.59914099 Ry
     estimated scf accuracy    <       0.02360886 Ry

     iteration # 59     ecut=    30.00 Ry     beta= 0.70
     Davidson diagonalization with overlap

---- Real-time Memory Report at c_bands before calling an iterative solver
           163 MiB given to the printing process from OS
             0 MiB allocation reported by mallinfo(arena+hblkhd)
        164925 MiB available memory on the node where the printing process lives
------------------
     ethr =  7.31E-06,  avg # of iterations =  2.0

     negative rho (up, down):  8.274E-02 0.000E+00

     total cpu time spent up to now is        7.9 secs

     total energy              =   -1226.59958749 Ry
     estimated scf accuracy    <       0.02195724 Ry

     iteration # 60     ecut=    30.00 Ry     beta= 0.70
     Davidson diagonalization with overlap

---- Real-time Memory Report at c_bands before calling an iterative solver
           163 MiB given to the printing process from OS
             0 MiB allocation reported by mallinfo(arena+hblkhd)
        164925 MiB available memory on the node where the printing process lives
------------------
     ethr =  7.31E-06,  avg # of iterations =  2.0

     negative rho (up, down):  8.272E-02 0.000E+00

     total cpu time spent up to now is        8.0 secs

     total energy              =   -1226.59992675 Ry
     estimated scf accuracy    <       0.01585012 Ry

     iteration # 61     ecut=    30.00 Ry     beta= 0.70
     Davidson diagonalization with overlap

---- Real-time Memory Report at c_bands before calling an iterative solver
           163 MiB given to the printing process from OS
             0 MiB allocation reported by mallinfo(arena+hblkhd)
        164925 MiB available memory on the node where the printing process lives
------------------
     ethr =  7.31E-06,  avg # of iterations =  2.0

     negative rho (up, down):  8.273E-02 0.000E+00

     total cpu time spent up to now is        8.1 secs

     total energy              =   -1226.60044126 Ry
     estimated scf accuracy    <       0.01293433 Ry

     iteration # 62     ecut=    30.00 Ry     beta= 0.70
     Davidson diagonalization with overlap

---- Real-time Memory Report at c_bands before calling an iterative solver
           163 MiB given to the printing process from OS
             0 MiB allocation reported by mallinfo(arena+hblkhd)
        164925 MiB available memory on the node where the printing process lives
------------------
     ethr =  7.31E-06,  avg # of iterations =  1.0

     negative rho (up, down):  8.273E-02 0.000E+00

     total cpu time spent up to now is        8.2 secs

     total energy              =   -1226.60528890 Ry
     estimated scf accuracy    <       0.00662129 Ry

     iteration # 63     ecut=    30.00 Ry     beta= 0.70
     Davidson diagonalization with overlap

---- Real-time Memory Report at c_bands before calling an iterative solver
           163 MiB given to the printing process from OS
             0 MiB allocation reported by mallinfo(arena+hblkhd)
        164925 MiB available memory on the node where the printing process lives
------------------
     ethr =  6.97E-06,  avg # of iterations =  2.0

     negative rho (up, down):  8.275E-02 0.000E+00

     total cpu time spent up to now is        8.4 secs

     total energy              =   -1226.60271351 Ry
     estimated scf accuracy    <       0.06381713 Ry

     iteration # 64     ecut=    30.00 Ry     beta= 0.70
     Davidson diagonalization with overlap

---- Real-time Memory Report at c_bands before calling an iterative solver
           163 MiB given to the printing process from OS
             0 MiB allocation reported by mallinfo(arena+hblkhd)
        164925 MiB available memory on the node where the printing process lives
------------------
     ethr =  6.97E-06,  avg # of iterations =  2.0

     negative rho (up, down):  8.275E-02 0.000E+00

     total cpu time spent up to now is        8.5 secs

     total energy              =   -1226.59659615 Ry
     estimated scf accuracy    <       0.04962321 Ry

     iteration # 65     ecut=    30.00 Ry     beta= 0.70
     Davidson diagonalization with overlap

---- Real-time Memory Report at c_bands before calling an iterative solver
           163 MiB given to the printing process from OS
             0 MiB allocation reported by mallinfo(arena+hblkhd)
        164925 MiB available memory on the node where the printing process lives
------------------
     ethr =  6.97E-06,  avg # of iterations =  1.0

     negative rho (up, down):  8.275E-02 0.000E+00

     total cpu time spent up to now is        8.6 secs

     total energy              =   -1226.59315786 Ry
     estimated scf accuracy    <       0.04412500 Ry

     iteration # 66     ecut=    30.00 Ry     beta= 0.70
     Davidson diagonalization with overlap

---- Real-time Memory Report at c_bands before calling an iterative solver
           163 MiB given to the printing process from OS
             0 MiB allocation reported by mallinfo(arena+hblkhd)
        164925 MiB available memory on the node where the printing process lives
------------------
     ethr =  6.97E-06,  avg # of iterations =  1.0

     negative rho (up, down):  8.274E-02 0.000E+00

     total cpu time spent up to now is        8.7 secs

     total energy              =   -1226.59085700 Ry
     estimated scf accuracy    <       0.04818899 Ry

     iteration # 67     ecut=    30.00 Ry     beta= 0.70
     Davidson diagonalization with overlap

---- Real-time Memory Report at c_bands before calling an iterative solver
           163 MiB given to the printing process from OS
             0 MiB allocation reported by mallinfo(arena+hblkhd)
        164925 MiB available memory on the node where the printing process lives
------------------
     ethr =  6.97E-06,  avg # of iterations =  1.0

     negative rho (up, down):  8.273E-02 0.000E+00

     total cpu time spent up to now is        8.8 secs

     total energy              =   -1226.58889718 Ry
     estimated scf accuracy    <       0.05256131 Ry

     iteration # 68     ecut=    30.00 Ry     beta= 0.70
     Davidson diagonalization with overlap

---- Real-time Memory Report at c_bands before calling an iterative solver
           163 MiB given to the printing process from OS
             0 MiB allocation reported by mallinfo(arena+hblkhd)
        164925 MiB available memory on the node where the printing process lives
------------------
     ethr =  6.97E-06,  avg # of iterations =  1.0

     negative rho (up, down):  8.272E-02 0.000E+00

     total cpu time spent up to now is        8.9 secs

     total energy              =   -1226.58650088 Ry
     estimated scf accuracy    <       0.05702452 Ry

     iteration # 69     ecut=    30.00 Ry     beta= 0.70
     Davidson diagonalization with overlap

---- Real-time Memory Report at c_bands before calling an iterative solver
           163 MiB given to the printing process from OS
             0 MiB allocation reported by mallinfo(arena+hblkhd)
        164925 MiB available memory on the node where the printing process lives
------------------
     ethr =  6.97E-06,  avg # of iterations =  1.0

     negative rho (up, down):  8.273E-02 0.000E+00

     total cpu time spent up to now is        9.0 secs

     total energy              =   -1226.59199547 Ry
     estimated scf accuracy    <       0.07342192 Ry

     iteration # 70     ecut=    30.00 Ry     beta= 0.70
     Davidson diagonalization with overlap

---- Real-time Memory Report at c_bands before calling an iterative solver
           163 MiB given to the printing process from OS
             0 MiB allocation reported by mallinfo(arena+hblkhd)
        164925 MiB available memory on the node where the printing process lives
------------------
     ethr =  6.97E-06,  avg # of iterations =  2.0

     negative rho (up, down):  8.273E-02 0.000E+00

     total cpu time spent up to now is        9.1 secs

     total energy              =   -1226.59203837 Ry
     estimated scf accuracy    <       0.03896645 Ry

     iteration # 71     ecut=    30.00 Ry     beta= 0.70
     Davidson diagonalization with overlap

---- Real-time Memory Report at c_bands before calling an iterative solver
           163 MiB given to the printing process from OS
             0 MiB allocation reported by mallinfo(arena+hblkhd)
        164925 MiB available memory on the node where the printing process lives
------------------
     ethr =  6.97E-06,  avg # of iterations =  1.0

     negative rho (up, down):  8.281E-02 0.000E+00

     total cpu time spent up to now is        9.2 secs

     total energy              =   -1226.58537212 Ry
     estimated scf accuracy    <       0.03167974 Ry

     iteration # 72     ecut=    30.00 Ry     beta= 0.70
     Davidson diagonalization with overlap

---- Real-time Memory Report at c_bands before calling an iterative solver
           163 MiB given to the printing process from OS
             0 MiB allocation reported by mallinfo(arena+hblkhd)
        164925 MiB available memory on the node where the printing process lives
------------------
     ethr =  6.97E-06,  avg # of iterations =  6.0

     negative rho (up, down):  8.278E-02 0.000E+00

     total cpu time spent up to now is        9.4 secs

     total energy              =   -1226.60684609 Ry
     estimated scf accuracy    <       0.14201773 Ry

     iteration # 73     ecut=    30.00 Ry     beta= 0.70
     Davidson diagonalization with overlap

---- Real-time Memory Report at c_bands before calling an iterative solver
           163 MiB given to the printing process from OS
             0 MiB allocation reported by mallinfo(arena+hblkhd)
        164925 MiB available memory on the node where the printing process lives
------------------
     ethr =  6.97E-06,  avg # of iterations =  2.0

     negative rho (up, down):  8.275E-02 0.000E+00

     total cpu time spent up to now is        9.5 secs

     total energy              =   -1226.59737471 Ry
     estimated scf accuracy    <       0.09230926 Ry

     iteration # 74     ecut=    30.00 Ry     beta= 0.70
     Davidson diagonalization with overlap

---- Real-time Memory Report at c_bands before calling an iterative solver
           163 MiB given to the printing process from OS
             0 MiB allocation reported by mallinfo(arena+hblkhd)
        164925 MiB available memory on the node where the printing process lives
------------------
     ethr =  6.97E-06,  avg # of iterations =  2.0

     negative rho (up, down):  8.274E-02 0.000E+00

     total cpu time spent up to now is        9.6 secs

     total energy              =   -1226.59553857 Ry
     estimated scf accuracy    <       0.03966885 Ry

     iteration # 75     ecut=    30.00 Ry     beta= 0.70
     Davidson diagonalization with overlap

---- Real-time Memory Report at c_bands before calling an iterative solver
           163 MiB given to the printing process from OS
             0 MiB allocation reported by mallinfo(arena+hblkhd)
        164925 MiB available memory on the node where the printing process lives
------------------
     ethr =  6.97E-06,  avg # of iterations =  1.0

     negative rho (up, down):  8.275E-02 0.000E+00

     total cpu time spent up to now is        9.7 secs

     total energy              =   -1226.59341138 Ry
     estimated scf accuracy    <       0.03288245 Ry

     iteration # 76     ecut=    30.00 Ry     beta= 0.70
     Davidson diagonalization with overlap

---- Real-time Memory Report at c_bands before calling an iterative solver
           163 MiB given to the printing process from OS
             0 MiB allocation reported by mallinfo(arena+hblkhd)
        164925 MiB available memory on the node where the printing process lives
------------------
     ethr =  6.97E-06,  avg # of iterations =  1.0

     negative rho (up, down):  8.277E-02 0.000E+00

     total cpu time spent up to now is       10.0 secs

     total energy              =   -1226.59237342 Ry
     estimated scf accuracy    <       0.04062760 Ry

     iteration # 77     ecut=    30.00 Ry     beta= 0.70
     Davidson diagonalization with overlap

---- Real-time Memory Report at c_bands before calling an iterative solver
           163 MiB given to the printing process from OS
             0 MiB allocation reported by mallinfo(arena+hblkhd)
        164925 MiB available memory on the node where the printing process lives
------------------
     ethr =  6.97E-06,  avg # of iterations =  1.0

     negative rho (up, down):  8.277E-02 0.000E+00

     total cpu time spent up to now is       10.1 secs

     total energy              =   -1226.59398575 Ry
     estimated scf accuracy    <       0.05769545 Ry

     iteration # 78     ecut=    30.00 Ry     beta= 0.70
     Davidson diagonalization with overlap

---- Real-time Memory Report at c_bands before calling an iterative solver
           163 MiB given to the printing process from OS
             0 MiB allocation reported by mallinfo(arena+hblkhd)
        164925 MiB available memory on the node where the printing process lives
------------------
     ethr =  6.97E-06,  avg # of iterations =  1.0

     negative rho (up, down):  8.283E-02 0.000E+00

     total cpu time spent up to now is       10.2 secs

     total energy              =   -1226.58867602 Ry
     estimated scf accuracy    <       0.06165441 Ry

     iteration # 79     ecut=    30.00 Ry     beta= 0.70
     Davidson diagonalization with overlap

---- Real-time Memory Report at c_bands before calling an iterative solver
           163 MiB given to the printing process from OS
             0 MiB allocation reported by mallinfo(arena+hblkhd)
        164925 MiB available memory on the node where the printing process lives
------------------
     ethr =  6.97E-06,  avg # of iterations =  2.0

     negative rho (up, down):  8.284E-02 0.000E+00

     total cpu time spent up to now is       10.3 secs

     total energy              =   -1226.59185159 Ry
     estimated scf accuracy    <       0.12725417 Ry

     iteration # 80     ecut=    30.00 Ry     beta= 0.70
     Davidson diagonalization with overlap

---- Real-time Memory Report at c_bands before calling an iterative solver
           163 MiB given to the printing process from OS
             0 MiB allocation reported by mallinfo(arena+hblkhd)
        164925 MiB available memory on the node where the printing process lives
------------------
     ethr =  6.97E-06,  avg # of iterations =  2.0

     negative rho (up, down):  8.268E-02 0.000E+00

     total cpu time spent up to now is       10.4 secs

     total energy              =   -1226.59018478 Ry
     estimated scf accuracy    <       0.11405222 Ry

     iteration # 81     ecut=    30.00 Ry     beta= 0.70
     Davidson diagonalization with overlap

---- Real-time Memory Report at c_bands before calling an iterative solver
           163 MiB given to the printing process from OS
             0 MiB allocation reported by mallinfo(arena+hblkhd)
        164925 MiB available memory on the node where the printing process lives
------------------
     ethr =  6.97E-06,  avg # of iterations =  7.0

     negative rho (up, down):  8.275E-02 0.000E+00

     total cpu time spent up to now is       10.6 secs

     total energy              =   -1226.60160093 Ry
     estimated scf accuracy    <       0.09860582 Ry

     iteration # 82     ecut=    30.00 Ry     beta= 0.70
     Davidson diagonalization with overlap

---- Real-time Memory Report at c_bands before calling an iterative solver
           163 MiB given to the printing process from OS
             0 MiB allocation reported by mallinfo(arena+hblkhd)
        164925 MiB available memory on the node where the printing process lives
------------------
     ethr =  6.97E-06,  avg # of iterations =  3.0

     negative rho (up, down):  8.277E-02 0.000E+00

     total cpu time spent up to now is       10.7 secs

     total energy              =   -1226.59812637 Ry
     estimated scf accuracy    <       0.05649357 Ry

     iteration # 83     ecut=    30.00 Ry     beta= 0.70
     Davidson diagonalization with overlap

---- Real-time Memory Report at c_bands before calling an iterative solver
           163 MiB given to the printing process from OS
             0 MiB allocation reported by mallinfo(arena+hblkhd)
        164925 MiB available memory on the node where the printing process lives
------------------
     ethr =  6.97E-06,  avg # of iterations =  2.0

     negative rho (up, down):  8.278E-02 0.000E+00

     total cpu time spent up to now is       10.8 secs

     total energy              =   -1226.59723418 Ry
     estimated scf accuracy    <       0.02020712 Ry

     iteration # 84     ecut=    30.00 Ry     beta= 0.70
     Davidson diagonalization with overlap

---- Real-time Memory Report at c_bands before calling an iterative solver
           163 MiB given to the printing process from OS
             0 MiB allocation reported by mallinfo(arena+hblkhd)
        164925 MiB available memory on the node where the printing process lives
------------------
     ethr =  6.97E-06,  avg # of iterations =  1.0

     negative rho (up, down):  8.278E-02 0.000E+00

     total cpu time spent up to now is       10.9 secs

     total energy              =   -1226.59675449 Ry
     estimated scf accuracy    <       0.01664555 Ry

     iteration # 85     ecut=    30.00 Ry     beta= 0.70
     Davidson diagonalization with overlap

---- Real-time Memory Report at c_bands before calling an iterative solver
           163 MiB given to the printing process from OS
             0 MiB allocation reported by mallinfo(arena+hblkhd)
        164925 MiB available memory on the node where the printing process lives
------------------
     ethr =  6.97E-06,  avg # of iterations =  1.0

     negative rho (up, down):  8.279E-02 0.000E+00

     total cpu time spent up to now is       11.1 secs

     total energy              =   -1226.59566964 Ry
     estimated scf accuracy    <       0.01467442 Ry

     iteration # 86     ecut=    30.00 Ry     beta= 0.70
     Davidson diagonalization with overlap

---- Real-time Memory Report at c_bands before calling an iterative solver
           163 MiB given to the printing process from OS
             0 MiB allocation reported by mallinfo(arena+hblkhd)
        164925 MiB available memory on the node where the printing process lives
------------------
     ethr =  6.97E-06,  avg # of iterations =  1.0

     negative rho (up, down):  8.281E-02 0.000E+00

     total cpu time spent up to now is       11.2 secs

     total energy              =   -1226.59237614 Ry
     estimated scf accuracy    <       0.01083617 Ry

     iteration # 87     ecut=    30.00 Ry     beta= 0.70
     Davidson diagonalization with overlap

---- Real-time Memory Report at c_bands before calling an iterative solver
           163 MiB given to the printing process from OS
             0 MiB allocation reported by mallinfo(arena+hblkhd)
        164925 MiB available memory on the node where the printing process lives
------------------
     ethr =  6.97E-06,  avg # of iterations =  2.0

     negative rho (up, down):  8.281E-02 0.000E+00

     total cpu time spent up to now is       11.3 secs

     total energy              =   -1226.59209237 Ry
     estimated scf accuracy    <       0.01480915 Ry

     iteration # 88     ecut=    30.00 Ry     beta= 0.70
     Davidson diagonalization with overlap

---- Real-time Memory Report at c_bands before calling an iterative solver
           163 MiB given to the printing process from OS
             0 MiB allocation reported by mallinfo(arena+hblkhd)
        164925 MiB available memory on the node where the printing process lives
------------------
     ethr =  6.97E-06,  avg # of iterations =  1.0

     negative rho (up, down):  8.283E-02 0.000E+00

     total cpu time spent up to now is       11.4 secs

     total energy              =   -1226.59866119 Ry
     estimated scf accuracy    <       0.01661337 Ry

     iteration # 89     ecut=    30.00 Ry     beta= 0.70
     Davidson diagonalization with overlap

---- Real-time Memory Report at c_bands before calling an iterative solver
           163 MiB given to the printing process from OS
             0 MiB allocation reported by mallinfo(arena+hblkhd)
        164925 MiB available memory on the node where the printing process lives
------------------
     ethr =  6.97E-06,  avg # of iterations =  1.0

     negative rho (up, down):  8.278E-02 0.000E+00

     total cpu time spent up to now is       11.5 secs

     total energy              =   -1226.60053291 Ry
     estimated scf accuracy    <       0.01540080 Ry

     iteration # 90     ecut=    30.00 Ry     beta= 0.70
     Davidson diagonalization with overlap

---- Real-time Memory Report at c_bands before calling an iterative solver
           163 MiB given to the printing process from OS
             0 MiB allocation reported by mallinfo(arena+hblkhd)
        164925 MiB available memory on the node where the printing process lives
------------------
     ethr =  6.97E-06,  avg # of iterations =  3.0

     negative rho (up, down):  8.278E-02 0.000E+00

     total cpu time spent up to now is       11.6 secs

     total energy              =   -1226.60090806 Ry
     estimated scf accuracy    <       0.06785933 Ry

     iteration # 91     ecut=    30.00 Ry     beta= 0.70
     Davidson diagonalization with overlap

---- Real-time Memory Report at c_bands before calling an iterative solver
           163 MiB given to the printing process from OS
             0 MiB allocation reported by mallinfo(arena+hblkhd)
        164925 MiB available memory on the node where the printing process lives
------------------
     ethr =  6.97E-06,  avg # of iterations =  2.0

     negative rho (up, down):  8.276E-02 0.000E+00

     total cpu time spent up to now is       11.7 secs

     total energy              =   -1226.60048021 Ry
     estimated scf accuracy    <       0.02258851 Ry

     iteration # 92     ecut=    30.00 Ry     beta= 0.70
     Davidson diagonalization with overlap

---- Real-time Memory Report at c_bands before calling an iterative solver
           163 MiB given to the printing process from OS
             0 MiB allocation reported by mallinfo(arena+hblkhd)
        164925 MiB available memory on the node where the printing process lives
------------------
     ethr =  6.97E-06,  avg # of iterations =  1.0

     negative rho (up, down):  8.276E-02 0.000E+00

     total cpu time spent up to now is       11.8 secs

     total energy              =   -1226.59956132 Ry
     estimated scf accuracy    <       0.02595031 Ry

     iteration # 93     ecut=    30.00 Ry     beta= 0.70
     Davidson diagonalization with overlap

---- Real-time Memory Report at c_bands before calling an iterative solver
           163 MiB given to the printing process from OS
             0 MiB allocation reported by mallinfo(arena+hblkhd)
        164925 MiB available memory on the node where the printing process lives
------------------
     ethr =  6.97E-06,  avg # of iterations =  1.0

     negative rho (up, down):  8.275E-02 0.000E+00

     total cpu time spent up to now is       11.9 secs

     total energy              =   -1226.59907646 Ry
     estimated scf accuracy    <       0.02300399 Ry

     iteration # 94     ecut=    30.00 Ry     beta= 0.70
     Davidson diagonalization with overlap

---- Real-time Memory Report at c_bands before calling an iterative solver
           163 MiB given to the printing process from OS
             0 MiB allocation reported by mallinfo(arena+hblkhd)
        164925 MiB available memory on the node where the printing process lives
------------------
     ethr =  6.97E-06,  avg # of iterations =  1.0

     negative rho (up, down):  8.273E-02 0.000E+00

     total cpu time spent up to now is       12.0 secs

     total energy              =   -1226.60003245 Ry
     estimated scf accuracy    <       0.02003381 Ry

     iteration # 95     ecut=    30.00 Ry     beta= 0.70
     Davidson diagonalization with overlap

---- Real-time Memory Report at c_bands before calling an iterative solver
           163 MiB given to the printing process from OS
             0 MiB allocation reported by mallinfo(arena+hblkhd)
        164925 MiB available memory on the node where the printing process lives
------------------
     ethr =  6.97E-06,  avg # of iterations =  1.0

     negative rho (up, down):  8.274E-02 0.000E+00

     total cpu time spent up to now is       12.2 secs

     total energy              =   -1226.60241145 Ry
     estimated scf accuracy    <       0.00510819 Ry

     iteration # 96     ecut=    30.00 Ry     beta= 0.70
     Davidson diagonalization with overlap

---- Real-time Memory Report at c_bands before calling an iterative solver
           163 MiB given to the printing process from OS
             0 MiB allocation reported by mallinfo(arena+hblkhd)
        164925 MiB available memory on the node where the printing process lives
------------------
     ethr =  5.38E-06,  avg # of iterations =  2.0

     negative rho (up, down):  8.275E-02 0.000E+00

     total cpu time spent up to now is       12.3 secs

     total energy              =   -1226.60490946 Ry
     estimated scf accuracy    <       0.05191492 Ry

     iteration # 97     ecut=    30.00 Ry     beta= 0.70
     Davidson diagonalization with overlap

---- Real-time Memory Report at c_bands before calling an iterative solver
           163 MiB given to the printing process from OS
             0 MiB allocation reported by mallinfo(arena+hblkhd)
        164925 MiB available memory on the node where the printing process lives
------------------
     ethr =  5.38E-06,  avg # of iterations =  2.0

     negative rho (up, down):  8.275E-02 0.000E+00

     total cpu time spent up to now is       12.4 secs

     total energy              =   -1226.59757561 Ry
     estimated scf accuracy    <       0.05999830 Ry

     iteration # 98     ecut=    30.00 Ry     beta= 0.70
     Davidson diagonalization with overlap

---- Real-time Memory Report at c_bands before calling an iterative solver
           163 MiB given to the printing process from OS
             0 MiB allocation reported by mallinfo(arena+hblkhd)
        164925 MiB available memory on the node where the printing process lives
------------------
     ethr =  5.38E-06,  avg # of iterations =  2.0

     negative rho (up, down):  8.275E-02 0.000E+00

     total cpu time spent up to now is       12.5 secs

     total energy              =   -1226.59366653 Ry
     estimated scf accuracy    <       0.06028321 Ry

     iteration # 99     ecut=    30.00 Ry     beta= 0.70
     Davidson diagonalization with overlap

---- Real-time Memory Report at c_bands before calling an iterative solver
           164 MiB given to the printing process from OS
             0 MiB allocation reported by mallinfo(arena+hblkhd)
        164925 MiB available memory on the node where the printing process lives
------------------
     ethr =  5.38E-06,  avg # of iterations =  1.0

     negative rho (up, down):  8.275E-02 0.000E+00

     total cpu time spent up to now is       12.6 secs

     total energy              =   -1226.59254514 Ry
     estimated scf accuracy    <       0.05835649 Ry

     iteration #100     ecut=    30.00 Ry     beta= 0.70
     Davidson diagonalization with overlap

---- Real-time Memory Report at c_bands before calling an iterative solver
           164 MiB given to the printing process from OS
             0 MiB allocation reported by mallinfo(arena+hblkhd)
        164925 MiB available memory on the node where the printing process lives
------------------
     ethr =  5.38E-06,  avg # of iterations =  1.0

     negative rho (up, down):  8.275E-02 0.000E+00

     total cpu time spent up to now is       12.7 secs

     total energy              =   -1226.59163959 Ry
     estimated scf accuracy    <       0.04942417 Ry

     End of self-consistent calculation

     convergence NOT achieved after 100 iterations: stopping

     Writing config to output data dir calculations/myprefix.save/
     Message from routine punch:
     wavefunctions written to file
 
     init_run     :      0.83s CPU      0.87s WALL (       1 calls)
     electrons    :     11.19s CPU     11.43s WALL (       1 calls)

     Called by init_run:
     wfcinit      :      0.02s CPU      0.03s WALL (       1 calls)
     wfcinit:atom :      0.00s CPU      0.00s WALL (       1 calls)
     wfcinit:wfcr :      0.02s CPU      0.03s WALL (       1 calls)
     potinit      :      0.27s CPU      0.28s WALL (       1 calls)
     hinit0       :      0.52s CPU      0.53s WALL (       1 calls)

     Called by electrons:
     c_bands      :      2.18s CPU      2.28s WALL (     100 calls)
     sum_band     :      1.18s CPU      1.23s WALL (     100 calls)
     v_of_rho     :      0.22s CPU      0.25s WALL (     101 calls)
     v_h          :      0.02s CPU      0.02s WALL (     101 calls)
     v_xc         :      0.20s CPU      0.23s WALL (     101 calls)
     newd         :      1.02s CPU      1.02s WALL (     101 calls)
     PAW_pot      :      6.50s CPU      6.53s WALL (     101 calls)
     mix_rho      :      0.10s CPU      0.10s WALL (     100 calls)

     Called by c_bands:
     init_us_2    :      0.01s CPU      0.02s WALL (     201 calls)
     init_us_2:cp :      0.01s CPU      0.02s WALL (     201 calls)
     regterg      :      2.14s CPU      2.22s WALL (     100 calls)

     Called by sum_band:
     sum_band:wei :      0.01s CPU      0.01s WALL (     100 calls)
     sum_band:loo :      0.18s CPU      0.22s WALL (     100 calls)
     sum_band:buf :      0.00s CPU      0.00s WALL (     100 calls)
     sum_band:ini :      0.01s CPU      0.01s WALL (     100 calls)
     sum_band:cal :      0.03s CPU      0.03s WALL (     100 calls)
     sum_band:bec :      0.00s CPU      0.00s WALL (     100 calls)
     addusdens    :      0.95s CPU      0.96s WALL (     100 calls)
     addusd:skk   :      0.01s CPU      0.01s WALL (     400 calls)
     addusd:dgemm :      0.23s CPU      0.23s WALL (     400 calls)
     addusd:qvan2 :      0.68s CPU      0.69s WALL (     400 calls)

     Called by *egterg:
     rdiaghg      :      1.19s CPU      1.20s WALL (     263 calls)
     regterg:over :      0.12s CPU      0.12s WALL (     163 calls)
     regterg:upda :      0.04s CPU      0.05s WALL (     163 calls)
     regterg:last :      0.07s CPU      0.07s WALL (     138 calls)
     rdiaghg:chol :      0.06s CPU      0.06s WALL (     263 calls)
     rdiaghg:inve :      0.01s CPU      0.01s WALL (     263 calls)
     rdiaghg:para :      0.08s CPU      0.08s WALL (     526 calls)
     h_psi        :      0.65s CPU      0.72s WALL (     264 calls)
     s_psi        :      0.01s CPU      0.01s WALL (     264 calls)
     g_psi        :      0.00s CPU      0.00s WALL (     163 calls)

     Called by h_psi:
     h_psi:calbec :      0.07s CPU      0.07s WALL (     264 calls)
     vloc_psi     :      0.57s CPU      0.63s WALL (     264 calls)
     add_vuspsi   :      0.01s CPU      0.01s WALL (     264 calls)

     General routines
     calbec       :      0.10s CPU      0.10s WALL (     364 calls)
     fft          :      0.51s CPU      0.52s WALL (    1111 calls)
     ffts         :      0.17s CPU      0.17s WALL (     201 calls)
     fftw         :      0.65s CPU      0.73s WALL (   15066 calls)
     interpolate  :      0.18s CPU      0.18s WALL (     101 calls)
     davcio       :      0.00s CPU      0.00s WALL (      19 calls)
 
     Parallel routines

     PAW routines
     PAW_pot      :      6.50s CPU      6.53s WALL (     101 calls)
 
     PWSCF        :     12.39s CPU     12.96s WALL

 
   This run was terminated on:  14:19:18   6Mar2023            

=------------------------------------------------------------------------------=
   JOB DONE.
=------------------------------------------------------------------------------=
