
     Program PWSCF v.7.0 starts on  4Mar2023 at 22:52:14 

     This program is part of the open-source Quantum ESPRESSO suite
     for quantum simulation of materials; please cite
         "P. Giannozzi et al., J. Phys.:Condens. Matter 21 395502 (2009);
         "P. Giannozzi et al., J. Phys.:Condens. Matter 29 465901 (2017);
         "P. Giannozzi et al., J. Chem. Phys. 152 154105 (2020);
          URL http://www.quantum-espresso.org", 
     in publications or presentations arising from this work. More details at
     http://www.quantum-espresso.org/quote

     Parallel version (MPI & OpenMP), running on      32 processor cores
     Number of MPI processes:                32
     Threads/MPI process:                     1

     MPI processes distributed on     1 nodes
     R & G space division:  proc/nbgrp/npool/nimage =      32
     167099 MiB available memory on the printing compute node when the environment starts
 
     Reading input from espresso_7984.pwi
Warning: card &CELL ignored
Warning: card / ignored

     Current dimensions of program PWSCF are:
     Max number of different atomic species (ntypx) = 10
     Max number of k-points (npk) =  40000
     Max angular momentum in pseudopotentials (lmaxx) =  4
     file Cd.pbe-dn-rrkjus_psl.0.3.1.UPF: wavefunction(s)  4D renormalized
     file Ga.pbe-dn-kjpaw_psl.1.0.0.UPF: wavefunction(s)  4S renormalized

     gamma-point specific algorithms are used

     Subspace diagonalization in iterative solution of the eigenvalue problem:
     one sub-group per band group will be used
     scalapack distributed-memory algorithm (size of sub-group:  5*  5 procs)

 
     Parallelization info
     --------------------
     sticks:   dense  smooth     PW     G-vecs:    dense   smooth      PW
     Min          88      43      9                 2188      769      93
     Max          90      46     12                 2191      774     100
     Sum        2825    1413    349                70061    24699    3073
 
     Using Slab Decomposition
 


     bravais-lattice index     =            0
     lattice parameter (alat)  =      12.3652  a.u.
     unit-cell volume          =    1115.1811 (a.u.)^3
     number of atoms/cell      =            7
     number of atomic types    =            3
     number of electrons       =        62.00
     number of Kohn-Sham states=           37
     kinetic-energy cutoff     =      30.0000  Ry
     charge density cutoff     =     240.0000  Ry
     scf convergence threshold =      1.0E-06
     mixing beta               =       0.7000
     number of iterations used =            8  plain     mixing
     Exchange-correlation=  SLA  PW   PBX  PBC
                           (   1   4   3   4   0   0   0)

     celldm(1)=  12.365161  celldm(2)=   0.000000  celldm(3)=   0.000000
     celldm(4)=   0.000000  celldm(5)=   0.000000  celldm(6)=   0.000000

     crystal axes: (cart. coord. in units of alat)
               a(1) = (   1.000000   0.000000   0.000000 )  
               a(2) = (   0.255529   0.966801   0.000000 )  
               a(3) = (  -0.627765  -0.483401   0.610111 )  

     reciprocal axes: (cart. coord. in units 2 pi/alat)
               b(1) = (  1.000000 -0.264304  0.819523 )  
               b(2) = (  0.000000  1.034339  0.819523 )  
               b(3) = (  0.000000  0.000000  1.639046 )  


     PseudoPot. # 1 for Cd read from file:
     /home/pragov/projects/rrg-bengioy-ad/pragov/crystal_structure_design/SSSP/Cd.pbe-dn-rrkjus_psl.0.3.1.UPF
     MD5 check sum: 558e9f355611b531a870a69ef6ace9e2
     Pseudo is Ultrasoft + core correction, Zval = 12.0
     Generated using "atomic" code by A. Dal Corso  v.5.0.99 svn rev. 10869
     Using radial grid of 1239 points,  6 beta functions with: 
                l(1) =   0
                l(2) =   0
                l(3) =   1
                l(4) =   1
                l(5) =   2
                l(6) =   2
     Q(r) pseudized with 0 coefficients 


     PseudoPot. # 2 for Ga read from file:
     /home/pragov/projects/rrg-bengioy-ad/pragov/crystal_structure_design/SSSP/Ga.pbe-dn-kjpaw_psl.1.0.0.UPF
     MD5 check sum: a27b4342b1af7e5f338de752e9ed7044
     Pseudo is Projector augmented-wave + core cor, Zval = 13.0
     Generated using "atomic" code by A. Dal Corso  v.5.1
     Shape of augmentation charge: PSQ
     Using radial grid of 1205 points,  6 beta functions with: 
                l(1) =   0
                l(2) =   0
                l(3) =   1
                l(4) =   1
                l(5) =   2
                l(6) =   2
     Q(r) pseudized with 0 coefficients 


     PseudoPot. # 3 for S  read from file:
     /home/pragov/projects/rrg-bengioy-ad/pragov/crystal_structure_design/SSSP/s_pbe_v1.4.uspp.F.UPF
     MD5 check sum: 88d86576ff6df21479756cfb9bdac1df
     Pseudo is Ultrasoft + core correction, Zval =  6.0
     Generated by new atomic code, or converted to UPF format
     Using radial grid of  907 points,  6 beta functions with: 
                l(1) =   0
                l(2) =   0
                l(3) =   1
                l(4) =   1
                l(5) =   2
                l(6) =   2
     Q(r) pseudized with  8 coefficients,  rinner =    1.300   1.300   1.300
                                                       1.300   1.300

     atomic species   valence    mass     pseudopotential
        Cd            12.00   112.41400     Cd( 1.00)
        Ga            13.00    69.72300     Ga( 1.00)
        S              6.00    32.06000     S ( 1.00)

     No symmetry found


                                    s                        frac. trans.

      isym =  1     identity                                     

 cryst.   s( 1) = (     1          0          0      )
                  (     0          1          0      )
                  (     0          0          1      )

 cart.    s( 1) = (  1.0000000 -0.0000000 -0.0000000 )
                  (  0.0000000  1.0000000 -0.0000000 )
                  (  0.0000000  0.0000000  1.0000000 )


   Cartesian axes

     site n.     atom                  positions (alat units)
         1           Cd  tau(   1) = (   0.0000000   0.0000000   0.0000000  )
         2           Ga  tau(   2) = (   0.1277646   0.4834007   0.3050555  )
         3           Ga  tau(   3) = (   0.6277646   0.4834007   0.0000000  )
         4           S   tau(   4) = (   0.9691044   0.3915831   0.0035551  )
         5           S   tau(   5) = (   0.4556987   0.3553908   0.2810043  )
         6           S   tau(   6) = (  -0.1677277  -0.1336424   0.3291067  )
         7           S   tau(   7) = (  -0.0015468   0.3534708   0.6065558  )

   Crystallographic axes

     site n.     atom                  positions (cryst. coord.)
         1           Cd  tau(   1) = (  0.0000000  0.0000000  0.0000000  )
         2           Ga  tau(   2) = (  0.2500000  0.7500000  0.5000000  )
         3           Ga  tau(   3) = (  0.5000000  0.5000000  0.0000000  )
         4           S   tau(   4) = (  0.8685210  0.4079430  0.0058270  )
         5           S   tau(   5) = (  0.5920570  0.5978840  0.4605790  )
         6           S   tau(   6) = (  0.1373050  0.1314790  0.5394210  )
         7           S   tau(   7) = (  0.4021160  0.8626950  0.9941730  )

     number of k points=     1  Methfessel-Paxton smearing, width (Ry)=  0.0010
                       cart. coord. in units 2pi/alat
        k(    1) = (   0.0000000   0.0000000   0.0000000), wk =   2.0000000

                       cryst. coord.
        k(    1) = (   0.0000000   0.0000000   0.0000000), wk =   2.0000000

     Dense  grid:    35031 G-vectors     FFT dimensions: (  64,  64,  64)

     Smooth grid:    12350 G-vectors     FFT dimensions: (  45,  45,  45)

     Dynamical RAM for                 wfc:       0.03 MB

     Dynamical RAM for     wfc (w. buffer):       0.03 MB

     Dynamical RAM for           str. fact:       0.05 MB

     Dynamical RAM for           local pot:       0.00 MB

     Dynamical RAM for          nlocal pot:       0.09 MB

     Dynamical RAM for                qrad:       3.73 MB

     Dynamical RAM for          rho,v,vnew:       0.24 MB

     Dynamical RAM for               rhoin:       0.08 MB

     Dynamical RAM for            rho*nmix:       0.27 MB

     Dynamical RAM for           G-vectors:       0.07 MB

     Dynamical RAM for          h,s,v(r/c):       0.00 MB

     Dynamical RAM for          <psi|beta>:       0.04 MB

     Dynamical RAM for                 psi:       0.05 MB

     Dynamical RAM for                hpsi:       0.05 MB

     Dynamical RAM for                spsi:       0.05 MB

     Dynamical RAM for      wfcinit/wfcrot:       0.11 MB

     Dynamical RAM for           addusdens:       3.17 MB

     Dynamical RAM for          addusforce:       3.30 MB

     Dynamical RAM for         addusstress:       3.36 MB

     Estimated static dynamical RAM per process >       4.66 MB

     Estimated max dynamical RAM per process >       8.29 MB

     Estimated total dynamical RAM >     265.26 MB

     Check: negative core charge=   -0.000002

     Initial potential from superposition of free atoms

     starting charge      61.9891, renormalised to      62.0000
     Starting wfcs are   43 randomized atomic wfcs
     Checking if some PAW data can be deallocated... 
       PAW data deallocated on   22 nodes for type:  2

     total cpu time spent up to now is        1.0 secs

     Self-consistent Calculation

     iteration #  1     ecut=    30.00 Ry     beta= 0.70
     Davidson diagonalization with overlap

---- Real-time Memory Report at c_bands before calling an iterative solver
           138 MiB given to the printing process from OS
             0 MiB allocation reported by mallinfo(arena+hblkhd)
        166138 MiB available memory on the node where the printing process lives
------------------
     ethr =  1.00E-02,  avg # of iterations =  3.0

     Threshold (ethr) on eigenvalues was too large:
     Diagonalizing with lowered threshold

     Davidson diagonalization with overlap

---- Real-time Memory Report at c_bands before calling an iterative solver
           141 MiB given to the printing process from OS
             0 MiB allocation reported by mallinfo(arena+hblkhd)
        166115 MiB available memory on the node where the printing process lives
------------------
     ethr =  6.06E-04,  avg # of iterations =  3.0

     total cpu time spent up to now is        1.2 secs

     total energy              =    -774.49363239 Ry
     estimated scf accuracy    <       0.35339750 Ry

     iteration #  2     ecut=    30.00 Ry     beta= 0.70
     Davidson diagonalization with overlap

---- Real-time Memory Report at c_bands before calling an iterative solver
           143 MiB given to the printing process from OS
             0 MiB allocation reported by mallinfo(arena+hblkhd)
        166053 MiB available memory on the node where the printing process lives
------------------
     ethr =  5.70E-04,  avg # of iterations =  3.0

     total cpu time spent up to now is        1.3 secs

     total energy              =    -774.59786781 Ry
     estimated scf accuracy    <       0.13573695 Ry

     iteration #  3     ecut=    30.00 Ry     beta= 0.70
     Davidson diagonalization with overlap

---- Real-time Memory Report at c_bands before calling an iterative solver
           144 MiB given to the printing process from OS
             0 MiB allocation reported by mallinfo(arena+hblkhd)
        166045 MiB available memory on the node where the printing process lives
------------------
     ethr =  2.19E-04,  avg # of iterations =  2.0

     total cpu time spent up to now is        1.4 secs

     total energy              =    -774.62535281 Ry
     estimated scf accuracy    <       0.00299280 Ry

     iteration #  4     ecut=    30.00 Ry     beta= 0.70
     Davidson diagonalization with overlap

---- Real-time Memory Report at c_bands before calling an iterative solver
           145 MiB given to the printing process from OS
             0 MiB allocation reported by mallinfo(arena+hblkhd)
        166049 MiB available memory on the node where the printing process lives
------------------
     ethr =  4.83E-06,  avg # of iterations = 13.0

     total cpu time spent up to now is        1.6 secs

     total energy              =    -774.62688269 Ry
     estimated scf accuracy    <       0.00080987 Ry

     iteration #  5     ecut=    30.00 Ry     beta= 0.70
     Davidson diagonalization with overlap

---- Real-time Memory Report at c_bands before calling an iterative solver
           145 MiB given to the printing process from OS
             0 MiB allocation reported by mallinfo(arena+hblkhd)
        166049 MiB available memory on the node where the printing process lives
------------------
     ethr =  1.31E-06,  avg # of iterations =  2.0

     total cpu time spent up to now is        1.7 secs

     total energy              =    -774.62701796 Ry
     estimated scf accuracy    <       0.00016397 Ry

     iteration #  6     ecut=    30.00 Ry     beta= 0.70
     Davidson diagonalization with overlap

---- Real-time Memory Report at c_bands before calling an iterative solver
           146 MiB given to the printing process from OS
             0 MiB allocation reported by mallinfo(arena+hblkhd)
        166049 MiB available memory on the node where the printing process lives
------------------
     ethr =  2.64E-07,  avg # of iterations =  2.0

     total cpu time spent up to now is        1.8 secs

     total energy              =    -774.62707019 Ry
     estimated scf accuracy    <       0.00002616 Ry

     iteration #  7     ecut=    30.00 Ry     beta= 0.70
     Davidson diagonalization with overlap

---- Real-time Memory Report at c_bands before calling an iterative solver
           146 MiB given to the printing process from OS
             0 MiB allocation reported by mallinfo(arena+hblkhd)
        166049 MiB available memory on the node where the printing process lives
------------------
     ethr =  4.22E-08,  avg # of iterations =  4.0

     total cpu time spent up to now is        1.9 secs

     total energy              =    -774.62707839 Ry
     estimated scf accuracy    <       0.00000431 Ry

     iteration #  8     ecut=    30.00 Ry     beta= 0.70
     Davidson diagonalization with overlap

---- Real-time Memory Report at c_bands before calling an iterative solver
           146 MiB given to the printing process from OS
             0 MiB allocation reported by mallinfo(arena+hblkhd)
        166049 MiB available memory on the node where the printing process lives
------------------
     ethr =  6.95E-09,  avg # of iterations =  4.0

     total cpu time spent up to now is        2.1 secs

     End of self-consistent calculation

          k = 0.0000 0.0000 0.0000 (  1537 PWs)   bands (ev):

    -9.9136  -9.9136  -9.8978  -9.7366  -9.7291  -9.6957  -9.6602  -9.6601
    -9.5567  -9.5481  -8.3053  -6.5663  -6.5662  -6.4662  -2.6521  -2.5530
    -2.5139  -2.5139  -2.4975  -1.8073   0.1464   1.3993   1.3993   1.5429
     2.1755   2.4809   3.1369   3.1369   4.6503   4.6503   4.6524   6.5188
     8.2505   8.4854   9.8591  10.4002  10.4003

     occupation numbers 
     1.0000   1.0000   1.0000   1.0000   1.0000   1.0000   1.0000   1.0000
     1.0000   1.0000   1.0000   1.0000   1.0000   1.0000   1.0000   1.0000
     1.0000   1.0000   1.0000   1.0000   1.0000   1.0000   1.0000   1.0000
     1.0000   1.0000   1.0000   1.0000   1.0000   1.0000   1.0000  -0.0000
    -0.0000  -0.0000  -0.0000  -0.0000  -0.0000

     the Fermi energy is     5.3898 ev

!    total energy              =    -774.62707974 Ry
     estimated scf accuracy    <       0.00000037 Ry
     smearing contrib. (-TS)   =       0.00000000 Ry
     internal energy E=F+TS    =    -774.62707974 Ry

     The total energy is F=E-TS. E is the sum of the following terms:
     one-electron contribution =    -320.54604968 Ry
     hartree contribution      =     206.54395771 Ry
     xc contribution           =    -152.95564611 Ry
     ewald contribution        =    -285.75411495 Ry
     one-center paw contrib.   =    -221.91522671 Ry
      -> PAW hartree energy AE =       0.00000000 Ry
      -> PAW hartree energy PS =       0.00000000 Ry
      -> PAW xc energy AE      =       0.00000000 Ry
      -> PAW xc energy PS      =       0.00000000 Ry
      -> total E_H with PAW    =     206.54395771 Ry
      -> total E_XC with PAW   =    -152.95564611 Ry

     convergence has been achieved in   8 iterations

     Forces acting on atoms (cartesian axes, Ry/au):

     atom    1 type  1   force =     0.00014422   -0.00006616   -0.00007192
     atom    2 type  2   force =     0.00001586    0.00006005    0.00009985
     atom    3 type  2   force =    -0.00036713    0.00006652    0.00000636
     atom    4 type  3   force =     0.03634204   -0.00738289   -0.02775053
     atom    5 type  3   force =    -0.00222833   -0.03678457    0.02796144
     atom    6 type  3   force =    -0.03610365    0.00717058   -0.02797422
     atom    7 type  3   force =     0.00219699    0.03693648    0.02772901
     The non-local contrib.  to forces
     atom    1 type  1   force =     0.00010006   -0.00000181   -0.00002968
     atom    2 type  2   force =     0.00001822    0.00001995    0.00001912
     atom    3 type  2   force =    -0.00004078   -0.00006173    0.00002836
     atom    4 type  3   force =    -0.20929149   -0.11918899    0.29644478
     atom    5 type  3   force =     0.00804221    0.38047865   -0.03329770
     atom    6 type  3   force =     0.36979365   -0.08935233    0.03318652
     atom    7 type  3   force =    -0.16870806   -0.17182804   -0.29650995
     The ionic contribution  to forces
     atom    1 type  1   force =     0.00001568    0.00000127   -0.00001714
     atom    2 type  2   force =    -0.00000893    0.00004013   -0.00002261
     atom    3 type  2   force =    -0.00003670    0.00001441    0.00002634
     atom    4 type  3   force =     2.60738329    0.22303931   -4.99766820
     atom    5 type  3   force =     1.30453088   -5.30316632    1.41403709
     atom    6 type  3   force =    -4.79377680    2.61628734   -1.41405266
     atom    7 type  3   force =     0.88189259    2.46378385    4.99769718
     The local contribution  to forces
     atom    1 type  1   force =    -0.00007236   -0.00008899    0.00007838
     atom    2 type  2   force =    -0.00005001    0.00003224   -0.00002683
     atom    3 type  2   force =     0.00012251    0.00009090   -0.00017365
     atom    4 type  3   force =    -2.37336390   -0.11778633    4.68998511
     atom    5 type  3   force =    -1.31446303    4.90712540   -1.35450668
     atom    6 type  3   force =     4.40838255   -2.52478620    1.35469774
     atom    7 type  3   force =    -0.72038640   -2.26458861   -4.68997337
     The core correction contribution to forces
     atom    1 type  1   force =     0.00000116   -0.00000317   -0.00000303
     atom    2 type  2   force =     0.00000228   -0.00000321    0.00000042
     atom    3 type  2   force =     0.00000163    0.00000133    0.00000217
     atom    4 type  3   force =     0.01151663    0.00689917   -0.01623385
     atom    5 type  3   force =    -0.00065385   -0.02100098    0.00156341
     atom    6 type  3   force =    -0.02046445    0.00472817   -0.00155580
     atom    7 type  3   force =     0.00961157    0.00936737    0.01623823
     The Hubbard contrib.    to forces
     atom    1 type  1   force =     0.00000000    0.00000000    0.00000000
     atom    2 type  2   force =     0.00000000    0.00000000    0.00000000
     atom    3 type  2   force =     0.00000000    0.00000000    0.00000000
     atom    4 type  3   force =     0.00000000    0.00000000    0.00000000
     atom    5 type  3   force =     0.00000000    0.00000000    0.00000000
     atom    6 type  3   force =     0.00000000    0.00000000    0.00000000
     atom    7 type  3   force =     0.00000000    0.00000000    0.00000000
     The SCF correction term to forces
     atom    1 type  1   force =     0.00005488    0.00004489   -0.00009415
     atom    2 type  2   force =     0.00000951   -0.00001070    0.00013605
     atom    3 type  2   force =    -0.00045859    0.00003996    0.00012943
     atom    4 type  3   force =     0.00005270   -0.00032771   -0.00027207
     atom    5 type  3   force =     0.00027067   -0.00020296    0.00017163
     atom    6 type  3   force =    -0.00008340    0.00031195   -0.00024371
     atom    7 type  3   force =    -0.00025751    0.00022026    0.00028322

     Total force =     0.092525     Total SCF correction =     0.000974


     Computing stress (Cartesian axis) and pressure

          total   stress  (Ry/bohr**3)                   (kbar)     P=      -23.81
  -0.00038386  -0.00036456  -0.00000006          -56.47      -53.63       -0.01
  -0.00036456  -0.00019123  -0.00000001          -53.63      -28.13       -0.00
  -0.00000006  -0.00000001   0.00008950           -0.01       -0.00       13.17

     kinetic stress (kbar)   8822.68    -51.57     -0.00
                              -51.57   8849.95     -0.01
                               -0.00     -0.01   8889.64

     local   stress (kbar)  -3554.46     65.31     -0.07
                               65.31  -3589.04     -0.00
                               -0.07     -0.00  -3639.33

     nonloc. stress (kbar)   2044.60     -3.79      0.01
                               -3.79   2046.59      0.01
                                0.01      0.01   2049.52

     hartree stress (kbar)   9100.61     30.90      0.05
                               30.90   9084.36      0.01
                                0.05      0.01   9060.54

     exc-cor stress (kbar)   5432.51     -0.83      0.00
                               -0.83   5432.95     -0.00
                                0.00     -0.00   5433.59

     corecor stress (kbar)  -9280.15      0.79     -0.00
                                0.79  -9280.57     -0.00
                               -0.00     -0.00  -9281.18

     ewald   stress (kbar) -12622.25    -94.45      0.01
                              -94.45 -12572.36     -0.01
                                0.01     -0.01 -12499.61

     hubbard stress (kbar)      0.00      0.00      0.00
                                0.00      0.00      0.00
                                0.00      0.00      0.00

     DFT-D   stress (kbar)      0.00      0.00      0.00
                                0.00      0.00      0.00
                                0.00      0.00      0.00

     XDM     stress (kbar)      0.00      0.00      0.00
                                0.00      0.00      0.00
                                0.00      0.00      0.00

     dft-nl  stress (kbar)      0.00      0.00      0.00
                                0.00      0.00      0.00
                                0.00      0.00      0.00

     TS-vdW  stress (kbar)      0.00      0.00      0.00
                                0.00      0.00      0.00
                                0.00      0.00      0.00


                                0.00      0.00      0.00
                                0.00      0.00      0.00


                                0.00      0.00      0.00


     Writing all to output data dir calculations/myprefix.save/
 
     init_run     :      0.64s CPU      0.68s WALL (       1 calls)
     electrons    :      1.00s CPU      1.05s WALL (       1 calls)
     forces       :      0.09s CPU      0.09s WALL (       1 calls)
     stress       :      0.21s CPU      0.22s WALL (       1 calls)

     Called by init_run:
     wfcinit      :      0.02s CPU      0.03s WALL (       1 calls)
     wfcinit:atom :      0.00s CPU      0.00s WALL (       1 calls)
     wfcinit:wfcr :      0.02s CPU      0.03s WALL (       1 calls)
     potinit      :      0.22s CPU      0.22s WALL (       1 calls)
     hinit0       :      0.39s CPU      0.40s WALL (       1 calls)

     Called by electrons:
     c_bands      :      0.27s CPU      0.29s WALL (       9 calls)
     sum_band     :      0.13s CPU      0.14s WALL (       9 calls)
     v_of_rho     :      0.03s CPU      0.04s WALL (       9 calls)
     v_h          :      0.00s CPU      0.00s WALL (       9 calls)
     v_xc         :      0.04s CPU      0.04s WALL (      11 calls)
     newd         :      0.09s CPU      0.10s WALL (       9 calls)
     PAW_pot      :      0.54s CPU      0.54s WALL (       9 calls)
     mix_rho      :      0.01s CPU      0.01s WALL (       9 calls)

     Called by c_bands:
     init_us_2    :      0.00s CPU      0.00s WALL (      19 calls)
     init_us_2:cp :      0.00s CPU      0.00s WALL (      19 calls)
     regterg      :      0.27s CPU      0.28s WALL (       9 calls)

     Called by sum_band:
     sum_band:wei :      0.00s CPU      0.00s WALL (       9 calls)
     sum_band:loo :      0.02s CPU      0.02s WALL (       9 calls)
     sum_band:buf :      0.00s CPU      0.00s WALL (       9 calls)
     sum_band:ini :      0.00s CPU      0.00s WALL (       9 calls)
     sum_band:cal :      0.00s CPU      0.00s WALL (       9 calls)
     sum_band:bec :      0.00s CPU      0.00s WALL (       9 calls)
     addusdens    :      0.11s CPU      0.11s WALL (       9 calls)
     addusd:skk   :      0.00s CPU      0.00s WALL (      27 calls)
     addusd:dgemm :      0.03s CPU      0.03s WALL (      27 calls)
     addusd:qvan2 :      0.07s CPU      0.07s WALL (      27 calls)

     Called by *egterg:
     rdiaghg      :      0.14s CPU      0.15s WALL (      44 calls)
     regterg:over :      0.02s CPU      0.02s WALL (      36 calls)
     regterg:upda :      0.01s CPU      0.01s WALL (      36 calls)
     regterg:last :      0.01s CPU      0.01s WALL (      20 calls)
     rdiaghg:chol :      0.01s CPU      0.01s WALL (      44 calls)
     rdiaghg:inve :      0.00s CPU      0.00s WALL (      44 calls)
     rdiaghg:para :      0.01s CPU      0.01s WALL (      88 calls)
     h_psi        :      0.10s CPU      0.12s WALL (      46 calls)
     s_psi        :      0.00s CPU      0.00s WALL (      46 calls)
     g_psi        :      0.00s CPU      0.00s WALL (      36 calls)

     Called by h_psi:
     h_psi:calbec :      0.01s CPU      0.01s WALL (      46 calls)
     vloc_psi     :      0.09s CPU      0.10s WALL (      46 calls)
     add_vuspsi   :      0.00s CPU      0.00s WALL (      46 calls)

     General routines
     calbec       :      0.01s CPU      0.01s WALL (      60 calls)
     fft          :      0.29s CPU      0.30s WALL (     118 calls)
     ffts         :      0.11s CPU      0.11s WALL (      18 calls)
     fftw         :      0.10s CPU      0.11s WALL (    1149 calls)
     interpolate  :      0.11s CPU      0.11s WALL (       9 calls)
 
     Parallel routines

     PAW routines
     PAW_pot      :      0.54s CPU      0.54s WALL (       9 calls)
 
     PWSCF        :      2.25s CPU      2.68s WALL

 
   This run was terminated on:  22:52:17   4Mar2023            

=------------------------------------------------------------------------------=
   JOB DONE.
=------------------------------------------------------------------------------=
