
     Program PWSCF v.7.0 starts on  3Mar2023 at 16:35: 5 

     This program is part of the open-source Quantum ESPRESSO suite
     for quantum simulation of materials; please cite
         "P. Giannozzi et al., J. Phys.:Condens. Matter 21 395502 (2009);
         "P. Giannozzi et al., J. Phys.:Condens. Matter 29 465901 (2017);
         "P. Giannozzi et al., J. Chem. Phys. 152 154105 (2020);
          URL http://www.quantum-espresso.org", 
     in publications or presentations arising from this work. More details at
     http://www.quantum-espresso.org/quote

     Parallel version (MPI & OpenMP), running on      32 processor cores
     Number of MPI processes:                32
     Threads/MPI process:                     1

     MPI processes distributed on     1 nodes
     R & G space division:  proc/nbgrp/npool/nimage =      32
     174126 MiB available memory on the printing compute node when the environment starts
 
     Reading input from espresso_946.pwi
Warning: card &CELL ignored
Warning: card / ignored

     Current dimensions of program PWSCF are:
     Max number of different atomic species (ntypx) = 10
     Max number of k-points (npk) =  40000
     Max angular momentum in pseudopotentials (lmaxx) =  4

     gamma-point specific algorithms are used
     Message from routine setup:
     using ibrav=0 with symmetry is DISCOURAGED, use correct ibrav instead

     Subspace diagonalization in iterative solution of the eigenvalue problem:
     one sub-group per band group will be used
     scalapack distributed-memory algorithm (size of sub-group:  5*  5 procs)

 
     Parallelization info
     --------------------
     sticks:   dense  smooth     PW     G-vecs:    dense   smooth      PW
     Min          74      37      8                 2116      747      90
     Max          77      40     10                 2126      756     100
     Sum        2429    1219    307                67977    24047    3047
 
     Using Slab Decomposition
 


     bravais-lattice index     =            0
     lattice parameter (alat)  =      14.3711  a.u.
     unit-cell volume          =    1084.2071 (a.u.)^3
     number of atoms/cell      =           11
     number of atomic types    =            3
     number of electrons       =       117.00
     number of Kohn-Sham states=           71
     kinetic-energy cutoff     =      30.0000  Ry
     charge density cutoff     =     240.0000  Ry
     scf convergence threshold =      1.0E-06
     mixing beta               =       0.7000
     number of iterations used =            8  plain     mixing
     Exchange-correlation= PBE
                           (   1   4   3   4   0   0   0)

     celldm(1)=  14.371093  celldm(2)=   0.000000  celldm(3)=   0.000000
     celldm(4)=   0.000000  celldm(5)=   0.000000  celldm(6)=   0.000000

     crystal axes: (cart. coord. in units of alat)
               a(1) = (   1.000000   0.000000   0.000000 )  
               a(2) = (   0.555293   0.618089   0.000000 )  
               a(3) = (   0.444707  -0.180962   0.591005 )  

     reciprocal axes: (cart. coord. in units 2 pi/alat)
               b(1) = (  1.000000 -0.898403 -1.027543 )  
               b(2) = (  0.000000  1.617889  0.495387 )  
               b(3) = (  0.000000  0.000000  1.692032 )  


     PseudoPot. # 1 for Sr read from file:
     /home/pragov/projects/rrg-bengioy-ad/pragov/crystal_structure_design/SSSP/Sr_pbe_v1.uspp.F.UPF
     MD5 check sum: 6b418c05fbe9db5448babca5e47b7a5b
     Pseudo is Ultrasoft + core correction, Zval = 10.0
     Generated by new atomic code, or converted to UPF format
     Using radial grid of  883 points,  6 beta functions with: 
                l(1) =   0
                l(2) =   0
                l(3) =   1
                l(4) =   1
                l(5) =   2
                l(6) =   2
     Q(r) pseudized with  6 coefficients,  rinner =    1.400   1.400   1.400
                                                       1.400   1.400

     PseudoPot. # 2 for B  read from file:
     /home/pragov/projects/rrg-bengioy-ad/pragov/crystal_structure_design/SSSP/b_pbe_v1.4.uspp.F.UPF
     MD5 check sum: cc6de2960df11db49a60e589f9ebb39b
     Pseudo is Ultrasoft + core correction, Zval =  3.0
     Generated by new atomic code, or converted to UPF format
     Using radial grid of  781 points,  4 beta functions with: 
                l(1) =   0
                l(2) =   0
                l(3) =   1
                l(4) =   1
     Q(r) pseudized with  8 coefficients,  rinner =    1.100   1.100   1.100


     PseudoPot. # 3 for Rh read from file:
     /home/pragov/projects/rrg-bengioy-ad/pragov/crystal_structure_design/SSSP/Rh_ONCV_PBE-1.0.oncvpsp.upf
     MD5 check sum: ba07c69523b14cacd10683cd4c4284c1
     Pseudo is Norm-conserving, Zval = 17.0
     Generated using ONCVPSP code by D. R. Hamann
     Using radial grid of 1442 points,  6 beta functions with: 
                l(1) =   0
                l(2) =   0
                l(3) =   1
                l(4) =   1
                l(5) =   2
                l(6) =   2

     atomic species   valence    mass     pseudopotential
        Sr            10.00    87.62000     Sr( 1.00)
        B              3.00    10.81000     B ( 1.00)
        Rh            17.00   102.90550     Rh( 1.00)

      2 Sym. Ops., with inversion, found


                                    s                        frac. trans.

      isym =  1     identity                                     

 cryst.   s( 1) = (     1          0          0      )
                  (     0          1          0      )
                  (     0          0          1      )

 cart.    s( 1) = (  1.0000000  0.0000000  0.0000000 )
                  (  0.0000000  1.0000000  0.0000000 )
                  (  0.0000000  0.0000000  1.0000000 )


      isym =  2     inversion                                    

 cryst.   s( 2) = (    -1          0          0      )
                  (     0         -1          0      )
                  (     0          0         -1      )

 cart.    s( 2) = ( -1.0000000 -0.0000000 -0.0000000 )
                  (  0.0000000 -1.0000000 -0.0000000 )
                  (  0.0000000  0.0000000 -1.0000000 )


   Cartesian axes

     site n.     atom                  positions (alat units)
         1           Sr  tau(   1) = (   1.3949269   0.5027081   0.0853400  )
         2           Sr  tau(   2) = (   0.6050731  -0.0655805   0.5056654  )
         3           B   tau(   3) = (   1.2890615   0.1890221   0.3173528  )
         4           B   tau(   4) = (   0.7109385   0.2481055   0.2736527  )
         5           B   tau(   5) = (   1.0045524  -0.0156781   0.4687560  )
         6           B   tau(   6) = (   0.9954476   0.4528057   0.1222495  )
         7           Rh  tau(   7) = (   1.0000000   0.2185638   0.2955027  )
         8           Rh  tau(   8) = (   0.7776467   0.3090447   0.0000000  )
         9           Rh  tau(   9) = (   0.2223533  -0.0904809   0.2955027  )
        10           Rh  tau(  10) = (   1.5000000   0.3278457   0.4432541  )
        11           Rh  tau(  11) = (   0.5000000   0.1092819   0.1477514  )

   Crystallographic axes

     site n.     atom                  positions (cryst. coord.)
         1           Sr  tau(   1) = (  0.8556020  0.8556020  0.1443980  )
         2           Sr  tau(   2) = (  0.1443980  0.1443980  0.8556020  )
         3           B   tau(   3) = (  0.7931500  0.4630290  0.5369710  )
         4           B   tau(   4) = (  0.2068500  0.5369710  0.4630290  )
         5           B   tau(   5) = (  0.5369710  0.2068500  0.7931500  )
         6           B   tau(   6) = (  0.4630290  0.7931500  0.2068500  )
         7           Rh  tau(   7) = (  0.5000000  0.5000000  0.5000000  )
         8           Rh  tau(   8) = (  0.5000000  0.5000000  0.0000000  )
         9           Rh  tau(   9) = (  0.0000000 -0.0000000  0.5000000  )
        10           Rh  tau(  10) = (  0.7500000  0.7500000  0.7500000  )
        11           Rh  tau(  11) = (  0.2500000  0.2500000  0.2500000  )

     number of k points=     1  Methfessel-Paxton smearing, width (Ry)=  0.0010
                       cart. coord. in units 2pi/alat
        k(    1) = (   0.0000000   0.0000000   0.0000000), wk =   2.0000000

                       cryst. coord.
        k(    1) = (   0.0000000   0.0000000   0.0000000), wk =   2.0000000

     Dense  grid:    33989 G-vectors     FFT dimensions: (  72,  60,  54)

     Smooth grid:    12024 G-vectors     FFT dimensions: (  54,  45,  40)

     Dynamical RAM for                 wfc:       0.05 MB

     Dynamical RAM for     wfc (w. buffer):       0.05 MB

     Dynamical RAM for           str. fact:       0.05 MB

     Dynamical RAM for           local pot:       0.00 MB

     Dynamical RAM for          nlocal pot:       0.11 MB

     Dynamical RAM for                qrad:       3.73 MB

     Dynamical RAM for          rho,v,vnew:       0.25 MB

     Dynamical RAM for               rhoin:       0.08 MB

     Dynamical RAM for            rho*nmix:       0.26 MB

     Dynamical RAM for           G-vectors:       0.06 MB

     Dynamical RAM for          h,s,v(r/c):       0.02 MB

     Dynamical RAM for          <psi|beta>:       0.09 MB

     Dynamical RAM for                 psi:       0.10 MB

     Dynamical RAM for                hpsi:       0.10 MB

     Dynamical RAM for                spsi:       0.10 MB

     Dynamical RAM for      wfcinit/wfcrot:       0.33 MB

     Dynamical RAM for           addusdens:       3.08 MB

     Dynamical RAM for          addusforce:       3.20 MB

     Dynamical RAM for         addusstress:       3.26 MB

     Estimated static dynamical RAM per process >       4.73 MB

     Estimated max dynamical RAM per process >       8.25 MB

     Estimated total dynamical RAM >     264.05 MB

     Check: negative core charge=   -0.000003

     Initial potential from superposition of free atoms

     starting charge     116.9294, renormalised to     117.0000

     negative rho (up, down):  1.264E-01 0.000E+00
     Starting wfcs are   92 randomized atomic wfcs

     total cpu time spent up to now is        1.2 secs

     Self-consistent Calculation

     iteration #  1     ecut=    30.00 Ry     beta= 0.70
     Davidson diagonalization with overlap

---- Real-time Memory Report at c_bands before calling an iterative solver
           133 MiB given to the printing process from OS
             0 MiB allocation reported by mallinfo(arena+hblkhd)
        173465 MiB available memory on the node where the printing process lives
------------------
     ethr =  1.00E-02,  avg # of iterations =  3.0

     Threshold (ethr) on eigenvalues was too large:
     Diagonalizing with lowered threshold

     Davidson diagonalization with overlap

---- Real-time Memory Report at c_bands before calling an iterative solver
           138 MiB given to the printing process from OS
             0 MiB allocation reported by mallinfo(arena+hblkhd)
        173338 MiB available memory on the node where the printing process lives
------------------
     ethr =  7.98E-04,  avg # of iterations =  1.0

     negative rho (up, down):  1.284E-01 0.000E+00

     total cpu time spent up to now is        1.3 secs

     total energy              =   -1250.21479543 Ry
     estimated scf accuracy    <       0.91510590 Ry

     iteration #  2     ecut=    30.00 Ry     beta= 0.70
     Davidson diagonalization with overlap

---- Real-time Memory Report at c_bands before calling an iterative solver
           139 MiB given to the printing process from OS
             0 MiB allocation reported by mallinfo(arena+hblkhd)
        173335 MiB available memory on the node where the printing process lives
------------------
     ethr =  7.82E-04,  avg # of iterations =  5.0

     negative rho (up, down):  1.303E-01 0.000E+00

     total cpu time spent up to now is        1.4 secs

     total energy              =   -1250.14601688 Ry
     estimated scf accuracy    <       1.22841363 Ry

     iteration #  3     ecut=    30.00 Ry     beta= 0.70
     Davidson diagonalization with overlap

---- Real-time Memory Report at c_bands before calling an iterative solver
           141 MiB given to the printing process from OS
             0 MiB allocation reported by mallinfo(arena+hblkhd)
        173332 MiB available memory on the node where the printing process lives
------------------
     ethr =  7.82E-04,  avg # of iterations =  5.0

     negative rho (up, down):  1.310E-01 0.000E+00

     total cpu time spent up to now is        1.4 secs

     total energy              =   -1250.39500521 Ry
     estimated scf accuracy    <       1.51184105 Ry

     iteration #  4     ecut=    30.00 Ry     beta= 0.70
     Davidson diagonalization with overlap

---- Real-time Memory Report at c_bands before calling an iterative solver
           141 MiB given to the printing process from OS
             0 MiB allocation reported by mallinfo(arena+hblkhd)
        173332 MiB available memory on the node where the printing process lives
------------------
     ethr =  7.82E-04,  avg # of iterations =  2.0

     negative rho (up, down):  1.316E-01 0.000E+00

     total cpu time spent up to now is        1.5 secs

     total energy              =   -1250.50680933 Ry
     estimated scf accuracy    <       0.23044326 Ry

     iteration #  5     ecut=    30.00 Ry     beta= 0.70
     Davidson diagonalization with overlap

---- Real-time Memory Report at c_bands before calling an iterative solver
           142 MiB given to the printing process from OS
             0 MiB allocation reported by mallinfo(arena+hblkhd)
        173332 MiB available memory on the node where the printing process lives
------------------
     ethr =  1.97E-04,  avg # of iterations =  2.0

     negative rho (up, down):  1.323E-01 0.000E+00

     total cpu time spent up to now is        1.6 secs

     total energy              =   -1250.53021617 Ry
     estimated scf accuracy    <       0.02906200 Ry

     iteration #  6     ecut=    30.00 Ry     beta= 0.70
     Davidson diagonalization with overlap

---- Real-time Memory Report at c_bands before calling an iterative solver
           142 MiB given to the printing process from OS
             0 MiB allocation reported by mallinfo(arena+hblkhd)
        173331 MiB available memory on the node where the printing process lives
------------------
     ethr =  2.48E-05,  avg # of iterations =  3.0

     negative rho (up, down):  1.327E-01 0.000E+00

     total cpu time spent up to now is        1.6 secs

     total energy              =   -1250.53219529 Ry
     estimated scf accuracy    <       0.02408444 Ry

     iteration #  7     ecut=    30.00 Ry     beta= 0.70
     Davidson diagonalization with overlap

---- Real-time Memory Report at c_bands before calling an iterative solver
           142 MiB given to the printing process from OS
             0 MiB allocation reported by mallinfo(arena+hblkhd)
        173324 MiB available memory on the node where the printing process lives
------------------
     ethr =  2.06E-05,  avg # of iterations =  3.0

     negative rho (up, down):  1.330E-01 0.000E+00

     total cpu time spent up to now is        1.7 secs

     total energy              =   -1250.53513338 Ry
     estimated scf accuracy    <       0.00091269 Ry

     iteration #  8     ecut=    30.00 Ry     beta= 0.70
     Davidson diagonalization with overlap

---- Real-time Memory Report at c_bands before calling an iterative solver
           143 MiB given to the printing process from OS
             0 MiB allocation reported by mallinfo(arena+hblkhd)
        173324 MiB available memory on the node where the printing process lives
------------------
     ethr =  7.80E-07,  avg # of iterations = 13.0

     negative rho (up, down):  1.330E-01 0.000E+00

     total cpu time spent up to now is        1.8 secs

     total energy              =   -1250.53531002 Ry
     estimated scf accuracy    <       0.00013768 Ry

     iteration #  9     ecut=    30.00 Ry     beta= 0.70
     Davidson diagonalization with overlap

---- Real-time Memory Report at c_bands before calling an iterative solver
           143 MiB given to the printing process from OS
             0 MiB allocation reported by mallinfo(arena+hblkhd)
        173324 MiB available memory on the node where the printing process lives
------------------
     ethr =  1.18E-07,  avg # of iterations =  2.0

     negative rho (up, down):  1.330E-01 0.000E+00

     total cpu time spent up to now is        1.9 secs

     total energy              =   -1250.53531058 Ry
     estimated scf accuracy    <       0.00007672 Ry

     iteration # 10     ecut=    30.00 Ry     beta= 0.70
     Davidson diagonalization with overlap

---- Real-time Memory Report at c_bands before calling an iterative solver
           143 MiB given to the printing process from OS
             0 MiB allocation reported by mallinfo(arena+hblkhd)
        173324 MiB available memory on the node where the printing process lives
------------------
     ethr =  6.56E-08,  avg # of iterations =  2.0

     negative rho (up, down):  1.330E-01 0.000E+00

     total cpu time spent up to now is        1.9 secs

     total energy              =   -1250.53531858 Ry
     estimated scf accuracy    <       0.00005448 Ry

     iteration # 11     ecut=    30.00 Ry     beta= 0.70
     Davidson diagonalization with overlap

---- Real-time Memory Report at c_bands before calling an iterative solver
           144 MiB given to the printing process from OS
             0 MiB allocation reported by mallinfo(arena+hblkhd)
        173324 MiB available memory on the node where the printing process lives
------------------
     ethr =  4.66E-08,  avg # of iterations =  2.0

     negative rho (up, down):  1.330E-01 0.000E+00

     total cpu time spent up to now is        2.0 secs

     total energy              =   -1250.53532327 Ry
     estimated scf accuracy    <       0.00000380 Ry

     iteration # 12     ecut=    30.00 Ry     beta= 0.70
     Davidson diagonalization with overlap

---- Real-time Memory Report at c_bands before calling an iterative solver
           144 MiB given to the printing process from OS
             0 MiB allocation reported by mallinfo(arena+hblkhd)
        173324 MiB available memory on the node where the printing process lives
------------------
     ethr =  3.25E-09,  avg # of iterations =  3.0

     negative rho (up, down):  1.330E-01 0.000E+00

     total cpu time spent up to now is        2.1 secs

     total energy              =   -1250.53532380 Ry
     estimated scf accuracy    <       0.00000653 Ry

     iteration # 13     ecut=    30.00 Ry     beta= 0.70
     Davidson diagonalization with overlap

---- Real-time Memory Report at c_bands before calling an iterative solver
           144 MiB given to the printing process from OS
             0 MiB allocation reported by mallinfo(arena+hblkhd)
        173324 MiB available memory on the node where the printing process lives
------------------
     ethr =  3.25E-09,  avg # of iterations =  2.0

     negative rho (up, down):  1.330E-01 0.000E+00

     total cpu time spent up to now is        2.1 secs

     End of self-consistent calculation

          k = 0.0000 0.0000 0.0000 (  1524 PWs)   bands (ev):

   -63.5788 -63.5531 -63.5157 -63.4934 -63.1839 -31.8240 -31.7927 -31.6585
   -31.5968 -31.5383 -31.5169 -31.4669 -31.4167 -31.4064 -31.2671 -31.2049
   -31.0009 -30.9726 -30.9633 -30.8572 -19.7618 -19.6611  -2.4086  -1.8785
    -1.7872  -1.7377  -1.6585  -1.6331   5.4700   7.6162   8.2566   8.6104
     8.9710  10.0528  10.3951  10.4645  10.8435  10.9557  11.1622  11.3521
    11.6085  11.8025  11.9265  11.9963  12.0120  12.0857  12.8625  13.2460
    13.3100  13.4055  13.5398  13.7134  13.8232  13.9241  14.1893  14.5614
    14.6406  14.7839  15.0793  15.8437  15.8441  16.1258  16.2558  16.9502
    16.9543  17.4918  18.7198  18.7333  20.0117  20.0636  21.1579

     occupation numbers 
     1.0000   1.0000   1.0000   1.0000   1.0000   1.0000   1.0000   1.0000
     1.0000   1.0000   1.0000   1.0000   1.0000   1.0000   1.0000   1.0000
     1.0000   1.0000   1.0000   1.0000   1.0000   1.0000   1.0000   1.0000
     1.0000   1.0000   1.0000   1.0000   1.0000   1.0000   1.0000   1.0000
     1.0000   1.0000   1.0000   1.0000   1.0000   1.0000   1.0000   1.0000
     1.0000   1.0000   1.0000   1.0000   1.0000   1.0000   1.0000   1.0000
     1.0000   1.0000   1.0000   1.0000   1.0000   1.0000   1.0000   1.0000
     1.0000   1.0000   0.5000  -0.0000  -0.0000  -0.0000  -0.0000  -0.0000
    -0.0000  -0.0000  -0.0000  -0.0000  -0.0000  -0.0000  -0.0000

     the Fermi energy is    15.0793 ev

!    total energy              =   -1250.53532428 Ry
     estimated scf accuracy    <       0.00000034 Ry
     smearing contrib. (-TS)   =      -0.00028209 Ry
     internal energy E=F+TS    =   -1250.53504218 Ry

     The total energy is F=E-TS. E is the sum of the following terms:
     one-electron contribution =    -517.08174777 Ry
     hartree contribution      =     313.08668136 Ry
     xc contribution           =    -158.43821849 Ry
     ewald contribution        =    -888.10175728 Ry

     convergence has been achieved in  13 iterations

     negative rho (up, down):  1.330E-01 0.000E+00

     Forces acting on atoms (cartesian axes, Ry/au):

     atom    1 type  1   force =    -0.04574821   -0.03291242    0.02434249
     atom    2 type  1   force =     0.04574821    0.03291242   -0.02434249
     atom    3 type  2   force =     0.02664918    0.03739169   -0.02766135
     atom    4 type  2   force =    -0.02664918   -0.03739169    0.02766135
     atom    5 type  2   force =    -0.04917667   -0.01718015    0.01267419
     atom    6 type  2   force =     0.04917667    0.01718015   -0.01267419
     atom    7 type  3   force =     0.00000000    0.00000000    0.00000000
     atom    8 type  3   force =     0.00000000    0.00000000    0.00000000
     atom    9 type  3   force =     0.00000000    0.00000000    0.00000000
     atom   10 type  3   force =     0.00001944    0.00001224   -0.00000815
     atom   11 type  3   force =    -0.00001944   -0.00001224    0.00000815
     The non-local contrib.  to forces
     atom    1 type  1   force =    -0.05355107   -0.03852761    0.02849601
     atom    2 type  1   force =     0.05355107    0.03852761   -0.02849601
     atom    3 type  2   force =    -0.04084952   -0.01701287    0.01257526
     atom    4 type  2   force =     0.04084952    0.01701287   -0.01257526
     atom    5 type  2   force =     0.02554260    0.03075241   -0.02276523
     atom    6 type  2   force =    -0.02554260   -0.03075241    0.02276523
     atom    7 type  3   force =     0.00000000    0.00000000    0.00000000
     atom    8 type  3   force =     0.00000000    0.00000000    0.00000000
     atom    9 type  3   force =     0.00000000    0.00000000    0.00000000
     atom   10 type  3   force =    -0.00000502   -0.00000255    0.00000096
     atom   11 type  3   force =     0.00000502    0.00000255   -0.00000096
     The ionic contribution  to forces
     atom    1 type  1   force =    -1.94426696   -1.39887223    1.03465322
     atom    2 type  1   force =     1.94426696    1.39887223   -1.03465322
     atom    3 type  2   force =    -0.79997653    3.51747398   -2.60164275
     atom    4 type  2   force =     0.79997653   -3.51747398    2.60164275
     atom    5 type  2   force =    -4.25976051    1.02820897   -0.76049813
     atom    6 type  2   force =     4.25976051   -1.02820897    0.76049813
     atom    7 type  3   force =     0.00000000   -0.00000000    0.00000000
     atom    8 type  3   force =    -0.00000000   -0.00000000   -0.00000000
     atom    9 type  3   force =    -0.00000000    0.00000000    0.00000000
     atom   10 type  3   force =     0.00000000   -0.00000000   -0.00000000
     atom   11 type  3   force =    -0.00000000    0.00000000    0.00000000
     The local contribution  to forces
     atom    1 type  1   force =     1.94780897    1.40156079   -1.03665162
     atom    2 type  1   force =    -1.94762628   -1.40118324    1.03635191
     atom    3 type  2   force =     0.86545726   -3.46270015    2.56122183
     atom    4 type  2   force =    -0.86541734    3.46271075   -2.56113533
     atom    5 type  2   force =     4.18485364   -1.07446534    0.79472681
     atom    6 type  2   force =    -4.18483360    1.07441911   -0.79477832
     atom    7 type  3   force =    -0.00184071   -0.00088530    0.00070299
     atom    8 type  3   force =    -0.00117520   -0.00112646    0.00093748
     atom    9 type  3   force =    -0.00132986   -0.00138320    0.00091154
     atom   10 type  3   force =     0.00169774    0.00093975   -0.00051617
     atom   11 type  3   force =     0.00178528    0.00083787   -0.00079151
     The core correction contribution to forces
     atom    1 type  1   force =     0.00415884    0.00299256   -0.00221334
     atom    2 type  1   force =    -0.00415803   -0.00299123    0.00221216
     atom    3 type  2   force =     0.00212374   -0.00030833    0.00021988
     atom    4 type  2   force =    -0.00212354    0.00030739   -0.00021997
     atom    5 type  2   force =     0.00013597   -0.00175506    0.00126057
     atom    6 type  2   force =    -0.00013603    0.00175571   -0.00126027
     atom    7 type  3   force =     0.00000000    0.00000000    0.00000000
     atom    8 type  3   force =     0.00000000    0.00000000    0.00000000
     atom    9 type  3   force =     0.00000000    0.00000000    0.00000000
     atom   10 type  3   force =     0.00000000    0.00000000    0.00000000
     atom   11 type  3   force =     0.00000000    0.00000000    0.00000000
     The Hubbard contrib.    to forces
     atom    1 type  1   force =     0.00000000    0.00000000    0.00000000
     atom    2 type  1   force =     0.00000000    0.00000000    0.00000000
     atom    3 type  2   force =     0.00000000    0.00000000    0.00000000
     atom    4 type  2   force =     0.00000000    0.00000000    0.00000000
     atom    5 type  2   force =     0.00000000    0.00000000    0.00000000
     atom    6 type  2   force =     0.00000000    0.00000000    0.00000000
     atom    7 type  3   force =     0.00000000    0.00000000    0.00000000
     atom    8 type  3   force =     0.00000000    0.00000000    0.00000000
     atom    9 type  3   force =     0.00000000    0.00000000    0.00000000
     atom   10 type  3   force =     0.00000000    0.00000000    0.00000000
     atom   11 type  3   force =     0.00000000    0.00000000    0.00000000
     The SCF correction term to forces
     atom    1 type  1   force =     0.00011109   -0.00005220    0.00004742
     atom    2 type  1   force =    -0.00027643   -0.00029923    0.00023188
     atom    3 type  2   force =    -0.00010066   -0.00007027   -0.00003167
     atom    4 type  2   force =     0.00007078    0.00004195   -0.00004693
     atom    5 type  2   force =     0.00005225    0.00008687   -0.00005228
     atom    6 type  2   force =    -0.00007099   -0.00002531    0.00009859
     atom    7 type  3   force =     0.00181009    0.00086197   -0.00068867
     atom    8 type  3   force =     0.00116762    0.00114095   -0.00092800
     atom    9 type  3   force =     0.00133432    0.00138904   -0.00093582
     atom   10 type  3   force =    -0.00167733   -0.00091859    0.00050495
     atom   11 type  3   force =    -0.00181379   -0.00084628    0.00079852

     Total force =     0.137959     Total SCF correction =     0.004632


     Computing stress (Cartesian axis) and pressure


     negative rho (up, down):  1.330E-01 0.000E+00
          total   stress  (Ry/bohr**3)                   (kbar)     P=       26.09
   0.00017373  -0.00034829   0.00025748           25.56      -51.23       37.88
  -0.00034829   0.00020592  -0.00008689          -51.23       30.29      -12.78
   0.00025748  -0.00008689   0.00015250           37.88      -12.78       22.43

     kinetic stress (kbar)  36705.01   -314.96    232.96
                             -314.96  36567.19   -304.19
                              232.96   -304.19  36380.92

     local   stress (kbar)  -7678.74 -10836.46   8014.95
                           -10836.46 -11970.41  -9857.81
                             8014.95  -9857.81 -18007.32

     nonloc. stress (kbar)   8220.94     32.48    -24.02
                               32.48   8245.78     45.74
                              -24.02     45.74   8273.79

     hartree stress (kbar)  12025.90   4828.68  -3571.42
                             4828.68  13898.34   4338.62
                            -3571.42   4338.62  16555.32

     exc-cor stress (kbar)  -3078.79      4.28     -3.17
                                4.28  -3081.13     -1.56
                               -3.17     -1.56  -3082.09

     corecor stress (kbar)  -3134.97      0.03     -0.02
                                0.03  -3132.85      2.88
                               -0.02      2.88  -3131.08

     ewald   stress (kbar) -43033.79   6234.72  -4611.41
                             6234.72 -40496.63   5763.54
                            -4611.41   5763.54 -36967.11

     hubbard stress (kbar)      0.00      0.00      0.00
                                0.00      0.00      0.00
                                0.00      0.00      0.00

     DFT-D   stress (kbar)      0.00      0.00      0.00
                                0.00      0.00      0.00
                                0.00      0.00      0.00

     XDM     stress (kbar)      0.00      0.00      0.00
                                0.00      0.00      0.00
                                0.00      0.00      0.00

     dft-nl  stress (kbar)      0.00      0.00      0.00
                                0.00      0.00      0.00
                                0.00      0.00      0.00

     TS-vdW  stress (kbar)      0.00      0.00      0.00
                                0.00      0.00      0.00
                                0.00      0.00      0.00


                                0.00      0.00      0.00
                                0.00      0.00      0.00


                                0.00      0.00      0.00


     Writing all to output data dir calculations/myprefix.save/
 
     init_run     :      0.87s CPU      0.92s WALL (       1 calls)
     electrons    :      0.93s CPU      0.99s WALL (       1 calls)
     forces       :      0.07s CPU      0.07s WALL (       1 calls)
     stress       :      0.15s CPU      0.16s WALL (       1 calls)

     Called by init_run:
     wfcinit      :      0.02s CPU      0.04s WALL (       1 calls)
     wfcinit:atom :      0.00s CPU      0.00s WALL (       1 calls)
     wfcinit:wfcr :      0.02s CPU      0.04s WALL (       1 calls)
     potinit      :      0.25s CPU      0.25s WALL (       1 calls)
     hinit0       :      0.59s CPU      0.61s WALL (       1 calls)

     Called by electrons:
     c_bands      :      0.67s CPU      0.68s WALL (      14 calls)
     sum_band     :      0.14s CPU      0.14s WALL (      14 calls)
     v_of_rho     :      0.06s CPU      0.06s WALL (      14 calls)
     v_h          :      0.00s CPU      0.00s WALL (      14 calls)
     v_xc         :      0.06s CPU      0.06s WALL (      16 calls)
     newd         :      0.06s CPU      0.07s WALL (      14 calls)
     mix_rho      :      0.01s CPU      0.01s WALL (      14 calls)

     Called by c_bands:
     init_us_2    :      0.00s CPU      0.00s WALL (      29 calls)
     init_us_2:cp :      0.00s CPU      0.00s WALL (      29 calls)
     regterg      :      0.66s CPU      0.67s WALL (      14 calls)

     Called by sum_band:
     sum_band:wei :      0.00s CPU      0.00s WALL (      14 calls)
     sum_band:loo :      0.06s CPU      0.06s WALL (      14 calls)
     sum_band:buf :      0.00s CPU      0.00s WALL (      14 calls)
     sum_band:ini :      0.00s CPU      0.00s WALL (      14 calls)
     sum_band:cal :      0.01s CPU      0.01s WALL (      14 calls)
     sum_band:bec :      0.00s CPU      0.00s WALL (      14 calls)
     addusdens    :      0.07s CPU      0.07s WALL (      14 calls)
     addusd:skk   :      0.00s CPU      0.00s WALL (      28 calls)
     addusd:dgemm :      0.02s CPU      0.02s WALL (      28 calls)
     addusd:qvan2 :      0.04s CPU      0.04s WALL (      28 calls)

     Called by *egterg:
     rdiaghg      :      0.34s CPU      0.35s WALL (      61 calls)
     regterg:over :      0.03s CPU      0.03s WALL (      48 calls)
     regterg:upda :      0.01s CPU      0.01s WALL (      48 calls)
     regterg:last :      0.02s CPU      0.02s WALL (      27 calls)
     rdiaghg:chol :      0.02s CPU      0.02s WALL (      61 calls)
     rdiaghg:inve :      0.00s CPU      0.00s WALL (      61 calls)
     rdiaghg:para :      0.02s CPU      0.02s WALL (     122 calls)
     h_psi        :      0.26s CPU      0.27s WALL (      63 calls)
     s_psi        :      0.00s CPU      0.00s WALL (      63 calls)
     g_psi        :      0.00s CPU      0.00s WALL (      48 calls)

     Called by h_psi:
     h_psi:calbec :      0.02s CPU      0.02s WALL (      63 calls)
     vloc_psi     :      0.23s CPU      0.25s WALL (      63 calls)
     add_vuspsi   :      0.00s CPU      0.00s WALL (      63 calls)

     General routines
     calbec       :      0.03s CPU      0.03s WALL (      82 calls)
     fft          :      0.55s CPU      0.55s WALL (     173 calls)
     ffts         :      0.21s CPU      0.21s WALL (      28 calls)
     fftw         :      0.26s CPU      0.28s WALL (    2954 calls)
     interpolate  :      0.21s CPU      0.21s WALL (      14 calls)
 
     Parallel routines
 
     PWSCF        :      2.25s CPU      2.70s WALL

 
   This run was terminated on:  16:35: 8   3Mar2023            

=------------------------------------------------------------------------------=
   JOB DONE.
=------------------------------------------------------------------------------=
