
     Program PWSCF v.7.0 starts on  4Mar2023 at 21:29:12 

     This program is part of the open-source Quantum ESPRESSO suite
     for quantum simulation of materials; please cite
         "P. Giannozzi et al., J. Phys.:Condens. Matter 21 395502 (2009);
         "P. Giannozzi et al., J. Phys.:Condens. Matter 29 465901 (2017);
         "P. Giannozzi et al., J. Chem. Phys. 152 154105 (2020);
          URL http://www.quantum-espresso.org", 
     in publications or presentations arising from this work. More details at
     http://www.quantum-espresso.org/quote

     Parallel version (MPI & OpenMP), running on      32 processor cores
     Number of MPI processes:                32
     Threads/MPI process:                     1

     MPI processes distributed on     1 nodes
     R & G space division:  proc/nbgrp/npool/nimage =      32
     167166 MiB available memory on the printing compute node when the environment starts
 
     Reading input from espresso_7743.pwi
Warning: card &CELL ignored
Warning: card / ignored

     Current dimensions of program PWSCF are:
     Max number of different atomic species (ntypx) = 10
     Max number of k-points (npk) =  40000
     Max angular momentum in pseudopotentials (lmaxx) =  4

     gamma-point specific algorithms are used
     Message from routine setup:
     using ibrav=0 with symmetry is DISCOURAGED, use correct ibrav instead

     Subspace diagonalization in iterative solution of the eigenvalue problem:
     one sub-group per band group will be used
     scalapack distributed-memory algorithm (size of sub-group:  5*  5 procs)

 
     Parallelization info
     --------------------
     sticks:   dense  smooth     PW     G-vecs:    dense   smooth      PW
     Min          72      36      8                 1562      550      64
     Max          74      38     10                 1570      556      72
     Sum        2357    1175    291                50111    17649    2161
 
     Using Slab Decomposition
 


     bravais-lattice index     =            0
     lattice parameter (alat)  =      11.5000  a.u.
     unit-cell volume          =     797.8554 (a.u.)^3
     number of atoms/cell      =            4
     number of atomic types    =            2
     number of electrons       =        48.00
     number of Kohn-Sham states=           29
     kinetic-energy cutoff     =      30.0000  Ry
     charge density cutoff     =     240.0000  Ry
     scf convergence threshold =      1.0E-06
     mixing beta               =       0.7000
     number of iterations used =            8  plain     mixing
     Exchange-correlation= SLA  PW   PBE  PBE
                           (   1   4   3   4   0   0   0)

     celldm(1)=  11.500002  celldm(2)=   0.000000  celldm(3)=   0.000000
     celldm(4)=   0.000000  celldm(5)=   0.000000  celldm(6)=   0.000000

     crystal axes: (cart. coord. in units of alat)
               a(1) = (   1.000000   0.000000   0.000000 )  
               a(2) = (   0.364990   0.931012   0.000000 )  
               a(3) = (  -0.682495  -0.465506   0.563476 )  

     reciprocal axes: (cart. coord. in units 2 pi/alat)
               b(1) = (  1.000000 -0.392036  0.887349 )  
               b(2) = (  0.000000  1.074100  0.887349 )  
               b(3) = (  0.000000  0.000000  1.774699 )  


     PseudoPot. # 1 for Na read from file:
     /home/pragov/projects/rrg-bengioy-ad/pragov/crystal_structure_design/SSSP/na_pbe_v1.5.uspp.F.UPF
     MD5 check sum: 44600605ef58000f06b90626533354dc
     Pseudo is Ultrasoft, Zval =  9.0
     Generated by new atomic code, or converted to UPF format
     Using radial grid of  819 points,  5 beta functions with: 
                l(1) =   0
                l(2) =   0
                l(3) =   1
                l(4) =   1
                l(5) =   2
     Q(r) pseudized with  8 coefficients,  rinner =    1.250   1.250   1.250
                                                       1.250   1.250

     PseudoPot. # 2 for Tl read from file:
     /home/pragov/projects/rrg-bengioy-ad/pragov/crystal_structure_design/SSSP/Tl_pbe_v1.2.uspp.F.UPF
     MD5 check sum: b76cf1f7e72655a2b2c53cf6385d7059
     Pseudo is Ultrasoft + core correction, Zval = 13.0
     Generated by new atomic code, or converted to UPF format
     Using radial grid of  899 points,  6 beta functions with: 
                l(1) =   0
                l(2) =   0
                l(3) =   1
                l(4) =   1
                l(5) =   2
                l(6) =   2
     Q(r) pseudized with  6 coefficients,  rinner =    1.100   1.100   1.100
                                                       1.100   1.100

     atomic species   valence    mass     pseudopotential
        Na             9.00    22.98977     Na( 1.00)
        Tl            13.00   204.38000     Tl( 1.00)

      4 Sym. Ops., with inversion, found


                                    s                        frac. trans.

      isym =  1     identity                                     

 cryst.   s( 1) = (     1          0          0      )
                  (     0          1          0      )
                  (     0          0          1      )

 cart.    s( 1) = (  1.0000000 -0.0000000 -0.0000000 )
                  (  0.0000000  1.0000000 -0.0000000 )
                  (  0.0000000  0.0000000  1.0000000 )


      isym =  2     180 deg rotation - cart. axis [0,0,1]        

 cryst.   s( 2) = (    -1          0          0      )
                  (     0         -1          0      )
                  (     1          1          1      )

 cart.    s( 2) = ( -1.0000000  0.0000000 -0.0000000 )
                  (  0.0000000 -1.0000000 -0.0000000 )
                  (  0.0000000  0.0000000  1.0000000 )


      isym =  3     inversion                                    

 cryst.   s( 3) = (    -1          0          0      )
                  (     0         -1          0      )
                  (     0          0         -1      )

 cart.    s( 3) = ( -1.0000000  0.0000000  0.0000000 )
                  (  0.0000000 -1.0000000  0.0000000 )
                  (  0.0000000  0.0000000 -1.0000000 )


      isym =  4     inv. 180 deg rotation - cart. axis [0,0,1]   

 cryst.   s( 4) = (     1          0          0      )
                  (     0          1          0      )
                  (    -1         -1         -1      )

 cart.    s( 4) = (  1.0000000 -0.0000000  0.0000000 )
                  (  0.0000000  1.0000000  0.0000000 )
                  (  0.0000000  0.0000000 -1.0000000 )


   Cartesian axes

     site n.     atom                  positions (alat units)
         1           Na  tau(   1) = (   0.0000000   0.0000000   0.0000000  )
         2           Tl  tau(   2) = (   0.5000000  -0.0000000   0.2817380  )
         3           Tl  tau(   3) = (   0.1824948   0.4655058   0.2817380  )
         4           Tl  tau(   4) = (   0.6824948   0.4655058   0.0000000  )

   Crystallographic axes

     site n.     atom                  positions (cryst. coord.)
         1           Na  tau(   1) = (  0.0000000  0.0000000  0.0000000  )
         2           Tl  tau(   2) = (  0.7500000  0.2500000  0.5000000  )
         3           Tl  tau(   3) = (  0.2500000  0.7500000  0.5000000  )
         4           Tl  tau(   4) = (  0.5000000  0.5000000  0.0000000  )

     number of k points=     1  Methfessel-Paxton smearing, width (Ry)=  0.0010
                       cart. coord. in units 2pi/alat
        k(    1) = (   0.0000000   0.0000000   0.0000000), wk =   2.0000000

                       cryst. coord.
        k(    1) = (   0.0000000   0.0000000   0.0000000), wk =   2.0000000

     Dense  grid:    25056 G-vectors     FFT dimensions: (  60,  60,  60)

     Smooth grid:     8825 G-vectors     FFT dimensions: (  45,  45,  45)

     Dynamical RAM for                 wfc:       0.02 MB

     Dynamical RAM for     wfc (w. buffer):       0.02 MB

     Dynamical RAM for           str. fact:       0.02 MB

     Dynamical RAM for           local pot:       0.00 MB

     Dynamical RAM for          nlocal pot:       0.03 MB

     Dynamical RAM for                qrad:       2.49 MB

     Dynamical RAM for          rho,v,vnew:       0.20 MB

     Dynamical RAM for               rhoin:       0.07 MB

     Dynamical RAM for            rho*nmix:       0.19 MB

     Dynamical RAM for           G-vectors:       0.05 MB

     Dynamical RAM for          h,s,v(r/c):       0.00 MB

     Dynamical RAM for          <psi|beta>:       0.01 MB

     Dynamical RAM for                 psi:       0.03 MB

     Dynamical RAM for                hpsi:       0.03 MB

     Dynamical RAM for                spsi:       0.03 MB

     Dynamical RAM for      wfcinit/wfcrot:       0.06 MB

     Dynamical RAM for           addusdens:       2.26 MB

     Dynamical RAM for          addusforce:       2.32 MB

     Dynamical RAM for         addusstress:       2.40 MB

     Estimated static dynamical RAM per process >       3.19 MB

     Estimated max dynamical RAM per process >       5.78 MB

     Estimated total dynamical RAM >     184.94 MB

     Check: negative core charge=   -0.000006

     Initial potential from superposition of free atoms

     starting charge      47.9791, renormalised to      48.0000

     negative rho (up, down):  1.519E-01 0.000E+00
     Starting wfcs are   32 randomized atomic wfcs

     total cpu time spent up to now is        0.9 secs

     Self-consistent Calculation

     iteration #  1     ecut=    30.00 Ry     beta= 0.70
     Davidson diagonalization with overlap

---- Real-time Memory Report at c_bands before calling an iterative solver
           130 MiB given to the printing process from OS
             0 MiB allocation reported by mallinfo(arena+hblkhd)
        166482 MiB available memory on the node where the printing process lives
------------------
     ethr =  1.00E-02,  avg # of iterations =  4.0

     Threshold (ethr) on eigenvalues was too large:
     Diagonalizing with lowered threshold

     Davidson diagonalization with overlap

---- Real-time Memory Report at c_bands before calling an iterative solver
           133 MiB given to the printing process from OS
             0 MiB allocation reported by mallinfo(arena+hblkhd)
        166448 MiB available memory on the node where the printing process lives
------------------
     ethr =  2.58E-04,  avg # of iterations =  2.0

     negative rho (up, down):  1.481E-01 0.000E+00

     total cpu time spent up to now is        0.9 secs

     total energy              =    -529.74702462 Ry
     estimated scf accuracy    <       0.12311201 Ry

     iteration #  2     ecut=    30.00 Ry     beta= 0.70
     Davidson diagonalization with overlap

---- Real-time Memory Report at c_bands before calling an iterative solver
           135 MiB given to the printing process from OS
             0 MiB allocation reported by mallinfo(arena+hblkhd)
        166449 MiB available memory on the node where the printing process lives
------------------
     ethr =  2.56E-04,  avg # of iterations =  2.0

     negative rho (up, down):  1.481E-01 0.000E+00

     total cpu time spent up to now is        1.0 secs

     total energy              =    -529.73866066 Ry
     estimated scf accuracy    <       0.11878744 Ry

     iteration #  3     ecut=    30.00 Ry     beta= 0.70
     Davidson diagonalization with overlap

---- Real-time Memory Report at c_bands before calling an iterative solver
           136 MiB given to the printing process from OS
             0 MiB allocation reported by mallinfo(arena+hblkhd)
        166447 MiB available memory on the node where the printing process lives
------------------
     ethr =  2.47E-04,  avg # of iterations =  1.0

     negative rho (up, down):  1.482E-01 0.000E+00

     total cpu time spent up to now is        1.0 secs

     total energy              =    -529.78585192 Ry
     estimated scf accuracy    <       0.19266278 Ry

     iteration #  4     ecut=    30.00 Ry     beta= 0.70
     Davidson diagonalization with overlap

---- Real-time Memory Report at c_bands before calling an iterative solver
           136 MiB given to the printing process from OS
             0 MiB allocation reported by mallinfo(arena+hblkhd)
        166447 MiB available memory on the node where the printing process lives
------------------
     ethr =  2.47E-04,  avg # of iterations =  1.0

     negative rho (up, down):  1.484E-01 0.000E+00

     total cpu time spent up to now is        1.0 secs

     total energy              =    -529.76268795 Ry
     estimated scf accuracy    <       0.13058410 Ry

     iteration #  5     ecut=    30.00 Ry     beta= 0.70
     Davidson diagonalization with overlap

---- Real-time Memory Report at c_bands before calling an iterative solver
           137 MiB given to the printing process from OS
             0 MiB allocation reported by mallinfo(arena+hblkhd)
        166446 MiB available memory on the node where the printing process lives
------------------
     ethr =  2.47E-04,  avg # of iterations =  1.0

     negative rho (up, down):  1.486E-01 0.000E+00

     total cpu time spent up to now is        1.1 secs

     total energy              =    -529.77137817 Ry
     estimated scf accuracy    <       0.11396268 Ry

     iteration #  6     ecut=    30.00 Ry     beta= 0.70
     Davidson diagonalization with overlap

---- Real-time Memory Report at c_bands before calling an iterative solver
           137 MiB given to the printing process from OS
             0 MiB allocation reported by mallinfo(arena+hblkhd)
        166445 MiB available memory on the node where the printing process lives
------------------
     ethr =  2.37E-04,  avg # of iterations =  1.0

     negative rho (up, down):  1.487E-01 0.000E+00

     total cpu time spent up to now is        1.1 secs

     total energy              =    -529.76946560 Ry
     estimated scf accuracy    <       0.08574593 Ry

     iteration #  7     ecut=    30.00 Ry     beta= 0.70
     Davidson diagonalization with overlap

---- Real-time Memory Report at c_bands before calling an iterative solver
           138 MiB given to the printing process from OS
             0 MiB allocation reported by mallinfo(arena+hblkhd)
        166442 MiB available memory on the node where the printing process lives
------------------
     ethr =  1.79E-04,  avg # of iterations =  1.0

     negative rho (up, down):  1.487E-01 0.000E+00

     total cpu time spent up to now is        1.1 secs

     total energy              =    -529.76905404 Ry
     estimated scf accuracy    <       0.10526168 Ry

     iteration #  8     ecut=    30.00 Ry     beta= 0.70
     Davidson diagonalization with overlap

---- Real-time Memory Report at c_bands before calling an iterative solver
           138 MiB given to the printing process from OS
             0 MiB allocation reported by mallinfo(arena+hblkhd)
        166441 MiB available memory on the node where the printing process lives
------------------
     ethr =  1.79E-04,  avg # of iterations =  1.0

     negative rho (up, down):  1.487E-01 0.000E+00

     total cpu time spent up to now is        1.2 secs

     total energy              =    -529.77169736 Ry
     estimated scf accuracy    <       0.10578934 Ry

     iteration #  9     ecut=    30.00 Ry     beta= 0.70
     Davidson diagonalization with overlap

---- Real-time Memory Report at c_bands before calling an iterative solver
           138 MiB given to the printing process from OS
             0 MiB allocation reported by mallinfo(arena+hblkhd)
        166441 MiB available memory on the node where the printing process lives
------------------
     ethr =  1.79E-04,  avg # of iterations =  1.0

     negative rho (up, down):  1.488E-01 0.000E+00

     total cpu time spent up to now is        1.2 secs

     total energy              =    -529.77347763 Ry
     estimated scf accuracy    <       0.08407489 Ry

     iteration # 10     ecut=    30.00 Ry     beta= 0.70
     Davidson diagonalization with overlap

---- Real-time Memory Report at c_bands before calling an iterative solver
           138 MiB given to the printing process from OS
             0 MiB allocation reported by mallinfo(arena+hblkhd)
        166441 MiB available memory on the node where the printing process lives
------------------
     ethr =  1.75E-04,  avg # of iterations =  1.0

     negative rho (up, down):  1.488E-01 0.000E+00

     total cpu time spent up to now is        1.2 secs

     total energy              =    -529.77387839 Ry
     estimated scf accuracy    <       0.00412783 Ry

     iteration # 11     ecut=    30.00 Ry     beta= 0.70
     Davidson diagonalization with overlap

---- Real-time Memory Report at c_bands before calling an iterative solver
           139 MiB given to the printing process from OS
             0 MiB allocation reported by mallinfo(arena+hblkhd)
        166441 MiB available memory on the node where the printing process lives
------------------
     ethr =  8.60E-06,  avg # of iterations =  1.0

     negative rho (up, down):  1.488E-01 0.000E+00

     total cpu time spent up to now is        1.2 secs

     total energy              =    -529.77364734 Ry
     estimated scf accuracy    <       0.00717918 Ry

     iteration # 12     ecut=    30.00 Ry     beta= 0.70
     Davidson diagonalization with overlap

---- Real-time Memory Report at c_bands before calling an iterative solver
           139 MiB given to the printing process from OS
             0 MiB allocation reported by mallinfo(arena+hblkhd)
        166441 MiB available memory on the node where the printing process lives
------------------
     ethr =  8.60E-06,  avg # of iterations =  1.0

     negative rho (up, down):  1.488E-01 0.000E+00

     total cpu time spent up to now is        1.3 secs

     total energy              =    -529.77387784 Ry
     estimated scf accuracy    <       0.01933054 Ry

     iteration # 13     ecut=    30.00 Ry     beta= 0.70
     Davidson diagonalization with overlap

---- Real-time Memory Report at c_bands before calling an iterative solver
           139 MiB given to the printing process from OS
             0 MiB allocation reported by mallinfo(arena+hblkhd)
        166441 MiB available memory on the node where the printing process lives
------------------
     ethr =  8.60E-06,  avg # of iterations =  1.0

     negative rho (up, down):  1.489E-01 0.000E+00

     total cpu time spent up to now is        1.3 secs

     total energy              =    -529.77385377 Ry
     estimated scf accuracy    <       0.00770142 Ry

     iteration # 14     ecut=    30.00 Ry     beta= 0.70
     Davidson diagonalization with overlap

---- Real-time Memory Report at c_bands before calling an iterative solver
           139 MiB given to the printing process from OS
             0 MiB allocation reported by mallinfo(arena+hblkhd)
        166441 MiB available memory on the node where the printing process lives
------------------
     ethr =  8.60E-06,  avg # of iterations =  1.0

     negative rho (up, down):  1.489E-01 0.000E+00

     total cpu time spent up to now is        1.3 secs

     total energy              =    -529.77380671 Ry
     estimated scf accuracy    <       0.00242210 Ry

     iteration # 15     ecut=    30.00 Ry     beta= 0.70
     Davidson diagonalization with overlap

---- Real-time Memory Report at c_bands before calling an iterative solver
           139 MiB given to the printing process from OS
             0 MiB allocation reported by mallinfo(arena+hblkhd)
        166442 MiB available memory on the node where the printing process lives
------------------
     ethr =  5.05E-06,  avg # of iterations =  1.0

     negative rho (up, down):  1.489E-01 0.000E+00

     total cpu time spent up to now is        1.4 secs

     total energy              =    -529.77382618 Ry
     estimated scf accuracy    <       0.00210497 Ry

     iteration # 16     ecut=    30.00 Ry     beta= 0.70
     Davidson diagonalization with overlap

---- Real-time Memory Report at c_bands before calling an iterative solver
           139 MiB given to the printing process from OS
             0 MiB allocation reported by mallinfo(arena+hblkhd)
        166442 MiB available memory on the node where the printing process lives
------------------
     ethr =  4.39E-06,  avg # of iterations =  1.0

     negative rho (up, down):  1.489E-01 0.000E+00

     total cpu time spent up to now is        1.4 secs

     total energy              =    -529.77385156 Ry
     estimated scf accuracy    <       0.00038703 Ry

     iteration # 17     ecut=    30.00 Ry     beta= 0.70
     Davidson diagonalization with overlap

---- Real-time Memory Report at c_bands before calling an iterative solver
           139 MiB given to the printing process from OS
             0 MiB allocation reported by mallinfo(arena+hblkhd)
        166442 MiB available memory on the node where the printing process lives
------------------
     ethr =  8.06E-07,  avg # of iterations =  1.0

     negative rho (up, down):  1.489E-01 0.000E+00

     total cpu time spent up to now is        1.4 secs

     total energy              =    -529.77385084 Ry
     estimated scf accuracy    <       0.00015293 Ry

     iteration # 18     ecut=    30.00 Ry     beta= 0.70
     Davidson diagonalization with overlap

---- Real-time Memory Report at c_bands before calling an iterative solver
           139 MiB given to the printing process from OS
             0 MiB allocation reported by mallinfo(arena+hblkhd)
        166442 MiB available memory on the node where the printing process lives
------------------
     ethr =  3.19E-07,  avg # of iterations =  1.0

     negative rho (up, down):  1.489E-01 0.000E+00

     total cpu time spent up to now is        1.5 secs

     total energy              =    -529.77385169 Ry
     estimated scf accuracy    <       0.00000767 Ry

     iteration # 19     ecut=    30.00 Ry     beta= 0.70
     Davidson diagonalization with overlap

---- Real-time Memory Report at c_bands before calling an iterative solver
           140 MiB given to the printing process from OS
             0 MiB allocation reported by mallinfo(arena+hblkhd)
        166442 MiB available memory on the node where the printing process lives
------------------
     ethr =  1.60E-08,  avg # of iterations =  2.0

     negative rho (up, down):  1.490E-01 0.000E+00

     total cpu time spent up to now is        1.5 secs

     End of self-consistent calculation

          k = 0.0000 0.0000 0.0000 (  1081 PWs)   bands (ev):

   -45.8863 -17.8162 -17.8162 -17.7071  -3.9674  -3.9493  -3.6049  -3.6048
    -3.5469  -2.1542  -2.1089  -2.0498  -2.0280  -2.0280  -1.8201  -1.7816
    -1.7816  -1.6040  -1.3723  -0.4628   4.4372   5.7651   7.1867   9.3641
     9.3641   9.5779   9.5779  10.3119  11.5617

     occupation numbers 
     1.0000   1.0000   1.0000   1.0000   1.0000   1.0000   1.0000   1.0000
     1.0000   1.0000   1.0000   1.0000   1.0000   1.0000   1.0000   1.0000
     1.0000   1.0000   1.0000   1.0000   1.0000   1.0000   1.0000   0.5010
     0.4990  -0.0000  -0.0000  -0.0000  -0.0000

     the Fermi energy is     9.3641 ev

!    total energy              =    -529.77385173 Ry
     estimated scf accuracy    <       0.00000040 Ry
     smearing contrib. (-TS)   =      -0.00056419 Ry
     internal energy E=F+TS    =    -529.77328754 Ry

     The total energy is F=E-TS. E is the sum of the following terms:
     one-electron contribution =    -150.10617880 Ry
     hartree contribution      =     108.78741456 Ry
     xc contribution           =    -200.77003845 Ry
     ewald contribution        =    -287.68448485 Ry

     convergence has been achieved in  19 iterations

     negative rho (up, down):  1.490E-01 0.000E+00

     Forces acting on atoms (cartesian axes, Ry/au):

     atom    1 type  1   force =     0.00000000    0.00000000    0.00000000
     atom    2 type  2   force =     0.00000000    0.00000000    0.00001489
     atom    3 type  2   force =     0.00000000    0.00000000   -0.00001489
     atom    4 type  2   force =     0.00000000    0.00000000    0.00000000
     The non-local contrib.  to forces
     atom    1 type  1   force =     0.00000000    0.00000000    0.00000000
     atom    2 type  2   force =     0.00000000    0.00000000    0.00001686
     atom    3 type  2   force =     0.00000000    0.00000000   -0.00001686
     atom    4 type  2   force =     0.00000000    0.00000000    0.00000000
     The ionic contribution  to forces
     atom    1 type  1   force =     0.00000000   -0.00000000   -0.00000000
     atom    2 type  2   force =     0.00000000    0.00000000    0.00000000
     atom    3 type  2   force =     0.00000000   -0.00000000    0.00000000
     atom    4 type  2   force =    -0.00000000    0.00000000   -0.00000000
     The local contribution  to forces
     atom    1 type  1   force =     0.00005756    0.00003021    0.00000072
     atom    2 type  2   force =    -0.00009817   -0.00009318   -0.00000711
     atom    3 type  2   force =    -0.00007045    0.00013754    0.00005451
     atom    4 type  2   force =     0.00001443    0.00005398   -0.00001031
     The core correction contribution to forces
     atom    1 type  1   force =     0.00000000    0.00000000    0.00000000
     atom    2 type  2   force =     0.00000262   -0.00000398    0.00000442
     atom    3 type  2   force =     0.00000299    0.00000745    0.00000574
     atom    4 type  2   force =    -0.00000731    0.00000280    0.00000346
     The Hubbard contrib.    to forces
     atom    1 type  1   force =     0.00000000    0.00000000    0.00000000
     atom    2 type  2   force =     0.00000000    0.00000000    0.00000000
     atom    3 type  2   force =     0.00000000    0.00000000    0.00000000
     atom    4 type  2   force =     0.00000000    0.00000000    0.00000000
     The SCF correction term to forces
     atom    1 type  1   force =    -0.00000105    0.00001857   -0.00000912
     atom    2 type  2   force =     0.00011704    0.00009964    0.00001183
     atom    3 type  2   force =     0.00007713   -0.00014062   -0.00004716
     atom    4 type  2   force =    -0.00006494   -0.00008055    0.00003169

     Total force =     0.000021     Total SCF correction =     0.000253
     SCF correction compared to forces is large: reduce conv_thr to get better values


     Computing stress (Cartesian axis) and pressure


     negative rho (up, down):  1.490E-01 0.000E+00
          total   stress  (Ry/bohr**3)                   (kbar)     P=      105.39
   0.00123968   0.00069627   0.00000000          182.36      102.43        0.00
   0.00069627   0.00069387   0.00000000          102.43      102.07        0.00
   0.00000000   0.00000000   0.00021577            0.00        0.00       31.74

     kinetic stress (kbar)   7015.69    122.25      0.00
                              122.25   6919.88      0.00
                                0.00      0.00   6836.41

     local   stress (kbar)   9231.91     74.66      0.01
                               74.66   9173.39     -0.03
                                0.01     -0.03   9119.55

     nonloc. stress (kbar)    557.03     47.69      0.00
                               47.69    519.59      0.00
                                0.00      0.00    488.19

     hartree stress (kbar)   6657.58    -37.16     -0.01
                              -37.16   6686.71      0.01
                               -0.01      0.01   6713.46

     exc-cor stress (kbar)  21235.19      1.35     -0.00
                                1.35  21234.13      0.00
                               -0.00      0.00  21233.24

     corecor stress (kbar) -26757.17     -3.46     -0.00
                               -3.46 -26754.45     -0.00
                               -0.00     -0.00 -26752.13

     ewald   stress (kbar) -17757.86   -102.92      0.00
                             -102.92 -17677.17      0.00
                                0.00      0.00 -17606.97

     hubbard stress (kbar)      0.00      0.00      0.00
                                0.00      0.00      0.00
                                0.00      0.00      0.00

     DFT-D   stress (kbar)      0.00      0.00      0.00
                                0.00      0.00      0.00
                                0.00      0.00      0.00

     XDM     stress (kbar)      0.00      0.00      0.00
                                0.00      0.00      0.00
                                0.00      0.00      0.00

     dft-nl  stress (kbar)      0.00      0.00      0.00
                                0.00      0.00      0.00
                                0.00      0.00      0.00

     TS-vdW  stress (kbar)      0.00      0.00      0.00
                                0.00      0.00      0.00
                                0.00      0.00      0.00


                                0.00      0.00      0.00
                                0.00      0.00      0.00


                                0.00      0.00      0.00


     Writing all to output data dir calculations/myprefix.save/
 
     init_run     :      0.59s CPU      0.65s WALL (       1 calls)
     electrons    :      0.60s CPU      0.66s WALL (       1 calls)
     forces       :      0.03s CPU      0.03s WALL (       1 calls)
     stress       :      0.07s CPU      0.07s WALL (       1 calls)

     Called by init_run:
     wfcinit      :      0.02s CPU      0.03s WALL (       1 calls)
     wfcinit:atom :      0.00s CPU      0.00s WALL (       1 calls)
     wfcinit:wfcr :      0.02s CPU      0.03s WALL (       1 calls)
     potinit      :      0.12s CPU      0.13s WALL (       1 calls)
     hinit0       :      0.43s CPU      0.47s WALL (       1 calls)

     Called by electrons:
     c_bands      :      0.29s CPU      0.30s WALL (      20 calls)
     sum_band     :      0.14s CPU      0.15s WALL (      20 calls)
     v_of_rho     :      0.07s CPU      0.08s WALL (      20 calls)
     v_h          :      0.00s CPU      0.00s WALL (      20 calls)
     v_xc         :      0.07s CPU      0.08s WALL (      22 calls)
     newd         :      0.09s CPU      0.09s WALL (      20 calls)
     mix_rho      :      0.01s CPU      0.02s WALL (      20 calls)

     Called by c_bands:
     init_us_2    :      0.00s CPU      0.00s WALL (      41 calls)
     init_us_2:cp :      0.00s CPU      0.00s WALL (      41 calls)
     regterg      :      0.28s CPU      0.30s WALL (      20 calls)

     Called by sum_band:
     sum_band:wei :      0.00s CPU      0.00s WALL (      20 calls)
     sum_band:loo :      0.03s CPU      0.04s WALL (      20 calls)
     sum_band:buf :      0.00s CPU      0.00s WALL (      20 calls)
     sum_band:ini :      0.00s CPU      0.00s WALL (      20 calls)
     sum_band:cal :      0.00s CPU      0.00s WALL (      20 calls)
     sum_band:bec :      0.00s CPU      0.00s WALL (      20 calls)
     addusdens    :      0.09s CPU      0.10s WALL (      20 calls)
     addusd:skk   :      0.00s CPU      0.00s WALL (      40 calls)
     addusd:dgemm :      0.03s CPU      0.03s WALL (      40 calls)
     addusd:qvan2 :      0.06s CPU      0.06s WALL (      40 calls)

     Called by *egterg:
     rdiaghg      :      0.13s CPU      0.14s WALL (      45 calls)
     regterg:over :      0.01s CPU      0.01s WALL (      26 calls)
     regterg:upda :      0.01s CPU      0.01s WALL (      26 calls)
     regterg:last :      0.01s CPU      0.01s WALL (      24 calls)
     rdiaghg:chol :      0.02s CPU      0.02s WALL (      45 calls)
     rdiaghg:inve :      0.00s CPU      0.00s WALL (      45 calls)
     rdiaghg:para :      0.01s CPU      0.01s WALL (      90 calls)
     h_psi        :      0.13s CPU      0.15s WALL (      47 calls)
     s_psi        :      0.00s CPU      0.00s WALL (      47 calls)
     g_psi        :      0.00s CPU      0.00s WALL (      26 calls)

     Called by h_psi:
     h_psi:calbec :      0.01s CPU      0.01s WALL (      47 calls)
     vloc_psi     :      0.12s CPU      0.13s WALL (      47 calls)
     add_vuspsi   :      0.00s CPU      0.00s WALL (      47 calls)

     General routines
     calbec       :      0.02s CPU      0.02s WALL (      72 calls)
     fft          :      0.43s CPU      0.46s WALL (     239 calls)
     ffts         :      0.11s CPU      0.11s WALL (      40 calls)
     fftw         :      0.14s CPU      0.16s WALL (    1574 calls)
     interpolate  :      0.11s CPU      0.11s WALL (      20 calls)
 
     Parallel routines
 
     PWSCF        :      1.47s CPU      1.99s WALL

 
   This run was terminated on:  21:29:14   4Mar2023            

=------------------------------------------------------------------------------=
   JOB DONE.
=------------------------------------------------------------------------------=
