
     Program PWSCF v.7.0 starts on  3Mar2023 at 13:31:42 

     This program is part of the open-source Quantum ESPRESSO suite
     for quantum simulation of materials; please cite
         "P. Giannozzi et al., J. Phys.:Condens. Matter 21 395502 (2009);
         "P. Giannozzi et al., J. Phys.:Condens. Matter 29 465901 (2017);
         "P. Giannozzi et al., J. Chem. Phys. 152 154105 (2020);
          URL http://www.quantum-espresso.org", 
     in publications or presentations arising from this work. More details at
     http://www.quantum-espresso.org/quote

     Parallel version (MPI & OpenMP), running on      32 processor cores
     Number of MPI processes:                32
     Threads/MPI process:                     1

     MPI processes distributed on     1 nodes
     R & G space division:  proc/nbgrp/npool/nimage =      32
     174304 MiB available memory on the printing compute node when the environment starts
 
     Reading input from espresso_443.pwi
Warning: card &CELL ignored
Warning: card / ignored

     Current dimensions of program PWSCF are:
     Max number of different atomic species (ntypx) = 10
     Max number of k-points (npk) =  40000
     Max angular momentum in pseudopotentials (lmaxx) =  4
     file O.pbe-n-kjpaw_psl.0.1.UPF: wavefunction(s)  2P renormalized

     gamma-point specific algorithms are used
     Message from routine setup:
     using ibrav=0 with symmetry is DISCOURAGED, use correct ibrav instead

     Subspace diagonalization in iterative solution of the eigenvalue problem:
     one sub-group per band group will be used
     scalapack distributed-memory algorithm (size of sub-group:  5*  5 procs)

 
     Parallelization info
     --------------------
     sticks:   dense  smooth     PW     G-vecs:    dense   smooth      PW
     Min          60      28      6                 1733      608      70
     Max          61      30      8                 1742      620      82
     Sum        1921     955    241                55657    19747    2445
 
     Using Slab Decomposition
 


     bravais-lattice index     =            0
     lattice parameter (alat)  =      10.7848  a.u.
     unit-cell volume          =     887.0070 (a.u.)^3
     number of atoms/cell      =           10
     number of atomic types    =            4
     number of electrons       =        90.00
     number of Kohn-Sham states=           54
     kinetic-energy cutoff     =      30.0000  Ry
     charge density cutoff     =     240.0000  Ry
     scf convergence threshold =      1.0E-06
     mixing beta               =       0.7000
     number of iterations used =            8  plain     mixing
     Exchange-correlation= SLA  PW   PBX  PBC
                           (   1   4   3   4   0   0   0)

     celldm(1)=  10.784848  celldm(2)=   0.000000  celldm(3)=   0.000000
     celldm(4)=   0.000000  celldm(5)=   0.000000  celldm(6)=   0.000000

     crystal axes: (cart. coord. in units of alat)
               a(1) = (   1.000000   0.000000   0.000000 )  
               a(2) = (   0.500000   0.866025   0.000000 )  
               a(3) = (   0.500000   0.288675   0.816497 )  

     reciprocal axes: (cart. coord. in units 2 pi/alat)
               b(1) = (  1.000000 -0.577350 -0.408248 )  
               b(2) = (  0.000000  1.154701 -0.408248 )  
               b(3) = (  0.000000  0.000000  1.224745 )  


     PseudoPot. # 1 for Sr read from file:
     /home/pragov/projects/rrg-bengioy-ad/pragov/crystal_structure_design/SSSP/Sr_pbe_v1.uspp.F.UPF
     MD5 check sum: 6b418c05fbe9db5448babca5e47b7a5b
     Pseudo is Ultrasoft + core correction, Zval = 10.0
     Generated by new atomic code, or converted to UPF format
     Using radial grid of  883 points,  6 beta functions with: 
                l(1) =   0
                l(2) =   0
                l(3) =   1
                l(4) =   1
                l(5) =   2
                l(6) =   2
     Q(r) pseudized with  6 coefficients,  rinner =    1.400   1.400   1.400
                                                       1.400   1.400

     PseudoPot. # 2 for Zn read from file:
     /home/pragov/projects/rrg-bengioy-ad/pragov/crystal_structure_design/SSSP/Zn_pbe_v1.uspp.F.UPF
     MD5 check sum: df62231357ef9e81f77b2b3087fa5675
     Pseudo is Ultrasoft, Zval = 20.0
     Generated by new atomic code, or converted to UPF format
     Using radial grid of  943 points,  6 beta functions with: 
                l(1) =   0
                l(2) =   0
                l(3) =   1
                l(4) =   1
                l(5) =   2
                l(6) =   2
     Q(r) pseudized with  8 coefficients,  rinner =    1.100   1.100   1.100
                                                       1.100   1.100

     PseudoPot. # 3 for W  read from file:
     /home/pragov/projects/rrg-bengioy-ad/pragov/crystal_structure_design/SSSP/W_pbe_v1.2.uspp.F.UPF
     MD5 check sum: 9c083fa34c2a2ea0f02f1f893e16e1c8
     Pseudo is Ultrasoft + core correction, Zval = 14.0
     Generated by new atomic code, or converted to UPF format
     Using radial grid of  923 points,  8 beta functions with: 
                l(1) =   0
                l(2) =   0
                l(3) =   0
                l(4) =   1
                l(5) =   1
                l(6) =   2
                l(7) =   2
                l(8) =   3
     Q(r) pseudized with  6 coefficients,  rinner =    1.350   1.350   1.350
                                                       1.350   1.350   1.350
                                                       1.350

     PseudoPot. # 4 for O  read from file:
     /home/pragov/projects/rrg-bengioy-ad/pragov/crystal_structure_design/SSSP/O.pbe-n-kjpaw_psl.0.1.UPF
     MD5 check sum: 0234752ac141de4415c5fc33072bef88
     Pseudo is Projector augmented-wave + core cor, Zval =  6.0
     Generated using "atomic" code by A. Dal Corso  v.5.0.99 svn rev. 10869
     Shape of augmentation charge: BESSEL
     Using radial grid of 1095 points,  4 beta functions with: 
                l(1) =   0
                l(2) =   0
                l(3) =   1
                l(4) =   1
     Q(r) pseudized with 0 coefficients 


     atomic species   valence    mass     pseudopotential
        Sr            10.00    87.62000     Sr( 1.00)
        Zn            20.00    65.38000     Zn( 1.00)
        W             14.00   183.84000     W ( 1.00)
        O              6.00    15.99900     O ( 1.00)

     12 Sym. Ops., with inversion, found


                                    s                        frac. trans.

      isym =  1     identity                                     

 cryst.   s( 1) = (     1          0          0      )
                  (     0          1          0      )
                  (     0          0          1      )

 cart.    s( 1) = (  1.0000000  0.0000000  0.0000000 )
                  (  0.0000000  1.0000000  0.0000000 )
                  (  0.0000000  0.0000000  1.0000000 )


      isym =  2     180 deg rotation - cart. axis [1,0,0]        

 cryst.   s( 2) = (     1          0          0      )
                  (     1         -1          0      )
                  (     1          0         -1      )

 cart.    s( 2) = (  1.0000000  0.0000000  0.0000000 )
                  (  0.0000000 -1.0000000 -0.0000000 )
                  (  0.0000000  0.0000000 -1.0000000 )


      isym =  3     120 deg rotation - cryst. axis [0,0,1]       

 cryst.   s( 3) = (    -1          1          0      )
                  (    -1          0          0      )
                  (    -1          0          1      )

 cart.    s( 3) = ( -0.5000000 -0.8660254 -0.0000000 )
                  (  0.8660254 -0.5000000 -0.0000000 )
                  (  0.0000000  0.0000000  1.0000000 )


      isym =  4     120 deg rotation - cryst. axis [0,0,-1]      

 cryst.   s( 4) = (     0         -1          0      )
                  (     1         -1          0      )
                  (     0         -1          1      )

 cart.    s( 4) = ( -0.5000000  0.8660254  0.0000000 )
                  ( -0.8660254 -0.5000000 -0.0000000 )
                  (  0.0000000  0.0000000  1.0000000 )


      isym =  5     180 deg rotation - cryst. axis [0,1,0]       

 cryst.   s( 5) = (     0         -1          0      )
                  (    -1          0          0      )
                  (     0          0         -1      )

 cart.    s( 5) = ( -0.5000000 -0.8660254 -0.0000000 )
                  ( -0.8660254  0.5000000  0.0000000 )
                  (  0.0000000  0.0000000 -1.0000000 )


      isym =  6     180 deg rotation - cryst. axis [1,1,0]       

 cryst.   s( 6) = (    -1          1          0      )
                  (     0          1          0      )
                  (     0          1         -1      )

 cart.    s( 6) = ( -0.5000000  0.8660254  0.0000000 )
                  (  0.8660254  0.5000000  0.0000000 )
                  (  0.0000000  0.0000000 -1.0000000 )


      isym =  7     inversion                                    

 cryst.   s( 7) = (    -1          0          0      )
                  (     0         -1          0      )
                  (     0          0         -1      )

 cart.    s( 7) = ( -1.0000000  0.0000000  0.0000000 )
                  (  0.0000000 -1.0000000 -0.0000000 )
                  (  0.0000000  0.0000000 -1.0000000 )


      isym =  8     inv. 180 deg rotation - cart. axis [1,0,0]   

 cryst.   s( 8) = (    -1          0          0      )
                  (    -1          1          0      )
                  (    -1          0          1      )

 cart.    s( 8) = ( -1.0000000  0.0000000  0.0000000 )
                  (  0.0000000  1.0000000  0.0000000 )
                  (  0.0000000  0.0000000  1.0000000 )


      isym =  9     inv. 120 deg rotation - cryst. axis [0,0,1]  

 cryst.   s( 9) = (     1         -1          0      )
                  (     1          0          0      )
                  (     1          0         -1      )

 cart.    s( 9) = (  0.5000000  0.8660254  0.0000000 )
                  ( -0.8660254  0.5000000  0.0000000 )
                  (  0.0000000  0.0000000 -1.0000000 )


      isym = 10     inv. 120 deg rotation - cryst. axis [0,0,-1] 

 cryst.   s(10) = (     0          1          0      )
                  (    -1          1          0      )
                  (     0          1         -1      )

 cart.    s(10) = (  0.5000000 -0.8660254 -0.0000000 )
                  (  0.8660254  0.5000000  0.0000000 )
                  (  0.0000000  0.0000000 -1.0000000 )


      isym = 11     inv. 180 deg rotation - cryst. axis [0,1,0]  

 cryst.   s(11) = (     0          1          0      )
                  (     1          0          0      )
                  (     0          0          1      )

 cart.    s(11) = (  0.5000000  0.8660254  0.0000000 )
                  (  0.8660254 -0.5000000 -0.0000000 )
                  (  0.0000000  0.0000000  1.0000000 )


      isym = 12     inv. 180 deg rotation - cryst. axis [1,1,0]  

 cryst.   s(12) = (     1         -1          0      )
                  (     0         -1          0      )
                  (     0         -1          1      )

 cart.    s(12) = (  0.5000000 -0.8660254 -0.0000000 )
                  ( -0.8660254 -0.5000000 -0.0000000 )
                  (  0.0000000  0.0000000  1.0000000 )


   Cartesian axes

     site n.     atom                  positions (alat units)
         1           Sr  tau(   1) = (   1.5000000   0.8660254   0.6123724  )
         2           Sr  tau(   2) = (   0.5000000   0.2886751   0.2041241  )
         3           Zn  tau(   3) = (   1.0000000   0.5773503   0.4082483  )
         4           W   tau(   4) = (   0.0000000   0.0000000   0.0000000  )
         5           O   tau(   5) = (   1.2589660   0.7268644   0.1968034  )
         6           O   tau(   6) = (   1.2589660   0.4278362   0.6196931  )
         7           O   tau(   7) = (   0.7410340   0.7268644   0.1968034  )
         8           O   tau(   8) = (   1.0000000   0.2783221   0.1968034  )
         9           O   tau(   9) = (   0.7410340   0.4278362   0.6196931  )
        10           O   tau(  10) = (   1.0000000   0.8763784   0.6196931  )

   Crystallographic axes

     site n.     atom                  positions (cryst. coord.)
         1           Sr  tau(   1) = (  0.7500000  0.7500000  0.7500000  )
         2           Sr  tau(   2) = (  0.2500000  0.2500000  0.2500000  )
         3           Zn  tau(   3) = (  0.5000000  0.5000000  0.5000000  )
         4           W   tau(   4) = (  0.0000000  0.0000000  0.0000000  )
         5           O   tau(   5) = (  0.7589660  0.7589660  0.2410340  )
         6           O   tau(   6) = (  0.7589660  0.2410340  0.7589660  )
         7           O   tau(   7) = (  0.2410340  0.7589660  0.2410340  )
         8           O   tau(   8) = (  0.7589660  0.2410340  0.2410340  )
         9           O   tau(   9) = (  0.2410340  0.2410340  0.7589660  )
        10           O   tau(  10) = (  0.2410340  0.7589660  0.7589660  )

     number of k points=     1  Methfessel-Paxton smearing, width (Ry)=  0.0010
                       cart. coord. in units 2pi/alat
        k(    1) = (   0.0000000   0.0000000   0.0000000), wk =   2.0000000

                       cryst. coord.
        k(    1) = (   0.0000000   0.0000000   0.0000000), wk =   2.0000000

     Dense  grid:    27829 G-vectors     FFT dimensions: (  54,  54,  54)

     Smooth grid:     9874 G-vectors     FFT dimensions: (  40,  40,  40)

     Dynamical RAM for                 wfc:       0.03 MB

     Dynamical RAM for     wfc (w. buffer):       0.03 MB

     Dynamical RAM for           str. fact:       0.05 MB

     Dynamical RAM for           local pot:       0.00 MB

     Dynamical RAM for          nlocal pot:       0.07 MB

     Dynamical RAM for                qrad:      11.94 MB

     Dynamical RAM for          rho,v,vnew:       0.17 MB

     Dynamical RAM for               rhoin:       0.06 MB

     Dynamical RAM for            rho*nmix:       0.21 MB

     Dynamical RAM for           G-vectors:       0.05 MB

     Dynamical RAM for          h,s,v(r/c):       0.01 MB

     Dynamical RAM for          <psi|beta>:       0.05 MB

     Dynamical RAM for                 psi:       0.06 MB

     Dynamical RAM for                hpsi:       0.06 MB

     Dynamical RAM for                spsi:       0.06 MB

     Dynamical RAM for      wfcinit/wfcrot:       0.22 MB

     Dynamical RAM for           addusdens:       5.10 MB

     Dynamical RAM for          addusforce:       5.29 MB

     Dynamical RAM for         addusstress:       5.38 MB

     Estimated static dynamical RAM per process >      12.67 MB

     Estimated max dynamical RAM per process >      18.27 MB

     Estimated total dynamical RAM >     584.62 MB

     Check: negative core charge=   -0.000012

     Initial potential from superposition of free atoms

     starting charge      89.8322, renormalised to      90.0000

     negative rho (up, down):  1.886E-01 0.000E+00
     Starting wfcs are   76 randomized atomic wfcs
     Checking if some PAW data can be deallocated... 
       PAW data deallocated on   14 nodes for type:  4

     total cpu time spent up to now is        1.1 secs

     Self-consistent Calculation

     iteration #  1     ecut=    30.00 Ry     beta= 0.70
     Davidson diagonalization with overlap

---- Real-time Memory Report at c_bands before calling an iterative solver
           148 MiB given to the printing process from OS
             0 MiB allocation reported by mallinfo(arena+hblkhd)
        173115 MiB available memory on the node where the printing process lives
------------------
     ethr =  1.00E-02,  avg # of iterations =  2.0

     negative rho (up, down):  1.877E-01 0.000E+00

     total cpu time spent up to now is        1.2 secs

     total energy              =   -1009.17151564 Ry
     estimated scf accuracy    <       3.49513694 Ry

     iteration #  2     ecut=    30.00 Ry     beta= 0.70
     Davidson diagonalization with overlap

---- Real-time Memory Report at c_bands before calling an iterative solver
           156 MiB given to the printing process from OS
             0 MiB allocation reported by mallinfo(arena+hblkhd)
        172978 MiB available memory on the node where the printing process lives
------------------
     ethr =  3.88E-03,  avg # of iterations =  5.0

     negative rho (up, down):  1.934E-01 0.000E+00

     total cpu time spent up to now is        1.3 secs

     total energy              =   -1007.38708632 Ry
     estimated scf accuracy    <      16.88252082 Ry

     iteration #  3     ecut=    30.00 Ry     beta= 0.70
     Davidson diagonalization with overlap

---- Real-time Memory Report at c_bands before calling an iterative solver
           157 MiB given to the printing process from OS
             0 MiB allocation reported by mallinfo(arena+hblkhd)
        172957 MiB available memory on the node where the printing process lives
------------------
     ethr =  3.88E-03,  avg # of iterations =  3.0

     negative rho (up, down):  1.940E-01 0.000E+00

     total cpu time spent up to now is        1.4 secs

     total energy              =   -1010.85021810 Ry
     estimated scf accuracy    <       1.15371973 Ry

     iteration #  4     ecut=    30.00 Ry     beta= 0.70
     Davidson diagonalization with overlap

---- Real-time Memory Report at c_bands before calling an iterative solver
           157 MiB given to the printing process from OS
             0 MiB allocation reported by mallinfo(arena+hblkhd)
        172957 MiB available memory on the node where the printing process lives
------------------
     ethr =  1.28E-03,  avg # of iterations =  2.0

     negative rho (up, down):  1.945E-01 0.000E+00

     total cpu time spent up to now is        1.5 secs

     total energy              =   -1010.90045978 Ry
     estimated scf accuracy    <       0.26643047 Ry

     iteration #  5     ecut=    30.00 Ry     beta= 0.70
     Davidson diagonalization with overlap

---- Real-time Memory Report at c_bands before calling an iterative solver
           158 MiB given to the printing process from OS
             0 MiB allocation reported by mallinfo(arena+hblkhd)
        172949 MiB available memory on the node where the printing process lives
------------------
     ethr =  2.96E-04,  avg # of iterations =  3.0

     negative rho (up, down):  1.948E-01 0.000E+00

     total cpu time spent up to now is        1.6 secs

     total energy              =   -1010.89971184 Ry
     estimated scf accuracy    <       0.06059508 Ry

     iteration #  6     ecut=    30.00 Ry     beta= 0.70
     Davidson diagonalization with overlap

---- Real-time Memory Report at c_bands before calling an iterative solver
           158 MiB given to the printing process from OS
             0 MiB allocation reported by mallinfo(arena+hblkhd)
        172948 MiB available memory on the node where the printing process lives
------------------
     ethr =  6.73E-05,  avg # of iterations =  3.0

     negative rho (up, down):  1.947E-01 0.000E+00

     total cpu time spent up to now is        1.7 secs

     total energy              =   -1010.91245028 Ry
     estimated scf accuracy    <       0.00230881 Ry

     iteration #  7     ecut=    30.00 Ry     beta= 0.70
     Davidson diagonalization with overlap

---- Real-time Memory Report at c_bands before calling an iterative solver
           158 MiB given to the printing process from OS
             0 MiB allocation reported by mallinfo(arena+hblkhd)
        172944 MiB available memory on the node where the printing process lives
------------------
     ethr =  2.57E-06,  avg # of iterations =  4.0

     negative rho (up, down):  1.946E-01 0.000E+00

     total cpu time spent up to now is        1.8 secs

     total energy              =   -1010.91267934 Ry
     estimated scf accuracy    <       0.00031703 Ry

     iteration #  8     ecut=    30.00 Ry     beta= 0.70
     Davidson diagonalization with overlap

---- Real-time Memory Report at c_bands before calling an iterative solver
           159 MiB given to the printing process from OS
             0 MiB allocation reported by mallinfo(arena+hblkhd)
        172942 MiB available memory on the node where the printing process lives
------------------
     ethr =  3.52E-07,  avg # of iterations =  3.0

     negative rho (up, down):  1.946E-01 0.000E+00

     total cpu time spent up to now is        1.8 secs

     total energy              =   -1010.91274782 Ry
     estimated scf accuracy    <       0.00000732 Ry

     iteration #  9     ecut=    30.00 Ry     beta= 0.70
     Davidson diagonalization with overlap

---- Real-time Memory Report at c_bands before calling an iterative solver
           159 MiB given to the printing process from OS
             0 MiB allocation reported by mallinfo(arena+hblkhd)
        172939 MiB available memory on the node where the printing process lives
------------------
     ethr =  8.14E-09,  avg # of iterations =  3.0

     negative rho (up, down):  1.946E-01 0.000E+00

     total cpu time spent up to now is        1.9 secs

     total energy              =   -1010.91274874 Ry
     estimated scf accuracy    <       0.00000276 Ry

     iteration # 10     ecut=    30.00 Ry     beta= 0.70
     Davidson diagonalization with overlap

---- Real-time Memory Report at c_bands before calling an iterative solver
           159 MiB given to the printing process from OS
             0 MiB allocation reported by mallinfo(arena+hblkhd)
        172937 MiB available memory on the node where the printing process lives
------------------
     ethr =  3.07E-09,  avg # of iterations =  2.0

     negative rho (up, down):  1.946E-01 0.000E+00

     total cpu time spent up to now is        2.0 secs

     End of self-consistent calculation

          k = 0.0000 0.0000 0.0000 (  1223 PWs)   bands (ev):

  -114.1102 -68.2244 -68.2244 -68.2244 -64.3764 -28.6095 -28.6095 -28.6095
   -24.3569 -24.3227  -7.5134  -6.4898  -6.4898  -6.4374  -6.4374  -6.4374
    -6.2767  -6.2767  -6.2767  -6.0472  -6.0471  -6.0471   4.0514   4.1090
     4.1090   4.7188   4.7188   4.7188   6.2878   6.2878   6.2878   6.9686
     6.9686   6.9686   7.4882   7.4882   9.0296   9.0296   9.0296   9.5472
     9.5472   9.5472  10.1944  10.1944  10.1945  13.0473  13.0473  13.0473
    14.5002  14.5248  14.5248  15.7257  15.7257  15.7257

     occupation numbers 
     1.0000   1.0000   1.0000   1.0000   1.0000   1.0000   1.0000   1.0000
     1.0000   1.0000   1.0000   1.0000   1.0000   1.0000   1.0000   1.0000
     1.0000   1.0000   1.0000   1.0000   1.0000   1.0000   1.0000   1.0000
     1.0000   1.0000   1.0000   1.0000   1.0000   1.0000   1.0000   1.0000
     1.0000   1.0000   1.0000   1.0000   1.0000   1.0000   1.0000   1.0000
     1.0000   1.0000   1.0000   1.0000   1.0000  -0.0000  -0.0000  -0.0000
    -0.0000  -0.0000  -0.0000  -0.0000  -0.0000  -0.0000

     the Fermi energy is    11.7959 ev

!    total energy              =   -1010.91274893 Ry
     estimated scf accuracy    <       0.00000031 Ry
     smearing contrib. (-TS)   =       0.00000000 Ry
     internal energy E=F+TS    =   -1010.91274893 Ry

     The total energy is F=E-TS. E is the sum of the following terms:
     one-electron contribution =    -572.63531406 Ry
     hartree contribution      =     334.75214015 Ry
     xc contribution           =    -165.25330213 Ry
     ewald contribution        =    -550.72653052 Ry
     one-center paw contrib.   =     -57.04974238 Ry
      -> PAW hartree energy AE =       0.00000000 Ry
      -> PAW hartree energy PS =       0.00000000 Ry
      -> PAW xc energy AE      =       0.00000000 Ry
      -> PAW xc energy PS      =       0.00000000 Ry
      -> total E_H with PAW    =     334.75214015 Ry
      -> total E_XC with PAW   =    -165.25330213 Ry

     convergence has been achieved in  10 iterations

     negative rho (up, down):  1.946E-01 0.000E+00

     Forces acting on atoms (cartesian axes, Ry/au):

     atom    1 type  1   force =    -0.00000000    0.00000000   -0.00000750
     atom    2 type  1   force =    -0.00000000    0.00000000    0.00000750
     atom    3 type  2   force =    -0.00000000    0.00000000    0.00000000
     atom    4 type  3   force =     0.00000000   -0.00000000   -0.00000000
     atom    5 type  4   force =     0.02631782    0.01519460   -0.02148810
     atom    6 type  4   force =     0.02631782   -0.01519460    0.02148810
     atom    7 type  4   force =    -0.02631782    0.01519460   -0.02148810
     atom    8 type  4   force =     0.00000000   -0.03038920   -0.02148810
     atom    9 type  4   force =    -0.02631782   -0.01519460    0.02148810
     atom   10 type  4   force =     0.00000000    0.03038920    0.02148810
     The non-local contrib.  to forces
     atom    1 type  1   force =     0.00000000    0.00000000   -0.00000205
     atom    2 type  1   force =    -0.00000000   -0.00000000    0.00000205
     atom    3 type  2   force =     0.00000000    0.00000000    0.00000000
     atom    4 type  3   force =     0.00000000   -0.00000000   -0.00000000
     atom    5 type  4   force =     0.18340585    0.10588942   -0.14975178
     atom    6 type  4   force =     0.18340585   -0.10588942    0.14975178
     atom    7 type  4   force =    -0.18340585    0.10588942   -0.14975178
     atom    8 type  4   force =    -0.00000000   -0.21177883   -0.14975178
     atom    9 type  4   force =    -0.18340585   -0.10588942    0.14975178
     atom   10 type  4   force =     0.00000000    0.21177883    0.14975178
     The ionic contribution  to forces
     atom    1 type  1   force =     0.00000000    0.00000000   -0.00000000
     atom    2 type  1   force =    -0.00000000   -0.00000000    0.00000000
     atom    3 type  2   force =    -0.00000000   -0.00000000    0.00000000
     atom    4 type  3   force =    -0.00000000    0.00000000   -0.00000000
     atom    5 type  4   force =     0.52681310    0.30415569   -0.43014110
     atom    6 type  4   force =     0.52681310   -0.30415569    0.43014110
     atom    7 type  4   force =    -0.52681310    0.30415569   -0.43014110
     atom    8 type  4   force =    -0.00000000   -0.60831137   -0.43014110
     atom    9 type  4   force =    -0.52681310   -0.30415569    0.43014110
     atom   10 type  4   force =     0.00000000    0.60831138    0.43014110
     The local contribution  to forces
     atom    1 type  1   force =     0.00002063   -0.00003127    0.00000606
     atom    2 type  1   force =    -0.00000844    0.00000308    0.00001385
     atom    3 type  2   force =     0.00002389    0.00009372   -0.00002340
     atom    4 type  3   force =    -0.00007750   -0.00005306    0.00000499
     atom    5 type  4   force =    -0.68356605   -0.39466382    0.55813350
     atom    6 type  4   force =    -0.68367578    0.39471904   -0.55821424
     atom    7 type  4   force =     0.68367186   -0.39472996    0.55825215
     atom    8 type  4   force =    -0.00000270    0.78947050    0.55823247
     atom    9 type  4   force =     0.68374937    0.39478572   -0.55830395
     atom   10 type  4   force =    -0.00003777   -0.78947220   -0.55822474
     The core correction contribution to forces
     atom    1 type  1   force =    -0.00000002   -0.00000162   -0.00000027
     atom    2 type  1   force =    -0.00000183    0.00000074   -0.00000073
     atom    3 type  2   force =     0.00000000    0.00000000    0.00000000
     atom    4 type  3   force =    -0.00000700   -0.00000534    0.00000268
     atom    5 type  4   force =    -0.00045814   -0.00026438    0.00037419
     atom    6 type  4   force =    -0.00045954    0.00026521   -0.00037510
     atom    7 type  4   force =     0.00045916   -0.00026527    0.00037525
     atom    8 type  4   force =    -0.00000019    0.00053068    0.00037526
     atom    9 type  4   force =     0.00046045    0.00026583   -0.00037607
     atom   10 type  4   force =    -0.00000027   -0.00053048   -0.00037502
     The Hubbard contrib.    to forces
     atom    1 type  1   force =     0.00000000    0.00000000    0.00000000
     atom    2 type  1   force =     0.00000000    0.00000000    0.00000000
     atom    3 type  2   force =     0.00000000    0.00000000    0.00000000
     atom    4 type  3   force =     0.00000000    0.00000000    0.00000000
     atom    5 type  4   force =     0.00000000    0.00000000    0.00000000
     atom    6 type  4   force =     0.00000000    0.00000000    0.00000000
     atom    7 type  4   force =     0.00000000    0.00000000    0.00000000
     atom    8 type  4   force =     0.00000000    0.00000000    0.00000000
     atom    9 type  4   force =     0.00000000    0.00000000    0.00000000
     atom   10 type  4   force =     0.00000000    0.00000000    0.00000000
     The SCF correction term to forces
     atom    1 type  1   force =    -0.00002517    0.00002842   -0.00000578
     atom    2 type  1   force =     0.00000800   -0.00000003   -0.00000221
     atom    3 type  2   force =     0.00004410   -0.00006394   -0.00003485
     atom    4 type  3   force =     0.00004495    0.00003149    0.00003010
     atom    5 type  4   force =     0.00020074    0.00012578   -0.00016392
     atom    6 type  4   force =     0.00022185   -0.00014219    0.00018951
     atom    7 type  4   force =    -0.00024175    0.00013407   -0.00022031
     atom    8 type  4   force =    -0.00000788   -0.00029542   -0.00018535
     atom    9 type  4   force =    -0.00023964   -0.00017237    0.00021838
     atom   10 type  4   force =     0.00003069    0.00029077    0.00020585

     Total force =     0.091167     Total SCF correction =     0.000843


     Computing stress (Cartesian axis) and pressure


     negative rho (up, down):  1.946E-01 0.000E+00
          total   stress  (Ry/bohr**3)                   (kbar)     P=     -338.19
  -0.00229899   0.00000000  -0.00000000         -338.19        0.00       -0.00
   0.00000000  -0.00229899  -0.00000000            0.00     -338.19       -0.00
   0.00000000  -0.00000000  -0.00229901            0.00       -0.00     -338.20

     kinetic stress (kbar)  25717.21     -0.00     -0.00
                               -0.00  25717.21      0.00
                               -0.00      0.00  25717.21

     local   stress (kbar)  -9847.02     -0.00      0.00
                               -0.00  -9847.04     -0.02
                                0.00     -0.02  -9847.04

     nonloc. stress (kbar)   3037.42      0.00     -0.00
                                0.00   3037.42      0.00
                                0.00      0.00   3037.42

     hartree stress (kbar)  18505.57      0.00     -0.00
                                0.00  18505.59      0.02
                               -0.00      0.02  18505.58

     exc-cor stress (kbar)    768.36      0.00      0.00
                                0.00    768.36     -0.00
                                0.00     -0.00    768.36

     corecor stress (kbar)  -8074.77     -0.00     -0.00
                               -0.00  -8074.77      0.00
                               -0.00      0.00  -8074.77

     ewald   stress (kbar) -30444.96     -0.00      0.00
                               -0.00 -30444.96      0.00
                                0.00      0.00 -30444.96

     hubbard stress (kbar)      0.00      0.00      0.00
                                0.00      0.00      0.00
                                0.00      0.00      0.00

     DFT-D   stress (kbar)      0.00      0.00      0.00
                                0.00      0.00      0.00
                                0.00      0.00      0.00

     XDM     stress (kbar)      0.00      0.00      0.00
                                0.00      0.00      0.00
                                0.00      0.00      0.00

     dft-nl  stress (kbar)      0.00      0.00      0.00
                                0.00      0.00      0.00
                                0.00      0.00      0.00

     TS-vdW  stress (kbar)      0.00      0.00      0.00
                                0.00      0.00      0.00
                                0.00      0.00      0.00


                                0.00      0.00      0.00
                                0.00      0.00      0.00


                                0.00      0.00      0.00


     Writing all to output data dir calculations/myprefix.save/
 
     init_run     :      0.66s CPU      0.70s WALL (       1 calls)
     electrons    :      0.82s CPU      0.90s WALL (       1 calls)
     forces       :      0.05s CPU      0.05s WALL (       1 calls)
     stress       :      0.14s CPU      0.14s WALL (       1 calls)

     Called by init_run:
     wfcinit      :      0.02s CPU      0.03s WALL (       1 calls)
     wfcinit:atom :      0.00s CPU      0.00s WALL (       1 calls)
     wfcinit:wfcr :      0.02s CPU      0.03s WALL (       1 calls)
     potinit      :      0.32s CPU      0.32s WALL (       1 calls)
     hinit0       :      0.29s CPU      0.31s WALL (       1 calls)

     Called by electrons:
     c_bands      :      0.32s CPU      0.33s WALL (      10 calls)
     sum_band     :      0.16s CPU      0.19s WALL (      10 calls)
     v_of_rho     :      0.03s CPU      0.04s WALL (      11 calls)
     v_h          :      0.00s CPU      0.00s WALL (      11 calls)
     v_xc         :      0.04s CPU      0.04s WALL (      13 calls)
     newd         :      0.14s CPU      0.17s WALL (      11 calls)
     PAW_pot      :      0.18s CPU      0.18s WALL (      11 calls)
     mix_rho      :      0.01s CPU      0.01s WALL (      10 calls)

     Called by c_bands:
     init_us_2    :      0.00s CPU      0.00s WALL (      21 calls)
     init_us_2:cp :      0.00s CPU      0.00s WALL (      21 calls)
     regterg      :      0.31s CPU      0.32s WALL (      10 calls)

     Called by sum_band:
     sum_band:wei :      0.00s CPU      0.00s WALL (      10 calls)
     sum_band:loo :      0.02s CPU      0.03s WALL (      10 calls)
     sum_band:buf :      0.00s CPU      0.00s WALL (      10 calls)
     sum_band:ini :      0.00s CPU      0.00s WALL (      10 calls)
     sum_band:cal :      0.00s CPU      0.00s WALL (      10 calls)
     sum_band:bec :      0.00s CPU      0.00s WALL (      10 calls)
     addusdens    :      0.13s CPU      0.16s WALL (      10 calls)
     addusd:skk   :      0.00s CPU      0.00s WALL (      40 calls)
     addusd:dgemm :      0.03s CPU      0.05s WALL (      40 calls)
     addusd:qvan2 :      0.09s CPU      0.10s WALL (      40 calls)

     Called by *egterg:
     rdiaghg      :      0.17s CPU      0.18s WALL (      40 calls)
     regterg:over :      0.02s CPU      0.02s WALL (      30 calls)
     regterg:upda :      0.01s CPU      0.01s WALL (      30 calls)
     regterg:last :      0.01s CPU      0.01s WALL (      20 calls)
     rdiaghg:chol :      0.01s CPU      0.01s WALL (      40 calls)
     rdiaghg:inve :      0.00s CPU      0.00s WALL (      40 calls)
     rdiaghg:para :      0.01s CPU      0.01s WALL (      80 calls)
     h_psi        :      0.11s CPU      0.12s WALL (      41 calls)
     s_psi        :      0.00s CPU      0.00s WALL (      41 calls)
     g_psi        :      0.00s CPU      0.00s WALL (      30 calls)

     Called by h_psi:
     h_psi:calbec :      0.01s CPU      0.01s WALL (      41 calls)
     vloc_psi     :      0.10s CPU      0.11s WALL (      41 calls)
     add_vuspsi   :      0.00s CPU      0.00s WALL (      41 calls)

     General routines
     calbec       :      0.01s CPU      0.02s WALL (      56 calls)
     fft          :      0.21s CPU      0.22s WALL (     139 calls)
     ffts         :      0.28s CPU      0.28s WALL (      21 calls)
     fftw         :      0.11s CPU      0.12s WALL (    1660 calls)
     interpolate  :      0.28s CPU      0.28s WALL (      11 calls)
 
     Parallel routines

     PAW routines
     PAW_pot      :      0.18s CPU      0.18s WALL (      11 calls)
     PAW_symme    :      0.00s CPU      0.00s WALL (      21 calls)
 
     PWSCF        :      2.03s CPU      2.52s WALL

 
   This run was terminated on:  13:31:44   3Mar2023            

=------------------------------------------------------------------------------=
   JOB DONE.
=------------------------------------------------------------------------------=
