
     Program PWSCF v.7.0 starts on  4Mar2023 at 22:26:49 

     This program is part of the open-source Quantum ESPRESSO suite
     for quantum simulation of materials; please cite
         "P. Giannozzi et al., J. Phys.:Condens. Matter 21 395502 (2009);
         "P. Giannozzi et al., J. Phys.:Condens. Matter 29 465901 (2017);
         "P. Giannozzi et al., J. Chem. Phys. 152 154105 (2020);
          URL http://www.quantum-espresso.org", 
     in publications or presentations arising from this work. More details at
     http://www.quantum-espresso.org/quote

     Parallel version (MPI & OpenMP), running on      32 processor cores
     Number of MPI processes:                32
     Threads/MPI process:                     1

     MPI processes distributed on     1 nodes
     R & G space division:  proc/nbgrp/npool/nimage =      32
     167158 MiB available memory on the printing compute node when the environment starts
 
     Reading input from espresso_7905.pwi
Warning: card &CELL ignored
Warning: card / ignored

     Current dimensions of program PWSCF are:
     Max number of different atomic species (ntypx) = 10
     Max number of k-points (npk) =  40000
     Max angular momentum in pseudopotentials (lmaxx) =  4
     file In.pbe-dn-rrkjus_psl.0.2.2.UPF: wavefunction(s)  5S renormalized
     file O.pbe-n-kjpaw_psl.0.1.UPF: wavefunction(s)  2P renormalized

     gamma-point specific algorithms are used
     Message from routine setup:
     using ibrav=0 with symmetry is DISCOURAGED, use correct ibrav instead

     Subspace diagonalization in iterative solution of the eigenvalue problem:
     one sub-group per band group will be used
     scalapack distributed-memory algorithm (size of sub-group:  5*  5 procs)

 
     Parallelization info
     --------------------
     sticks:   dense  smooth     PW     G-vecs:    dense   smooth      PW
     Min          41      20      4                  758      264      30
     Max          44      22      6                  762      268      38
     Sum        1357     677    171                24331     8505    1075
 
     Using Slab Decomposition
 


     bravais-lattice index     =            0
     lattice parameter (alat)  =      11.6175  a.u.
     unit-cell volume          =     385.9738 (a.u.)^3
     number of atoms/cell      =            4
     number of atomic types    =            3
     number of electrons       =        44.00
     number of Kohn-Sham states=           26
     kinetic-energy cutoff     =      30.0000  Ry
     charge density cutoff     =     240.0000  Ry
     scf convergence threshold =      1.0E-06
     mixing beta               =       0.7000
     number of iterations used =            8  plain     mixing
     Exchange-correlation= SLA  PW   PBX  PBC
                           (   1   4   3   4   0   0   0)

     celldm(1)=  11.617526  celldm(2)=   0.000000  celldm(3)=   0.000000
     celldm(4)=   0.000000  celldm(5)=   0.000000  celldm(6)=   0.000000

     crystal axes: (cart. coord. in units of alat)
               a(1) = (   1.000000   0.000000   0.000000 )  
               a(2) = (   0.850203   0.526455   0.000000 )  
               a(3) = (   0.850203   0.241916   0.467580 )  

     reciprocal axes: (cart. coord. in units 2 pi/alat)
               b(1) = (  1.000000 -1.614960 -0.982760 )  
               b(2) = (  0.000000  1.899499 -0.982760 )  
               b(3) = (  0.000000  0.000000  2.138671 )  


     PseudoPot. # 1 for In read from file:
     /home/pragov/projects/rrg-bengioy-ad/pragov/crystal_structure_design/SSSP/In.pbe-dn-rrkjus_psl.0.2.2.UPF
     MD5 check sum: 25e7c42c3b55b68f4bf926be2e7201a4
     Pseudo is Ultrasoft + core correction, Zval = 13.0
     Generated using "atomic" code by A. Dal Corso  v.5.0.99 svn rev. 10869
     Using radial grid of 1241 points,  6 beta functions with: 
                l(1) =   0
                l(2) =   0
                l(3) =   1
                l(4) =   1
                l(5) =   2
                l(6) =   2
     Q(r) pseudized with 0 coefficients 


     PseudoPot. # 2 for Cu read from file:
     /home/pragov/projects/rrg-bengioy-ad/pragov/crystal_structure_design/SSSP/Cu_pbe_v1.2.uspp.F.UPF
     MD5 check sum: 6e991ff952a84172a2a52a1c1e996048
     Pseudo is Ultrasoft + core correction, Zval = 19.0
     Generated by new atomic code, or converted to UPF format
     Using radial grid of  867 points,  6 beta functions with: 
                l(1) =   0
                l(2) =   0
                l(3) =   1
                l(4) =   1
                l(5) =   2
                l(6) =   2
     Q(r) pseudized with  8 coefficients,  rinner =    1.150   1.150   1.150
                                                       1.150   1.150

     PseudoPot. # 3 for O  read from file:
     /home/pragov/projects/rrg-bengioy-ad/pragov/crystal_structure_design/SSSP/O.pbe-n-kjpaw_psl.0.1.UPF
     MD5 check sum: 0234752ac141de4415c5fc33072bef88
     Pseudo is Projector augmented-wave + core cor, Zval =  6.0
     Generated using "atomic" code by A. Dal Corso  v.5.0.99 svn rev. 10869
     Shape of augmentation charge: BESSEL
     Using radial grid of 1095 points,  4 beta functions with: 
                l(1) =   0
                l(2) =   0
                l(3) =   1
                l(4) =   1
     Q(r) pseudized with 0 coefficients 


     atomic species   valence    mass     pseudopotential
        In            13.00   114.81800     In( 1.00)
        Cu            19.00    63.54600     Cu( 1.00)
        O              6.00    15.99900     O ( 1.00)

      2 Sym. Ops., with inversion, found


                                    s                        frac. trans.

      isym =  1     identity                                     

 cryst.   s( 1) = (     1          0          0      )
                  (     0          1          0      )
                  (     0          0          1      )

 cart.    s( 1) = (  1.0000000 -0.0000000 -0.0000000 )
                  (  0.0000000  1.0000000  0.0000000 )
                  (  0.0000000  0.0000000  1.0000000 )


      isym =  2     inversion                                    

 cryst.   s( 2) = (    -1          0          0      )
                  (     0         -1          0      )
                  (     0          0         -1      )

 cart.    s( 2) = ( -1.0000000  0.0000000  0.0000000 )
                  (  0.0000000 -1.0000000 -0.0000000 )
                  (  0.0000000  0.0000000 -1.0000000 )


   Cartesian axes

     site n.     atom                  positions (alat units)
         1           In  tau(   1) = (   1.3502033   0.3841852   0.2337900  )
         2           Cu  tau(   2) = (   0.0000000   0.0000000   0.0000000  )
         3           O   tau(   3) = (   2.4145253   0.6870261   0.4180792  )
         4           O   tau(   4) = (   0.2858812   0.0813443   0.0495008  )

   Crystallographic axes

     site n.     atom                  positions (cryst. coord.)
         1           In  tau(   1) = (  0.5000000  0.5000000  0.5000000  )
         2           Cu  tau(   2) = (  0.0000000  0.0000000  0.0000000  )
         3           O   tau(   3) = (  0.8941340  0.8941340  0.8941340  )
         4           O   tau(   4) = (  0.1058660  0.1058660  0.1058660  )

     number of k points=     1  Methfessel-Paxton smearing, width (Ry)=  0.0010
                       cart. coord. in units 2pi/alat
        k(    1) = (   0.0000000   0.0000000   0.0000000), wk =   2.0000000

                       cryst. coord.
        k(    1) = (   0.0000000   0.0000000   0.0000000), wk =   2.0000000

     Dense  grid:    12166 G-vectors     FFT dimensions: (  60,  60,  60)

     Smooth grid:     4253 G-vectors     FFT dimensions: (  45,  45,  45)

     Dynamical RAM for                 wfc:       0.01 MB

     Dynamical RAM for     wfc (w. buffer):       0.01 MB

     Dynamical RAM for           str. fact:       0.02 MB

     Dynamical RAM for           local pot:       0.00 MB

     Dynamical RAM for          nlocal pot:       0.01 MB

     Dynamical RAM for                qrad:       3.73 MB

     Dynamical RAM for          rho,v,vnew:       0.18 MB

     Dynamical RAM for               rhoin:       0.06 MB

     Dynamical RAM for            rho*nmix:       0.09 MB

     Dynamical RAM for           G-vectors:       0.02 MB

     Dynamical RAM for          h,s,v(r/c):       0.00 MB

     Dynamical RAM for          <psi|beta>:       0.01 MB

     Dynamical RAM for                 psi:       0.01 MB

     Dynamical RAM for                hpsi:       0.01 MB

     Dynamical RAM for                spsi:       0.01 MB

     Dynamical RAM for      wfcinit/wfcrot:       0.04 MB

     Dynamical RAM for           addusdens:       1.09 MB

     Dynamical RAM for          addusforce:       1.11 MB

     Dynamical RAM for         addusstress:       1.17 MB

     Estimated static dynamical RAM per process >       4.33 MB

     Estimated max dynamical RAM per process >       5.59 MB

     Estimated total dynamical RAM >     178.90 MB

     Check: negative core charge=   -0.000008

     Initial potential from superposition of free atoms

     starting charge      42.9963, renormalised to      44.0000
     Starting wfcs are   30 randomized atomic wfcs
     Checking if some PAW data can be deallocated... 
       PAW data deallocated on   16 nodes for type:  3

     total cpu time spent up to now is        0.9 secs

     Self-consistent Calculation

     iteration #  1     ecut=    30.00 Ry     beta= 0.70
     Davidson diagonalization with overlap

---- Real-time Memory Report at c_bands before calling an iterative solver
           129 MiB given to the printing process from OS
             0 MiB allocation reported by mallinfo(arena+hblkhd)
        166391 MiB available memory on the node where the printing process lives
------------------
     ethr =  1.00E-02,  avg # of iterations =  2.0

     total cpu time spent up to now is        1.0 secs

     total energy              =    -630.79269433 Ry
     estimated scf accuracy    <       1.47356037 Ry

     iteration #  2     ecut=    30.00 Ry     beta= 0.70
     Davidson diagonalization with overlap

---- Real-time Memory Report at c_bands before calling an iterative solver
           134 MiB given to the printing process from OS
             0 MiB allocation reported by mallinfo(arena+hblkhd)
        166339 MiB available memory on the node where the printing process lives
------------------
     ethr =  3.35E-03,  avg # of iterations =  5.0

     total cpu time spent up to now is        1.0 secs

     total energy              =    -630.72801885 Ry
     estimated scf accuracy    <       2.25255230 Ry

     iteration #  3     ecut=    30.00 Ry     beta= 0.70
     Davidson diagonalization with overlap

---- Real-time Memory Report at c_bands before calling an iterative solver
           136 MiB given to the printing process from OS
             0 MiB allocation reported by mallinfo(arena+hblkhd)
        166335 MiB available memory on the node where the printing process lives
------------------
     ethr =  3.35E-03,  avg # of iterations =  2.0

     total cpu time spent up to now is        1.1 secs

     total energy              =    -631.17481837 Ry
     estimated scf accuracy    <       2.30885061 Ry

     iteration #  4     ecut=    30.00 Ry     beta= 0.70
     Davidson diagonalization with overlap

---- Real-time Memory Report at c_bands before calling an iterative solver
           137 MiB given to the printing process from OS
             0 MiB allocation reported by mallinfo(arena+hblkhd)
        166335 MiB available memory on the node where the printing process lives
------------------
     ethr =  3.35E-03,  avg # of iterations =  2.0

     total cpu time spent up to now is        1.1 secs

     total energy              =    -631.38478710 Ry
     estimated scf accuracy    <       0.22415600 Ry

     iteration #  5     ecut=    30.00 Ry     beta= 0.70
     Davidson diagonalization with overlap

---- Real-time Memory Report at c_bands before calling an iterative solver
           137 MiB given to the printing process from OS
             0 MiB allocation reported by mallinfo(arena+hblkhd)
        166335 MiB available memory on the node where the printing process lives
------------------
     ethr =  5.09E-04,  avg # of iterations =  2.0

     total cpu time spent up to now is        1.2 secs

     total energy              =    -631.39886078 Ry
     estimated scf accuracy    <       0.04082072 Ry

     iteration #  6     ecut=    30.00 Ry     beta= 0.70
     Davidson diagonalization with overlap

---- Real-time Memory Report at c_bands before calling an iterative solver
           138 MiB given to the printing process from OS
             0 MiB allocation reported by mallinfo(arena+hblkhd)
        166335 MiB available memory on the node where the printing process lives
------------------
     ethr =  9.28E-05,  avg # of iterations =  2.0

     total cpu time spent up to now is        1.2 secs

     total energy              =    -631.39603561 Ry
     estimated scf accuracy    <       0.01524688 Ry

     iteration #  7     ecut=    30.00 Ry     beta= 0.70
     Davidson diagonalization with overlap

---- Real-time Memory Report at c_bands before calling an iterative solver
           138 MiB given to the printing process from OS
             0 MiB allocation reported by mallinfo(arena+hblkhd)
        166335 MiB available memory on the node where the printing process lives
------------------
     ethr =  3.47E-05,  avg # of iterations =  2.0

     total cpu time spent up to now is        1.2 secs

     total energy              =    -631.39819127 Ry
     estimated scf accuracy    <       0.00052289 Ry

     iteration #  8     ecut=    30.00 Ry     beta= 0.70
     Davidson diagonalization with overlap

---- Real-time Memory Report at c_bands before calling an iterative solver
           139 MiB given to the printing process from OS
             0 MiB allocation reported by mallinfo(arena+hblkhd)
        166335 MiB available memory on the node where the printing process lives
------------------
     ethr =  1.19E-06,  avg # of iterations =  4.0

     total cpu time spent up to now is        1.3 secs

     total energy              =    -631.39831872 Ry
     estimated scf accuracy    <       0.00028700 Ry

     iteration #  9     ecut=    30.00 Ry     beta= 0.70
     Davidson diagonalization with overlap

---- Real-time Memory Report at c_bands before calling an iterative solver
           139 MiB given to the printing process from OS
             0 MiB allocation reported by mallinfo(arena+hblkhd)
        166335 MiB available memory on the node where the printing process lives
------------------
     ethr =  6.52E-07,  avg # of iterations =  2.0

     total cpu time spent up to now is        1.3 secs

     total energy              =    -631.39835725 Ry
     estimated scf accuracy    <       0.00002858 Ry

     iteration # 10     ecut=    30.00 Ry     beta= 0.70
     Davidson diagonalization with overlap

---- Real-time Memory Report at c_bands before calling an iterative solver
           139 MiB given to the printing process from OS
             0 MiB allocation reported by mallinfo(arena+hblkhd)
        166335 MiB available memory on the node where the printing process lives
------------------
     ethr =  6.50E-08,  avg # of iterations =  3.0

     total cpu time spent up to now is        1.4 secs

     total energy              =    -631.39836090 Ry
     estimated scf accuracy    <       0.00000269 Ry

     iteration # 11     ecut=    30.00 Ry     beta= 0.70
     Davidson diagonalization with overlap

---- Real-time Memory Report at c_bands before calling an iterative solver
           139 MiB given to the printing process from OS
             0 MiB allocation reported by mallinfo(arena+hblkhd)
        166332 MiB available memory on the node where the printing process lives
------------------
     ethr =  6.12E-09,  avg # of iterations =  4.0

     total cpu time spent up to now is        1.4 secs

     End of self-consistent calculation

          k = 0.0000 0.0000 0.0000 (   538 PWs)   bands (ev):

  -103.6618 -61.5127 -60.7406 -60.7394  -9.6441  -8.2052  -6.4916  -6.4915
    -6.4102  -6.2545  -6.2544   2.3221   5.8113   5.9329   5.9336   6.2652
     6.8767   6.8767   7.0679   7.0687   8.3851   8.3858   8.6830  12.9946
    14.2157  19.1313

     occupation numbers 
     1.0000   1.0000   1.0000   1.0000   1.0000   1.0000   1.0000   1.0000
     1.0000   1.0000   1.0000   1.0000   1.0000   1.0000   1.0000   1.0000
     1.0000   1.0000   1.0000   1.0000   1.0000   1.0000  -0.0000  -0.0000
    -0.0000  -0.0000

     the Fermi energy is     8.4510 ev

!    total energy              =    -631.39836147 Ry
     estimated scf accuracy    <       0.00000042 Ry
     smearing contrib. (-TS)   =       0.00000000 Ry
     internal energy E=F+TS    =    -631.39836147 Ry

     The total energy is F=E-TS. E is the sum of the following terms:
     one-electron contribution =    -415.63886519 Ry
     hartree contribution      =     235.68531345 Ry
     xc contribution           =    -101.50605621 Ry
     ewald contribution        =    -330.97674046 Ry
     one-center paw contrib.   =     -18.96201305 Ry
      -> PAW hartree energy AE =       0.00000000 Ry
      -> PAW hartree energy PS =       0.00000000 Ry
      -> PAW xc energy AE      =       0.00000000 Ry
      -> PAW xc energy PS      =       0.00000000 Ry
      -> total E_H with PAW    =     235.68531345 Ry
      -> total E_XC with PAW   =    -101.50605621 Ry

     convergence has been achieved in  11 iterations

     Forces acting on atoms (cartesian axes, Ry/au):

     atom    1 type  1   force =     0.00000000    0.00000000    0.00000000
     atom    2 type  2   force =     0.00000000    0.00000000    0.00000000
     atom    3 type  3   force =     0.00926264    0.00260029    0.00156019
     atom    4 type  3   force =    -0.00926264   -0.00260029   -0.00156019
     The non-local contrib.  to forces
     atom    1 type  1   force =     0.00000000    0.00000000    0.00000000
     atom    2 type  2   force =     0.00000000    0.00000000    0.00000000
     atom    3 type  3   force =     0.06889647    0.01877765    0.01082080
     atom    4 type  3   force =    -0.06889647   -0.01877765   -0.01082080
     The ionic contribution  to forces
     atom    1 type  1   force =     0.00000000    0.00000000   -0.00000000
     atom    2 type  2   force =    -0.00000000   -0.00000000    0.00000000
     atom    3 type  3   force =    -5.03373211   -1.43229194   -0.87159938
     atom    4 type  3   force =     5.03373211    1.43229194    0.87159938
     The local contribution  to forces
     atom    1 type  1   force =    -0.00035950   -0.00006676   -0.00005296
     atom    2 type  2   force =     0.00055654    0.00010045    0.00009855
     atom    3 type  3   force =     4.97652734    1.41737473    0.86338734
     atom    4 type  3   force =    -4.97624504   -1.41687141   -0.86299825
     The core correction contribution to forces
     atom    1 type  1   force =    -0.00000361    0.00000275    0.00000055
     atom    2 type  2   force =    -0.00000032    0.00000002    0.00000009
     atom    3 type  3   force =    -0.00154809   -0.00042525   -0.00024902
     atom    4 type  3   force =     0.00155327    0.00043101    0.00025347
     The Hubbard contrib.    to forces
     atom    1 type  1   force =     0.00000000    0.00000000    0.00000000
     atom    2 type  2   force =     0.00000000    0.00000000    0.00000000
     atom    3 type  3   force =     0.00000000    0.00000000    0.00000000
     atom    4 type  3   force =     0.00000000    0.00000000    0.00000000
     The SCF correction term to forces
     atom    1 type  1   force =     0.00033823    0.00009505    0.00004770
     atom    2 type  2   force =    -0.00046914   -0.00014952   -0.00011045
     atom    3 type  3   force =    -0.00070527   -0.00067729   -0.00068167
     atom    4 type  3   force =     0.00076919    0.00048346    0.00052388

     Total force =     0.013783     Total SCF correction =     0.001703
     SCF correction compared to forces is large: reduce conv_thr to get better values


     Computing stress (Cartesian axis) and pressure

          total   stress  (Ry/bohr**3)                   (kbar)     P=     -487.66
  -0.00380562  -0.00022164  -0.00013490         -559.83      -32.60      -19.85
  -0.00022164  -0.00308944  -0.00003764          -32.60     -454.47       -5.54
  -0.00013490  -0.00003764  -0.00305010          -19.85       -5.54     -448.68

     kinetic stress (kbar)  25896.06   -522.21   -317.82
                             -522.21  27582.34    -90.45
                             -317.82    -90.45  27676.01

     local   stress (kbar) -35654.17  -8623.65  -5247.51
                            -8623.65  -7799.52  -1492.61
                            -5247.51  -1492.61  -6254.92

     nonloc. stress (kbar)  10426.84    -56.25    -34.34
                              -56.25  10608.57     -9.94
                              -34.34     -9.94  10618.77

     hartree stress (kbar)  37832.53   3565.40   2169.53
                             3565.40  26316.06    617.10
                             2169.53    617.10  25677.47

     exc-cor stress (kbar)   2204.08      1.34      0.82
                                1.34   2199.74      0.23
                                0.82      0.23   2199.50

     corecor stress (kbar) -11611.99      1.83      1.12
                                1.83 -11617.91      0.32
                                1.12      0.32 -11618.24

     ewald   stress (kbar) -29653.19   5600.93   3408.36
                             5600.93 -47743.75    969.81
                             3408.36    969.81 -48747.27

     hubbard stress (kbar)      0.00      0.00      0.00
                                0.00      0.00      0.00
                                0.00      0.00      0.00

     DFT-D   stress (kbar)      0.00      0.00      0.00
                                0.00      0.00      0.00
                                0.00      0.00      0.00

     XDM     stress (kbar)      0.00      0.00      0.00
                                0.00      0.00      0.00
                                0.00      0.00      0.00

     dft-nl  stress (kbar)      0.00      0.00      0.00
                                0.00      0.00      0.00
                                0.00      0.00      0.00

     TS-vdW  stress (kbar)      0.00      0.00      0.00
                                0.00      0.00      0.00
                                0.00      0.00      0.00


                                0.00      0.00      0.00
                                0.00      0.00      0.00


                                0.00      0.00      0.00


     Writing all to output data dir calculations/myprefix.save/
 
     init_run     :      0.61s CPU      0.65s WALL (       1 calls)
     electrons    :      0.45s CPU      0.52s WALL (       1 calls)
     forces       :      0.04s CPU      0.04s WALL (       1 calls)
     stress       :      0.09s CPU      0.09s WALL (       1 calls)

     Called by init_run:
     wfcinit      :      0.01s CPU      0.02s WALL (       1 calls)
     wfcinit:atom :      0.00s CPU      0.00s WALL (       1 calls)
     wfcinit:wfcr :      0.01s CPU      0.02s WALL (       1 calls)
     potinit      :      0.14s CPU      0.14s WALL (       1 calls)
     hinit0       :      0.45s CPU      0.47s WALL (       1 calls)

     Called by electrons:
     c_bands      :      0.19s CPU      0.20s WALL (      11 calls)
     sum_band     :      0.05s CPU      0.05s WALL (      11 calls)
     v_of_rho     :      0.04s CPU      0.04s WALL (      12 calls)
     v_h          :      0.00s CPU      0.00s WALL (      12 calls)
     v_xc         :      0.04s CPU      0.05s WALL (      14 calls)
     newd         :      0.04s CPU      0.04s WALL (      12 calls)
     PAW_pot      :      0.13s CPU      0.13s WALL (      12 calls)
     mix_rho      :      0.01s CPU      0.01s WALL (      11 calls)

     Called by c_bands:
     init_us_2    :      0.00s CPU      0.00s WALL (      23 calls)
     init_us_2:cp :      0.00s CPU      0.00s WALL (      23 calls)
     regterg      :      0.19s CPU      0.20s WALL (      11 calls)

     Called by sum_band:
     sum_band:wei :      0.00s CPU      0.00s WALL (      11 calls)
     sum_band:loo :      0.02s CPU      0.02s WALL (      11 calls)
     sum_band:buf :      0.00s CPU      0.00s WALL (      11 calls)
     sum_band:ini :      0.00s CPU      0.00s WALL (      11 calls)
     sum_band:cal :      0.00s CPU      0.00s WALL (      11 calls)
     sum_band:bec :      0.00s CPU      0.00s WALL (      11 calls)
     addusdens    :      0.03s CPU      0.03s WALL (      11 calls)
     addusd:skk   :      0.00s CPU      0.00s WALL (      33 calls)
     addusd:dgemm :      0.00s CPU      0.00s WALL (      33 calls)
     addusd:qvan2 :      0.02s CPU      0.02s WALL (      33 calls)

     Called by *egterg:
     rdiaghg      :      0.10s CPU      0.11s WALL (      41 calls)
     regterg:over :      0.01s CPU      0.01s WALL (      30 calls)
     regterg:upda :      0.01s CPU      0.01s WALL (      30 calls)
     regterg:last :      0.01s CPU      0.01s WALL (      22 calls)
     rdiaghg:chol :      0.01s CPU      0.01s WALL (      41 calls)
     rdiaghg:inve :      0.00s CPU      0.00s WALL (      41 calls)
     rdiaghg:para :      0.01s CPU      0.01s WALL (      82 calls)
     h_psi        :      0.07s CPU      0.07s WALL (      42 calls)
     s_psi        :      0.00s CPU      0.00s WALL (      42 calls)
     g_psi        :      0.00s CPU      0.00s WALL (      30 calls)

     Called by h_psi:
     h_psi:calbec :      0.00s CPU      0.01s WALL (      42 calls)
     vloc_psi     :      0.06s CPU      0.06s WALL (      42 calls)
     add_vuspsi   :      0.00s CPU      0.00s WALL (      42 calls)

     General routines
     calbec       :      0.01s CPU      0.01s WALL (      58 calls)
     fft          :      0.41s CPU      0.42s WALL (     150 calls)
     ffts         :      0.11s CPU      0.11s WALL (      23 calls)
     fftw         :      0.07s CPU      0.07s WALL (     871 calls)
     interpolate  :      0.11s CPU      0.11s WALL (      12 calls)
 
     Parallel routines

     PAW routines
     PAW_pot      :      0.13s CPU      0.13s WALL (      12 calls)
     PAW_symme    :      0.00s CPU      0.00s WALL (      23 calls)
 
     PWSCF        :      1.44s CPU      1.82s WALL

 
   This run was terminated on:  22:26:51   4Mar2023            

=------------------------------------------------------------------------------=
   JOB DONE.
=------------------------------------------------------------------------------=
