
     Program PWSCF v.7.0 starts on  6Mar2023 at  9: 7:45 

     This program is part of the open-source Quantum ESPRESSO suite
     for quantum simulation of materials; please cite
         "P. Giannozzi et al., J. Phys.:Condens. Matter 21 395502 (2009);
         "P. Giannozzi et al., J. Phys.:Condens. Matter 29 465901 (2017);
         "P. Giannozzi et al., J. Chem. Phys. 152 154105 (2020);
          URL http://www.quantum-espresso.org", 
     in publications or presentations arising from this work. More details at
     http://www.quantum-espresso.org/quote

     Parallel version (MPI & OpenMP), running on      32 processor cores
     Number of MPI processes:                32
     Threads/MPI process:                     1

     MPI processes distributed on     1 nodes
     R & G space division:  proc/nbgrp/npool/nimage =      32
     166138 MiB available memory on the printing compute node when the environment starts
 
     Reading input from espresso_4081.pwi
Warning: card &CELL ignored
Warning: card / ignored

     Current dimensions of program PWSCF are:
     Max number of different atomic species (ntypx) = 10
     Max number of k-points (npk) =  40000
     Max angular momentum in pseudopotentials (lmaxx) =  4
     file Mg.pbe-n-kjpaw_psl.0.3.0.UPF: wavefunction(s)  3S renormalized

     gamma-point specific algorithms are used
     Message from routine setup:
     using ibrav=0 with symmetry is DISCOURAGED, use correct ibrav instead

     Subspace diagonalization in iterative solution of the eigenvalue problem:
     one sub-group per band group will be used
     scalapack distributed-memory algorithm (size of sub-group:  5*  5 procs)

 
     Parallelization info
     --------------------
     sticks:   dense  smooth     PW     G-vecs:    dense   smooth      PW
     Min          70      34      7                 2652      934     113
     Max          72      36     10                 2660      942     126
     Sum        2259    1129    285                84965    30011    3763
 
     Using Slab Decomposition
 


     bravais-lattice index     =            0
     lattice parameter (alat)  =      11.0283  a.u.
     unit-cell volume          =    1352.6670 (a.u.)^3
     number of atoms/cell      =           16
     number of atomic types    =            3
     number of electrons       =        80.00
     number of Kohn-Sham states=           48
     kinetic-energy cutoff     =      30.0000  Ry
     charge density cutoff     =     240.0000  Ry
     scf convergence threshold =      1.0E-06
     mixing beta               =       0.7000
     number of iterations used =            8  plain     mixing
     Exchange-correlation= PBE
                           (   1   4   3   4   0   0   0)

     celldm(1)=  11.028260  celldm(2)=   0.000000  celldm(3)=   0.000000
     celldm(4)=   0.000000  celldm(5)=   0.000000  celldm(6)=   0.000000

     crystal axes: (cart. coord. in units of alat)
               a(1) = (   1.000000   0.000000   0.000000 )  
               a(2) = (   0.244860   0.969558   0.000000 )  
               a(3) = (  -0.009174  -0.007145   1.040150 )  

     reciprocal axes: (cart. coord. in units 2 pi/alat)
               b(1) = (  1.000000 -0.252548  0.007085 )  
               b(2) = (  0.000000  1.031397  0.007085 )  
               b(3) = (  0.000000  0.000000  0.961400 )  


     PseudoPot. # 1 for Mg read from file:
     /home/pragov/projects/rrg-bengioy-ad/pragov/crystal_structure_design/SSSP/Mg.pbe-n-kjpaw_psl.0.3.0.UPF
     MD5 check sum: 24ecedc7f3e3cbe212e682f4413594e4
     Pseudo is Projector augmented-wave + core cor, Zval =  2.0
     Generated using "atomic" code by A. Dal Corso  v.5.0.99 svn rev. 10869
     Shape of augmentation charge: PSQ
     Using radial grid of 1129 points,  4 beta functions with: 
                l(1) =   0
                l(2) =   0
                l(3) =   1
                l(4) =   1
     Q(r) pseudized with 0 coefficients 


     PseudoPot. # 2 for Mo read from file:
     /home/pragov/projects/rrg-bengioy-ad/pragov/crystal_structure_design/SSSP/Mo_ONCV_PBE-1.0.oncvpsp.upf
     MD5 check sum: 1b5d28e075c9ccadda658a603575cd1f
     Pseudo is Norm-conserving, Zval = 14.0
     Generated using ONCVPSP code by D. R. Hamann
     Using radial grid of 1526 points,  6 beta functions with: 
                l(1) =   0
                l(2) =   0
                l(3) =   1
                l(4) =   1
                l(5) =   2
                l(6) =   2

     PseudoPot. # 3 for N  read from file:
     /home/pragov/projects/rrg-bengioy-ad/pragov/crystal_structure_design/SSSP/N.pbe-n-radius_5.UPF
     MD5 check sum: 16739722b17309cd8fe442a2ace49922
     Pseudo is Ultrasoft + core correction, Zval =  5.0
     Generated using "atomic" code by A. Dal Corso  v.5.1
     Using radial grid of 1085 points,  4 beta functions with: 
                l(1) =   0
                l(2) =   0
                l(3) =   1
                l(4) =   1
     Q(r) pseudized with 0 coefficients 


     atomic species   valence    mass     pseudopotential
        Mg             2.00    24.30500     Mg( 1.00)
        Mo            14.00    95.95000     Mo( 1.00)
        N              5.00    14.00700     N ( 1.00)

      2 Sym. Ops., with inversion, found


                                    s                        frac. trans.

      isym =  1     identity                                     

 cryst.   s( 1) = (     1          0          0      )
                  (     0          1          0      )
                  (     0          0          1      )

 cart.    s( 1) = (  1.0000000  0.0000000 -0.0000000 )
                  (  0.0000000  1.0000000  0.0000000 )
                  (  0.0000000  0.0000000  1.0000000 )


      isym =  2     inversion                                    

 cryst.   s( 2) = (    -1          0          0      )
                  (     0         -1          0      )
                  (     0          0         -1      )

 cart.    s( 2) = ( -1.0000000 -0.0000000  0.0000000 )
                  (  0.0000000 -1.0000000 -0.0000000 )
                  (  0.0000000  0.0000000 -1.0000000 )


   Cartesian axes

     site n.     atom                  positions (alat units)
         1           Mg  tau(   1) = (   0.2993915   0.5947584   0.1752632  )
         2           Mg  tau(   2) = (   0.9362952   0.3676551   0.8648868  )
         3           Mg  tau(   3) = (   0.5857246   0.8177687   0.8648868  )
         4           Mg  tau(   4) = (   0.6499621   0.1446448   0.1752632  )
         5           Mg  tau(   5) = (   0.1388988   0.1081812   0.3369504  )
         6           Mg  tau(   6) = (   1.0967879   0.8542323   0.7031996  )
         7           Mo  tau(   7) = (   0.8307922   0.6470618   0.3430123  )
         8           Mo  tau(   8) = (   0.4048945   0.3153517   0.6971377  )
         9           N   tau(   9) = (   0.1475145   0.1148916   0.7098556  )
        10           N   tau(  10) = (   1.0881722   0.8475219   0.3302944  )
        11           N   tau(  11) = (   0.6310858   0.1415595   0.8526578  )
        12           N   tau(  12) = (   0.6046009   0.8208540   0.1874922  )
        13           N   tau(  13) = (   0.9439086   0.3852013   0.1874922  )
        14           N   tau(  14) = (   0.2917781   0.5772122   0.8526578  )
        15           N   tau(  15) = (   0.4400233   0.3427118   0.3816581  )
        16           N   tau(  16) = (   0.7956634   0.6197017   0.6584919  )

   Crystallographic axes

     site n.     atom                  positions (cryst. coord.)
         1           Mg  tau(   1) = (  0.1504280  0.6146740  0.1684980  )
         2           Mg  tau(   2) = (  0.8495720  0.3853260  0.8315020  )
         3           Mg  tau(   3) = (  0.3853260  0.8495720  0.8315020  )
         4           Mg  tau(   4) = (  0.6146740  0.1504280  0.1684980  )
         5           Mg  tau(   5) = (  0.1139650  0.1139650  0.3239440  )
         6           Mg  tau(   6) = (  0.8860350  0.8860350  0.6760560  )
         7           Mo  tau(   7) = (  0.6698080  0.6698080  0.3297720  )
         8           Mo  tau(   8) = (  0.3301920  0.3301920  0.6702280  )
         9           N   tau(   9) = (  0.1235280  0.1235280  0.6824550  )
        10           N   tau(  10) = (  0.8764720  0.8764720  0.3175450  )
        11           N   tau(  11) = (  0.6013760  0.1520450  0.8197450  )
        12           N   tau(  12) = (  0.3986240  0.8479550  0.1802550  )
        13           N   tau(  13) = (  0.8479550  0.3986240  0.1802550  )
        14           N   tau(  14) = (  0.1520450  0.6013760  0.8197450  )
        15           N   tau(  15) = (  0.3561760  0.3561760  0.3669260  )
        16           N   tau(  16) = (  0.6438240  0.6438240  0.6330740  )

     number of k points=     1  Methfessel-Paxton smearing, width (Ry)=  0.0010
                       cart. coord. in units 2pi/alat
        k(    1) = (   0.0000000   0.0000000   0.0000000), wk =   2.0000000

                       cryst. coord.
        k(    1) = (   0.0000000   0.0000000   0.0000000), wk =   2.0000000

     Dense  grid:    42483 G-vectors     FFT dimensions: (  60,  60,  60)

     Smooth grid:    15006 G-vectors     FFT dimensions: (  40,  40,  40)

     Dynamical RAM for                 wfc:       0.04 MB

     Dynamical RAM for     wfc (w. buffer):       0.04 MB

     Dynamical RAM for           str. fact:       0.06 MB

     Dynamical RAM for           local pot:       0.00 MB

     Dynamical RAM for          nlocal pot:       0.13 MB

     Dynamical RAM for                qrad:       3.73 MB

     Dynamical RAM for          rho,v,vnew:       0.23 MB

     Dynamical RAM for               rhoin:       0.08 MB

     Dynamical RAM for            rho*nmix:       0.32 MB

     Dynamical RAM for           G-vectors:       0.08 MB

     Dynamical RAM for          h,s,v(r/c):       0.01 MB

     Dynamical RAM for          <psi|beta>:       0.05 MB

     Dynamical RAM for                 psi:       0.08 MB

     Dynamical RAM for                hpsi:       0.08 MB

     Dynamical RAM for                spsi:       0.08 MB

     Dynamical RAM for      wfcinit/wfcrot:       0.27 MB

     Dynamical RAM for           addusdens:       1.19 MB

     Dynamical RAM for          addusforce:       1.49 MB

     Dynamical RAM for         addusstress:       1.34 MB

     Estimated static dynamical RAM per process >       4.70 MB

     Estimated max dynamical RAM per process >       6.52 MB

     Estimated total dynamical RAM >     208.68 MB

     Initial potential from superposition of free atoms

     starting charge      79.9924, renormalised to      80.0000
     Starting wfcs are   76 randomized atomic wfcs
     Checking if some PAW data can be deallocated... 
       PAW data deallocated on   20 nodes for type:  1

     total cpu time spent up to now is        1.1 secs

     Self-consistent Calculation

     iteration #  1     ecut=    30.00 Ry     beta= 0.70
     Davidson diagonalization with overlap

---- Real-time Memory Report at c_bands before calling an iterative solver
           138 MiB given to the printing process from OS
             0 MiB allocation reported by mallinfo(arena+hblkhd)
        165436 MiB available memory on the node where the printing process lives
------------------
     ethr =  1.00E-02,  avg # of iterations =  2.0

     total cpu time spent up to now is        1.2 secs

     total energy              =    -635.11389742 Ry
     estimated scf accuracy    <       6.13542890 Ry

     iteration #  2     ecut=    30.00 Ry     beta= 0.70
     Davidson diagonalization with overlap

---- Real-time Memory Report at c_bands before calling an iterative solver
           143 MiB given to the printing process from OS
             0 MiB allocation reported by mallinfo(arena+hblkhd)
        165389 MiB available memory on the node where the printing process lives
------------------
     ethr =  7.67E-03,  avg # of iterations =  5.0

     total cpu time spent up to now is        1.3 secs

     total energy              =    -633.22074035 Ry
     estimated scf accuracy    <      31.31397460 Ry

     iteration #  3     ecut=    30.00 Ry     beta= 0.70
     Davidson diagonalization with overlap

---- Real-time Memory Report at c_bands before calling an iterative solver
           144 MiB given to the printing process from OS
             0 MiB allocation reported by mallinfo(arena+hblkhd)
        165381 MiB available memory on the node where the printing process lives
------------------
     ethr =  7.67E-03,  avg # of iterations =  4.0

     total cpu time spent up to now is        1.3 secs

     total energy              =    -638.09344921 Ry
     estimated scf accuracy    <       1.81448038 Ry

     iteration #  4     ecut=    30.00 Ry     beta= 0.70
     Davidson diagonalization with overlap

---- Real-time Memory Report at c_bands before calling an iterative solver
           145 MiB given to the printing process from OS
             0 MiB allocation reported by mallinfo(arena+hblkhd)
        165381 MiB available memory on the node where the printing process lives
------------------
     ethr =  2.27E-03,  avg # of iterations =  2.0

     total cpu time spent up to now is        1.4 secs

     total energy              =    -638.31335149 Ry
     estimated scf accuracy    <       0.14471976 Ry

     iteration #  5     ecut=    30.00 Ry     beta= 0.70
     Davidson diagonalization with overlap

---- Real-time Memory Report at c_bands before calling an iterative solver
           145 MiB given to the printing process from OS
             0 MiB allocation reported by mallinfo(arena+hblkhd)
        165378 MiB available memory on the node where the printing process lives
------------------
     ethr =  1.81E-04,  avg # of iterations =  2.0

     total cpu time spent up to now is        1.5 secs

     total energy              =    -638.31984756 Ry
     estimated scf accuracy    <       0.03998121 Ry

     iteration #  6     ecut=    30.00 Ry     beta= 0.70
     Davidson diagonalization with overlap

---- Real-time Memory Report at c_bands before calling an iterative solver
           145 MiB given to the printing process from OS
             0 MiB allocation reported by mallinfo(arena+hblkhd)
        165378 MiB available memory on the node where the printing process lives
------------------
     ethr =  5.00E-05,  avg # of iterations =  4.0

     total cpu time spent up to now is        1.5 secs

     total energy              =    -638.33030358 Ry
     estimated scf accuracy    <       0.01040333 Ry

     iteration #  7     ecut=    30.00 Ry     beta= 0.70
     Davidson diagonalization with overlap

---- Real-time Memory Report at c_bands before calling an iterative solver
           146 MiB given to the printing process from OS
             0 MiB allocation reported by mallinfo(arena+hblkhd)
        165376 MiB available memory on the node where the printing process lives
------------------
     ethr =  1.30E-05,  avg # of iterations =  5.0

     total cpu time spent up to now is        1.6 secs

     total energy              =    -638.33147630 Ry
     estimated scf accuracy    <       0.00197939 Ry

     iteration #  8     ecut=    30.00 Ry     beta= 0.70
     Davidson diagonalization with overlap

---- Real-time Memory Report at c_bands before calling an iterative solver
           146 MiB given to the printing process from OS
             0 MiB allocation reported by mallinfo(arena+hblkhd)
        165376 MiB available memory on the node where the printing process lives
------------------
     ethr =  2.47E-06,  avg # of iterations =  6.0

     total cpu time spent up to now is        1.7 secs

     total energy              =    -638.33192316 Ry
     estimated scf accuracy    <       0.00024436 Ry

     iteration #  9     ecut=    30.00 Ry     beta= 0.70
     Davidson diagonalization with overlap

---- Real-time Memory Report at c_bands before calling an iterative solver
           146 MiB given to the printing process from OS
             0 MiB allocation reported by mallinfo(arena+hblkhd)
        165375 MiB available memory on the node where the printing process lives
------------------
     ethr =  3.05E-07,  avg # of iterations =  5.0

     total cpu time spent up to now is        1.8 secs

     total energy              =    -638.33201329 Ry
     estimated scf accuracy    <       0.00006200 Ry

     iteration # 10     ecut=    30.00 Ry     beta= 0.70
     Davidson diagonalization with overlap

---- Real-time Memory Report at c_bands before calling an iterative solver
           149 MiB given to the printing process from OS
             0 MiB allocation reported by mallinfo(arena+hblkhd)
        165370 MiB available memory on the node where the printing process lives
------------------
     ethr =  7.75E-08,  avg # of iterations =  2.0

     total cpu time spent up to now is        1.8 secs

     total energy              =    -638.33202262 Ry
     estimated scf accuracy    <       0.00000915 Ry

     iteration # 11     ecut=    30.00 Ry     beta= 0.70
     Davidson diagonalization with overlap

---- Real-time Memory Report at c_bands before calling an iterative solver
           149 MiB given to the printing process from OS
             0 MiB allocation reported by mallinfo(arena+hblkhd)
        165370 MiB available memory on the node where the printing process lives
------------------
     ethr =  1.14E-08,  avg # of iterations =  3.0

     total cpu time spent up to now is        1.9 secs

     total energy              =    -638.33202414 Ry
     estimated scf accuracy    <       0.00000672 Ry

     iteration # 12     ecut=    30.00 Ry     beta= 0.70
     Davidson diagonalization with overlap

---- Real-time Memory Report at c_bands before calling an iterative solver
           149 MiB given to the printing process from OS
             0 MiB allocation reported by mallinfo(arena+hblkhd)
        165370 MiB available memory on the node where the printing process lives
------------------
     ethr =  8.40E-09,  avg # of iterations =  2.0

     total cpu time spent up to now is        1.9 secs

     End of self-consistent calculation

          k = 0.0000 0.0000 0.0000 (  1882 PWs)   bands (ev):

   -54.1114 -54.1099 -28.3683 -28.3508 -28.3282 -28.3271 -28.3247 -28.3226
    -7.0308  -6.0657  -5.8183  -5.6672  -5.6344  -5.5910  -5.5635  -5.3429
     2.1064   2.1633   2.2703   2.7732   2.9332   3.1591   3.3739   3.5103
     3.7678   3.7964   3.8135   3.9903   4.1618   4.7264   4.8167   5.0574
     5.2161   5.2840   5.3095   5.8771   5.9325   6.5329   6.5907   7.1462
     9.2938   9.4614   9.5730   9.9776  10.3068  10.5720  11.0554  11.4562

     occupation numbers 
     1.0000   1.0000   1.0000   1.0000   1.0000   1.0000   1.0000   1.0000
     1.0000   1.0000   1.0000   1.0000   1.0000   1.0000   1.0000   1.0000
     1.0000   1.0000   1.0000   1.0000   1.0000   1.0000   1.0000   1.0000
     1.0000   1.0000   1.0000   1.0000   1.0000   1.0000   1.0000   1.0000
     1.0000   1.0000   1.0000   1.0000   1.0000   1.0000   1.0000   1.0000
    -0.0000  -0.0000  -0.0000  -0.0000  -0.0000  -0.0000  -0.0000  -0.0000

     the Fermi energy is     7.4773 ev

!    total energy              =    -638.33202521 Ry
     estimated scf accuracy    <       0.00000026 Ry
     smearing contrib. (-TS)   =       0.00000000 Ry
     internal energy E=F+TS    =    -638.33202521 Ry

     The total energy is F=E-TS. E is the sum of the following terms:
     one-electron contribution =    -234.88609122 Ry
     hartree contribution      =     152.70171488 Ry
     xc contribution           =     -85.00211821 Ry
     ewald contribution        =    -283.36839269 Ry
     one-center paw contrib.   =    -187.77713796 Ry
      -> PAW hartree energy AE =       1.01613329 Ry
      -> PAW hartree energy PS =      -1.01440006 Ry
      -> PAW xc energy AE      =     -32.72010539 Ry
      -> PAW xc energy PS      =       1.42174602 Ry
      -> total E_H with PAW    =     152.70344811 Ry
      -> total E_XC with PAW   =    -116.30047759 Ry

     convergence has been achieved in  12 iterations

     Forces acting on atoms (cartesian axes, Ry/au):

     atom    1 type  1   force =    -0.00102207    0.00350361    0.00035033
     atom    2 type  1   force =     0.00102207   -0.00350361   -0.00035033
     atom    3 type  1   force =    -0.00314674    0.00184897   -0.00035046
     atom    4 type  1   force =     0.00314674   -0.00184897    0.00035046
     atom    5 type  1   force =     0.00636849    0.00496056    0.00210839
     atom    6 type  1   force =    -0.00636849   -0.00496056   -0.00210839
     atom    7 type  2   force =    -0.01063409   -0.00827747   -0.00410011
     atom    8 type  2   force =     0.01063409    0.00827747    0.00410011
     atom    9 type  3   force =     0.00805310    0.00627162   -0.01413632
     atom   10 type  3   force =    -0.00805310   -0.00627162    0.01413632
     atom   11 type  3   force =    -0.02997212    0.01709428    0.00803796
     atom   12 type  3   force =     0.02997212   -0.01709428   -0.00803796
     atom   13 type  3   force =    -0.00923358    0.03324177   -0.00803532
     atom   14 type  3   force =     0.00923358   -0.03324177    0.00803532
     atom   15 type  3   force =    -0.01988727   -0.01549160    0.02318066
     atom   16 type  3   force =     0.01988727    0.01549160   -0.02318066
     The non-local contrib.  to forces
     atom    1 type  1   force =    -0.02125261    0.01272778   -0.00074716
     atom    2 type  1   force =     0.02125261   -0.01272778    0.00074716
     atom    3 type  1   force =    -0.00713633    0.02372302    0.00074646
     atom    4 type  1   force =     0.00713633   -0.02372302   -0.00074646
     atom    5 type  1   force =     0.00429046    0.00334096   -0.03012190
     atom    6 type  1   force =    -0.00429046   -0.00334096    0.03012190
     atom    7 type  2   force =    -0.05323699   -0.04146315   -0.00585115
     atom    8 type  2   force =     0.05323699    0.04146315    0.00585115
     atom    9 type  3   force =     0.27793452    0.21647031    0.02217123
     atom   10 type  3   force =    -0.27793452   -0.21647031   -0.02217123
     atom   11 type  3   force =    -0.21410419    0.10835138   -0.10156561
     atom   12 type  3   force =     0.21410419   -0.10835138    0.10156561
     atom   13 type  3   force =    -0.05262839    0.23411822    0.10156373
     atom   14 type  3   force =     0.05262839   -0.23411822   -0.10156373
     atom   15 type  3   force =    -0.05720351   -0.04454802    0.10304138
     atom   16 type  3   force =     0.05720351    0.04454802   -0.10304138
     The ionic contribution  to forces
     atom    1 type  1   force =     0.05411727    0.28291676   -0.72649396
     atom    2 type  1   force =    -0.05411727   -0.28291676    0.72649396
     atom    3 type  1   force =    -0.28755549    0.01680523    0.72649396
     atom    4 type  1   force =     0.28755549   -0.01680523   -0.72649396
     atom    5 type  1   force =    -0.56993514   -0.44389348   -1.05381503
     atom    6 type  1   force =     0.56993514    0.44389348    1.05381503
     atom    7 type  2   force =    -0.29914918   -0.23299208   -3.44396412
     atom    8 type  2   force =     0.29914918    0.23299208    3.44396412
     atom    9 type  3   force =    -6.73639163   -5.24663269    1.44533693
     atom   10 type  3   force =     6.73639163    5.24663269   -1.44533693
     atom   11 type  3   force =     5.87621520   -4.53896926    4.59739804
     atom   12 type  3   force =    -5.87621520    4.53896926   -4.59739804
     atom   13 type  3   force =     2.96194368   -6.80874707   -4.59739804
     atom   14 type  3   force =    -2.96194368    6.80874707    4.59739804
     atom   15 type  3   force =    -0.35145689   -0.27373189   -8.54296595
     atom   16 type  3   force =     0.35145689    0.27373189    8.54296595
     The local contribution  to forces
     atom    1 type  1   force =    -0.03600570   -0.29166055    0.72702499
     atom    2 type  1   force =     0.03597494    0.29169362   -0.72710100
     atom    3 type  1   force =     0.29162566   -0.03654254   -0.72710745
     atom    4 type  1   force =    -0.29158972    0.03651465    0.72701995
     atom    5 type  1   force =     0.57205391    0.44555217    1.08142890
     atom    6 type  1   force =    -0.57208659   -0.44556841   -1.08138516
     atom    7 type  2   force =     0.34187268    0.26611807    3.44541775
     atom    8 type  2   force =    -0.34164726   -0.26616676   -3.44445772
     atom    9 type  3   force =     6.46836571    5.03786657   -1.48116868
     atom   10 type  3   force =    -6.46828561   -5.03784602    1.48131249
     atom   11 type  3   force =    -5.69352358    4.44824047   -4.48824289
     atom   12 type  3   force =     5.69341604   -4.44819463    4.48808259
     atom   13 type  3   force =    -2.91865876    6.60927730    4.48808940
     atom   14 type  3   force =     2.91871741   -6.60939763   -4.48824934
     atom   15 type  3   force =     0.38855325    0.30263131    8.46279307
     atom   16 type  3   force =    -0.38869571   -0.30272939   -8.46237038
     The core correction contribution to forces
     atom    1 type  1   force =     0.00210571   -0.00047801    0.00051185
     atom    2 type  1   force =    -0.00210660    0.00047901   -0.00051149
     atom    3 type  1   force =    -0.00005148   -0.00215996   -0.00051137
     atom    4 type  1   force =     0.00005209    0.00215866    0.00051183
     atom    5 type  1   force =    -0.00005442   -0.00004242    0.00463311
     atom    6 type  1   force =     0.00005379    0.00004165   -0.00463372
     atom    7 type  2   force =     0.00000000    0.00000000    0.00000000
     atom    8 type  2   force =     0.00000000    0.00000000    0.00000000
     atom    9 type  3   force =    -0.00164782   -0.00128348   -0.00030235
     atom   10 type  3   force =     0.00164741    0.00128307    0.00030254
     atom   11 type  3   force =     0.00117108   -0.00030177    0.00045214
     atom   12 type  3   force =    -0.00117132    0.00030130   -0.00045181
     atom   13 type  3   force =     0.00000551   -0.00120943   -0.00045174
     atom   14 type  3   force =    -0.00000573    0.00120944    0.00045215
     atom   15 type  3   force =     0.00024166    0.00018818    0.00042791
     atom   16 type  3   force =    -0.00024254   -0.00018880   -0.00042894
     The Hubbard contrib.    to forces
     atom    1 type  1   force =     0.00000000    0.00000000    0.00000000
     atom    2 type  1   force =     0.00000000    0.00000000    0.00000000
     atom    3 type  1   force =     0.00000000    0.00000000    0.00000000
     atom    4 type  1   force =     0.00000000    0.00000000    0.00000000
     atom    5 type  1   force =     0.00000000    0.00000000    0.00000000
     atom    6 type  1   force =     0.00000000    0.00000000    0.00000000
     atom    7 type  2   force =     0.00000000    0.00000000    0.00000000
     atom    8 type  2   force =     0.00000000    0.00000000    0.00000000
     atom    9 type  3   force =     0.00000000    0.00000000    0.00000000
     atom   10 type  3   force =     0.00000000    0.00000000    0.00000000
     atom   11 type  3   force =     0.00000000    0.00000000    0.00000000
     atom   12 type  3   force =     0.00000000    0.00000000    0.00000000
     atom   13 type  3   force =     0.00000000    0.00000000    0.00000000
     atom   14 type  3   force =     0.00000000    0.00000000    0.00000000
     atom   15 type  3   force =     0.00000000    0.00000000    0.00000000
     atom   16 type  3   force =     0.00000000    0.00000000    0.00000000
     The SCF correction term to forces
     atom    1 type  1   force =     0.00000553    0.00000747    0.00005215
     atom    2 type  1   force =     0.00001066   -0.00002185    0.00001858
     atom    3 type  1   force =    -0.00002117    0.00001319    0.00002450
     atom    4 type  1   force =     0.00000049   -0.00000404    0.00005565
     atom    5 type  1   force =     0.00000758   -0.00000160   -0.00001951
     atom    6 type  1   force =     0.00001352    0.00000874   -0.00002926
     atom    7 type  2   force =    -0.00010978    0.00005649    0.00032901
     atom    8 type  2   force =    -0.00009400   -0.00001420   -0.00122585
     atom    9 type  3   force =    -0.00022706   -0.00016525   -0.00017920
     atom   10 type  3   force =     0.00010862    0.00011278    0.00002370
     atom   11 type  3   force =     0.00026839   -0.00024464    0.00001814
     atom   12 type  3   force =    -0.00016258    0.00016307    0.00018554
     atom   13 type  3   force =     0.00009681   -0.00019787    0.00018564
     atom   14 type  3   force =    -0.00017038    0.00031695    0.00002251
     atom   15 type  3   force =    -0.00006134   -0.00006023   -0.00013977
     atom   16 type  3   force =     0.00012555    0.00010083   -0.00032993

     Total force =     0.092539     Total SCF correction =     0.001541


     Computing stress (Cartesian axis) and pressure

          total   stress  (Ry/bohr**3)                   (kbar)     P=      -79.80
  -0.00051562   0.00006930  -0.00001244          -75.85       10.19       -1.83
   0.00006930  -0.00055063  -0.00000969           10.19      -81.00       -1.43
  -0.00001244  -0.00000969  -0.00056121           -1.83       -1.43      -82.56

     kinetic stress (kbar)  13084.39     14.58     11.19
                               14.58  13077.02      8.71
                               11.19      8.71  13066.76

     local   stress (kbar) -11703.88   -772.86    219.40
                             -772.86 -11313.50    170.88
                              219.40    170.88  -9613.17

     nonloc. stress (kbar)   5223.48    -30.82      3.00
                              -30.82   5239.05      2.34
                                3.00      2.34   5231.37

     hartree stress (kbar)   5941.03    408.69   -148.00
                              408.69   5734.59   -115.27
                             -148.00   -115.27   4930.98

     exc-cor stress (kbar)  -1965.98     -0.87      0.30
                               -0.87  -1965.54      0.24
                                0.30      0.24  -1964.83

     corecor stress (kbar)   -807.36      3.02      0.16
                                3.02   -808.89      0.12
                                0.16      0.12   -808.07

     ewald   stress (kbar)  -9847.52    388.45    -87.88
                              388.45 -10043.73    -68.45
                              -87.88    -68.45 -10925.59

     hubbard stress (kbar)      0.00      0.00      0.00
                                0.00      0.00      0.00
                                0.00      0.00      0.00

     DFT-D   stress (kbar)      0.00      0.00      0.00
                                0.00      0.00      0.00
                                0.00      0.00      0.00

     XDM     stress (kbar)      0.00      0.00      0.00
                                0.00      0.00      0.00
                                0.00      0.00      0.00

     dft-nl  stress (kbar)      0.00      0.00      0.00
                                0.00      0.00      0.00
                                0.00      0.00      0.00

     TS-vdW  stress (kbar)      0.00      0.00      0.00
                                0.00      0.00      0.00
                                0.00      0.00      0.00


                                0.00      0.00      0.00
                                0.00      0.00      0.00


                                0.00      0.00      0.00


     Writing all to output data dir calculations/myprefix.save/
 
     init_run     :      0.89s CPU      0.93s WALL (       1 calls)
     electrons    :      0.79s CPU      0.84s WALL (       1 calls)
     forces       :      0.10s CPU      0.10s WALL (       1 calls)
     stress       :      0.21s CPU      0.21s WALL (       1 calls)

     Called by init_run:
     wfcinit      :      0.02s CPU      0.03s WALL (       1 calls)
     wfcinit:atom :      0.00s CPU      0.00s WALL (       1 calls)
     wfcinit:wfcr :      0.02s CPU      0.03s WALL (       1 calls)
     potinit      :      0.36s CPU      0.37s WALL (       1 calls)
     hinit0       :      0.49s CPU      0.50s WALL (       1 calls)

     Called by electrons:
     c_bands      :      0.39s CPU      0.41s WALL (      12 calls)
     sum_band     :      0.06s CPU      0.06s WALL (      12 calls)
     v_of_rho     :      0.05s CPU      0.05s WALL (      13 calls)
     v_h          :      0.00s CPU      0.00s WALL (      13 calls)
     v_xc         :      0.05s CPU      0.05s WALL (      15 calls)
     newd         :      0.03s CPU      0.03s WALL (      13 calls)
     PAW_pot      :      0.27s CPU      0.28s WALL (      13 calls)
     mix_rho      :      0.01s CPU      0.01s WALL (      12 calls)

     Called by c_bands:
     init_us_2    :      0.00s CPU      0.00s WALL (      25 calls)
     init_us_2:cp :      0.00s CPU      0.00s WALL (      25 calls)
     regterg      :      0.38s CPU      0.40s WALL (      12 calls)

     Called by sum_band:
     sum_band:wei :      0.00s CPU      0.00s WALL (      12 calls)
     sum_band:loo :      0.03s CPU      0.03s WALL (      12 calls)
     sum_band:buf :      0.00s CPU      0.00s WALL (      12 calls)
     sum_band:ini :      0.00s CPU      0.00s WALL (      12 calls)
     sum_band:cal :      0.00s CPU      0.00s WALL (      12 calls)
     sum_band:bec :      0.00s CPU      0.00s WALL (      12 calls)
     addusdens    :      0.02s CPU      0.02s WALL (      12 calls)
     addusd:skk   :      0.00s CPU      0.00s WALL (      24 calls)
     addusd:dgemm :      0.00s CPU      0.00s WALL (      24 calls)
     addusd:qvan2 :      0.01s CPU      0.01s WALL (      24 calls)

     Called by *egterg:
     rdiaghg      :      0.21s CPU      0.22s WALL (      54 calls)
     regterg:over :      0.02s CPU      0.02s WALL (      42 calls)
     regterg:upda :      0.01s CPU      0.01s WALL (      42 calls)
     regterg:last :      0.01s CPU      0.02s WALL (      25 calls)
     rdiaghg:chol :      0.01s CPU      0.02s WALL (      54 calls)
     rdiaghg:inve :      0.00s CPU      0.00s WALL (      54 calls)
     rdiaghg:para :      0.02s CPU      0.02s WALL (     108 calls)
     h_psi        :      0.13s CPU      0.15s WALL (      55 calls)
     s_psi        :      0.00s CPU      0.00s WALL (      55 calls)
     g_psi        :      0.00s CPU      0.00s WALL (      42 calls)

     Called by h_psi:
     h_psi:calbec :      0.01s CPU      0.01s WALL (      55 calls)
     vloc_psi     :      0.12s CPU      0.13s WALL (      55 calls)
     add_vuspsi   :      0.00s CPU      0.00s WALL (      55 calls)

     General routines
     calbec       :      0.02s CPU      0.02s WALL (      72 calls)
     fft          :      0.42s CPU      0.43s WALL (     161 calls)
     ffts         :      0.28s CPU      0.28s WALL (      25 calls)
     fftw         :      0.13s CPU      0.14s WALL (    1844 calls)
     interpolate  :      0.28s CPU      0.29s WALL (      13 calls)
 
     Parallel routines

     PAW routines
     PAW_pot      :      0.27s CPU      0.28s WALL (      13 calls)
     PAW_symme    :      0.00s CPU      0.01s WALL (      25 calls)
 
     PWSCF        :      2.16s CPU      2.58s WALL

 
   This run was terminated on:   9: 7:47   6Mar2023            

=------------------------------------------------------------------------------=
   JOB DONE.
=------------------------------------------------------------------------------=
