
     Program PWSCF v.7.0 starts on  4Mar2023 at 19:54:22 

     This program is part of the open-source Quantum ESPRESSO suite
     for quantum simulation of materials; please cite
         "P. Giannozzi et al., J. Phys.:Condens. Matter 21 395502 (2009);
         "P. Giannozzi et al., J. Phys.:Condens. Matter 29 465901 (2017);
         "P. Giannozzi et al., J. Chem. Phys. 152 154105 (2020);
          URL http://www.quantum-espresso.org", 
     in publications or presentations arising from this work. More details at
     http://www.quantum-espresso.org/quote

     Parallel version (MPI & OpenMP), running on      32 processor cores
     Number of MPI processes:                32
     Threads/MPI process:                     1

     MPI processes distributed on     1 nodes
     R & G space division:  proc/nbgrp/npool/nimage =      32
     167117 MiB available memory on the printing compute node when the environment starts
 
     Reading input from espresso_7463.pwi
Warning: card &CELL ignored
Warning: card / ignored

     Current dimensions of program PWSCF are:
     Max number of different atomic species (ntypx) = 10
     Max number of k-points (npk) =  40000
     Max angular momentum in pseudopotentials (lmaxx) =  4

     gamma-point specific algorithms are used
     Message from routine setup:
     using ibrav=0 with symmetry is DISCOURAGED, use correct ibrav instead

     Subspace diagonalization in iterative solution of the eigenvalue problem:
     one sub-group per band group will be used
     scalapack distributed-memory algorithm (size of sub-group:  5*  5 procs)

 
     Parallelization info
     --------------------
     sticks:   dense  smooth     PW     G-vecs:    dense   smooth      PW
     Min         194      96     23                 6375     2250     280
     Max         196      98     26                 6380     2260     284
     Sum        6249    3121    783               204095    72149    9017
 
     Using Slab Decomposition
 


     bravais-lattice index     =            0
     lattice parameter (alat)  =      18.1052  a.u.
     unit-cell volume          =    3249.5704 (a.u.)^3
     number of atoms/cell      =           18
     number of atomic types    =            3
     number of electrons       =       204.00
     number of Kohn-Sham states=          122
     kinetic-energy cutoff     =      30.0000  Ry
     charge density cutoff     =     240.0000  Ry
     scf convergence threshold =      1.0E-06
     mixing beta               =       0.7000
     number of iterations used =            8  plain     mixing
     Exchange-correlation=  SLA  PW   PBX  PBC
                           (   1   4   3   4   0   0   0)

     celldm(1)=  18.105163  celldm(2)=   0.000000  celldm(3)=   0.000000
     celldm(4)=   0.000000  celldm(5)=   0.000000  celldm(6)=   0.000000

     crystal axes: (cart. coord. in units of alat)
               a(1) = (   1.000000   0.000000   0.000000 )  
               a(2) = (   0.086782   0.996227   0.000000 )  
               a(3) = (  -0.277759  -0.787890   0.549617 )  

     reciprocal axes: (cart. coord. in units 2 pi/alat)
               b(1) = (  1.000000 -0.087110  0.380494 )  
               b(2) = (  0.000000  1.003787  1.438954 )  
               b(3) = (  0.000000  0.000000  1.819449 )  


     PseudoPot. # 1 for Cs read from file:
     /home/pragov/projects/rrg-bengioy-ad/pragov/crystal_structure_design/SSSP/Cs_pbe_v1.uspp.F.UPF
     MD5 check sum: 3476d69cb178dfad3ffaa59df4e07ca4
     Pseudo is Ultrasoft + core correction, Zval =  9.0
     Generated by new atomic code, or converted to UPF format
     Using radial grid of  905 points,  6 beta functions with: 
                l(1) =   0
                l(2) =   0
                l(3) =   1
                l(4) =   1
                l(5) =   2
                l(6) =   2
     Q(r) pseudized with  6 coefficients,  rinner =    1.500   1.500   1.500
                                                       1.500   1.500

     PseudoPot. # 2 for Zn read from file:
     /home/pragov/projects/rrg-bengioy-ad/pragov/crystal_structure_design/SSSP/Zn_pbe_v1.uspp.F.UPF
     MD5 check sum: df62231357ef9e81f77b2b3087fa5675
     Pseudo is Ultrasoft, Zval = 20.0
     Generated by new atomic code, or converted to UPF format
     Using radial grid of  943 points,  6 beta functions with: 
                l(1) =   0
                l(2) =   0
                l(3) =   1
                l(4) =   1
                l(5) =   2
                l(6) =   2
     Q(r) pseudized with  8 coefficients,  rinner =    1.100   1.100   1.100
                                                       1.100   1.100

     PseudoPot. # 3 for S  read from file:
     /home/pragov/projects/rrg-bengioy-ad/pragov/crystal_structure_design/SSSP/s_pbe_v1.4.uspp.F.UPF
     MD5 check sum: 88d86576ff6df21479756cfb9bdac1df
     Pseudo is Ultrasoft + core correction, Zval =  6.0
     Generated by new atomic code, or converted to UPF format
     Using radial grid of  907 points,  6 beta functions with: 
                l(1) =   0
                l(2) =   0
                l(3) =   1
                l(4) =   1
                l(5) =   2
                l(6) =   2
     Q(r) pseudized with  8 coefficients,  rinner =    1.300   1.300   1.300
                                                       1.300   1.300

     atomic species   valence    mass     pseudopotential
        Cs             9.00   132.90545     Cs( 1.00)
        Zn            20.00    65.38000     Zn( 1.00)
        S              6.00    32.06000     S ( 1.00)

      2 Sym. Ops., with inversion, found


                                    s                        frac. trans.

      isym =  1     identity                                     

 cryst.   s( 1) = (     1          0          0      )
                  (     0          1          0      )
                  (     0          0          1      )

 cart.    s( 1) = (  1.0000000 -0.0000000 -0.0000000 )
                  (  0.0000000  1.0000000 -0.0000000 )
                  (  0.0000000  0.0000000  1.0000000 )


      isym =  2     inversion                                    

 cryst.   s( 2) = (    -1          0          0      )
                  (     0         -1          0      )
                  (     0          0         -1      )

 cart.    s( 2) = ( -1.0000000  0.0000000  0.0000000 )
                  (  0.0000000 -1.0000000  0.0000000 )
                  (  0.0000000  0.0000000 -1.0000000 )


   Cartesian axes

     site n.     atom                  positions (alat units)
         1           Cs  tau(   1) = (   0.7664415   0.2547882   0.3543997  )
         2           Cs  tau(   2) = (   0.3976972  -0.4338467   0.4873037  )
         3           Cs  tau(   3) = (   0.4113249   0.6421840   0.0623134  )
         4           Cs  tau(   4) = (   0.0425805  -0.0464510   0.1952174  )
         5           Zn  tau(   5) = (   0.1762064   0.3532255   0.2748085  )
         6           Zn  tau(   6) = (   0.6328156  -0.1448882   0.2748085  )
         7           Zn  tau(   7) = (  -0.1689300  -0.3611632   0.4256778  )
         8           Zn  tau(   8) = (   0.4345613   0.0713868   0.1239392  )
         9           Zn  tau(   9) = (   0.9779521   0.5695005   0.1239392  )
        10           Zn  tau(  10) = (   0.3744607   0.1369504   0.4256778  )
        11           S   tau(  11) = (   0.7583687   0.6083227   0.2285352  )
        12           S   tau(  12) = (   0.6775106   0.0070749   0.0808728  )
        13           S   tau(  13) = (   0.7880841  -0.1135494   0.4687442  )
        14           S   tau(  14) = (   0.3940806  -0.0851736   0.3210819  )
        15           S   tau(  15) = (   0.0506533  -0.3999854   0.3210819  )
        16           S   tau(  16) = (   0.1315114   0.2012624   0.4687442  )
        17           S   tau(  17) = (   0.0209379   0.3218867   0.0808728  )
        18           S   tau(  18) = (   0.4149414   0.2935109   0.2285352  )

   Crystallographic axes

     site n.     atom                  positions (cryst. coord.)
         1           Cs  tau(   1) = (  0.8790940  0.7657180  0.6448120  )
         2           Cs  tau(   2) = (  0.6209060  0.2657180  0.8866240  )
         3           Cs  tau(   3) = (  0.3790940  0.7342820  0.1133760  )
         4           Cs  tau(   4) = (  0.1209060  0.2342820  0.3551880  )
         5           Zn  tau(   5) = (  0.2500000  0.7500000  0.5000000  )
         6           Zn  tau(   6) = (  0.7500000  0.2500000  0.5000000  )
         7           Zn  tau(   7) = (  0.0244990  0.2500000  0.7744990  )
         8           Zn  tau(   8) = (  0.4755010  0.2500000  0.2255010  )
         9           Zn  tau(   9) = (  0.9755010  0.7500000  0.2255010  )
        10           Zn  tau(  10) = (  0.5244990  0.7500000  0.7744990  )
        11           S   tau(  11) = (  0.7923340  0.9394780  0.4158080  )
        12           S   tau(  12) = (  0.7076660  0.1234740  0.1471440  )
        13           S   tau(  13) = (  0.9763300  0.5605220  0.8528560  )
        14           S   tau(  14) = (  0.5236700  0.3765260  0.5841920  )
        15           S   tau(  15) = (  0.2076660  0.0605220  0.5841920  )
        16           S   tau(  16) = (  0.2923340  0.8765260  0.8528560  )
        17           S   tau(  17) = (  0.0236700  0.4394780  0.1471440  )
        18           S   tau(  18) = (  0.4763300  0.6234740  0.4158080  )

     number of k points=     1  Methfessel-Paxton smearing, width (Ry)=  0.0010
                       cart. coord. in units 2pi/alat
        k(    1) = (   0.0000000   0.0000000   0.0000000), wk =   2.0000000

                       cryst. coord.
        k(    1) = (   0.0000000   0.0000000   0.0000000), wk =   2.0000000

     Dense  grid:   102048 G-vectors     FFT dimensions: (  90,  90,  90)

     Smooth grid:    36075 G-vectors     FFT dimensions: (  64,  64,  64)

     Dynamical RAM for                 wfc:       0.26 MB

     Dynamical RAM for     wfc (w. buffer):       0.26 MB

     Dynamical RAM for           str. fact:       0.15 MB

     Dynamical RAM for           local pot:       0.00 MB

     Dynamical RAM for          nlocal pot:       0.69 MB

     Dynamical RAM for                qrad:       3.73 MB

     Dynamical RAM for          rho,v,vnew:       0.70 MB

     Dynamical RAM for               rhoin:       0.23 MB

     Dynamical RAM for            rho*nmix:       0.78 MB

     Dynamical RAM for           G-vectors:       0.19 MB

     Dynamical RAM for          h,s,v(r/c):       0.05 MB

     Dynamical RAM for          <psi|beta>:       0.30 MB

     Dynamical RAM for                 psi:       0.52 MB

     Dynamical RAM for                hpsi:       0.52 MB

     Dynamical RAM for                spsi:       0.52 MB

     Dynamical RAM for      wfcinit/wfcrot:       1.29 MB

     Dynamical RAM for           addusdens:       9.44 MB

     Dynamical RAM for          addusforce:      10.18 MB

     Dynamical RAM for         addusstress:       9.78 MB

     Estimated static dynamical RAM per process >       7.08 MB

     Estimated max dynamical RAM per process >      18.04 MB

     Estimated total dynamical RAM >     577.25 MB

     Initial potential from superposition of free atoms

     starting charge     203.8413, renormalised to     204.0000
     Starting wfcs are  162 randomized atomic wfcs

     total cpu time spent up to now is        1.5 secs

     Self-consistent Calculation

     iteration #  1     ecut=    30.00 Ry     beta= 0.70
     Davidson diagonalization with overlap

---- Real-time Memory Report at c_bands before calling an iterative solver
           152 MiB given to the printing process from OS
             0 MiB allocation reported by mallinfo(arena+hblkhd)
        165942 MiB available memory on the node where the printing process lives
------------------
     ethr =  1.00E-02,  avg # of iterations =  4.0

     Threshold (ethr) on eigenvalues was too large:
     Diagonalizing with lowered threshold

     Davidson diagonalization with overlap

---- Real-time Memory Report at c_bands before calling an iterative solver
           159 MiB given to the printing process from OS
             0 MiB allocation reported by mallinfo(arena+hblkhd)
        165921 MiB available memory on the node where the printing process lives
------------------
     ethr =  6.62E-04,  avg # of iterations =  2.0

     total cpu time spent up to now is        1.8 secs

     total energy              =   -3214.74845679 Ry
     estimated scf accuracy    <       1.33500463 Ry

     iteration #  2     ecut=    30.00 Ry     beta= 0.70
     Davidson diagonalization with overlap

---- Real-time Memory Report at c_bands before calling an iterative solver
           163 MiB given to the printing process from OS
             0 MiB allocation reported by mallinfo(arena+hblkhd)
        165851 MiB available memory on the node where the printing process lives
------------------
     ethr =  6.54E-04,  avg # of iterations =  4.0

     total cpu time spent up to now is        2.0 secs

     total energy              =   -3215.05598130 Ry
     estimated scf accuracy    <       1.72393816 Ry

     iteration #  3     ecut=    30.00 Ry     beta= 0.70
     Davidson diagonalization with overlap

---- Real-time Memory Report at c_bands before calling an iterative solver
           166 MiB given to the printing process from OS
             0 MiB allocation reported by mallinfo(arena+hblkhd)
        165790 MiB available memory on the node where the printing process lives
------------------
     ethr =  6.54E-04,  avg # of iterations =  2.0

     total cpu time spent up to now is        2.2 secs

     total energy              =   -3215.39836573 Ry
     estimated scf accuracy    <       0.02705703 Ry

     iteration #  4     ecut=    30.00 Ry     beta= 0.70
     Davidson diagonalization with overlap

---- Real-time Memory Report at c_bands before calling an iterative solver
           167 MiB given to the printing process from OS
             0 MiB allocation reported by mallinfo(arena+hblkhd)
        165790 MiB available memory on the node where the printing process lives
------------------
     ethr =  1.33E-05,  avg # of iterations = 11.0

     total cpu time spent up to now is        2.5 secs

     total energy              =   -3215.40561255 Ry
     estimated scf accuracy    <       0.00223179 Ry

     iteration #  5     ecut=    30.00 Ry     beta= 0.70
     Davidson diagonalization with overlap

---- Real-time Memory Report at c_bands before calling an iterative solver
           168 MiB given to the printing process from OS
             0 MiB allocation reported by mallinfo(arena+hblkhd)
        165790 MiB available memory on the node where the printing process lives
------------------
     ethr =  1.09E-06,  avg # of iterations =  8.0

     total cpu time spent up to now is        2.8 secs

     total energy              =   -3215.40593195 Ry
     estimated scf accuracy    <       0.00099097 Ry

     iteration #  6     ecut=    30.00 Ry     beta= 0.70
     Davidson diagonalization with overlap

---- Real-time Memory Report at c_bands before calling an iterative solver
           169 MiB given to the printing process from OS
             0 MiB allocation reported by mallinfo(arena+hblkhd)
        165791 MiB available memory on the node where the printing process lives
------------------
     ethr =  4.86E-07,  avg # of iterations =  2.0

     total cpu time spent up to now is        3.0 secs

     total energy              =   -3215.40613159 Ry
     estimated scf accuracy    <       0.00005404 Ry

     iteration #  7     ecut=    30.00 Ry     beta= 0.70
     Davidson diagonalization with overlap

---- Real-time Memory Report at c_bands before calling an iterative solver
           169 MiB given to the printing process from OS
             0 MiB allocation reported by mallinfo(arena+hblkhd)
        165789 MiB available memory on the node where the printing process lives
------------------
     ethr =  2.65E-08,  avg # of iterations =  5.0

     total cpu time spent up to now is        3.3 secs

     total energy              =   -3215.40614645 Ry
     estimated scf accuracy    <       0.00000562 Ry

     iteration #  8     ecut=    30.00 Ry     beta= 0.70
     Davidson diagonalization with overlap

---- Real-time Memory Report at c_bands before calling an iterative solver
           170 MiB given to the printing process from OS
             0 MiB allocation reported by mallinfo(arena+hblkhd)
        165788 MiB available memory on the node where the printing process lives
------------------
     ethr =  2.75E-09,  avg # of iterations =  5.0

     total cpu time spent up to now is        3.5 secs

     End of self-consistent calculation

          k = 0.0000 0.0000 0.0000 (  4509 PWs)   bands (ev):

  -119.2611-119.2601-119.2598-119.2586-119.2538-119.2516 -73.3855 -73.3844
   -73.3833 -73.3815 -73.3795 -73.3769 -73.3681 -73.3661 -73.3652 -73.3621
   -73.3596 -73.3591 -73.3584 -73.3543 -73.3541 -73.3500 -73.3466 -73.3355
   -15.4663 -15.4065 -15.3782 -15.3207  -6.5951  -6.3575  -6.0373  -5.7940
    -5.7690  -5.7545  -5.7362  -5.6905  -2.6847  -2.6678  -2.3689  -2.2953
    -2.2825  -2.2597  -2.2525  -2.2311  -2.1815  -2.1107  -1.9356  -1.9145
    -0.5775  -0.5717  -0.5188  -0.4627  -0.4545  -0.4159  -0.3251  -0.3157
    -0.3021  -0.2739  -0.2701  -0.2327  -0.1979  -0.1931  -0.1877  -0.1847
    -0.1656  -0.1519  -0.1354  -0.1305  -0.1235  -0.1084  -0.0868  -0.0739
    -0.0650  -0.0227   0.0003   0.0238   0.0604   0.0890   1.5996   1.6553
     2.1320   2.1436   2.3375   2.5041   2.8461   3.2545   3.3692   3.4161
     3.5166   3.6798   3.9940   4.0492   4.0627   4.3805   4.6421   4.7136
     4.7668   4.7848   4.8519   5.3714   5.3867   5.4346   8.1545   9.0069
     9.1335   9.4681   9.8746   9.9850  10.3053  10.3147  10.3171  10.3303
    10.4715  10.6136  10.9103  11.2157  11.2858  11.3136  11.3671  11.5682
    11.6230  11.6891

     occupation numbers 
     1.0000   1.0000   1.0000   1.0000   1.0000   1.0000   1.0000   1.0000
     1.0000   1.0000   1.0000   1.0000   1.0000   1.0000   1.0000   1.0000
     1.0000   1.0000   1.0000   1.0000   1.0000   1.0000   1.0000   1.0000
     1.0000   1.0000   1.0000   1.0000   1.0000   1.0000   1.0000   1.0000
     1.0000   1.0000   1.0000   1.0000   1.0000   1.0000   1.0000   1.0000
     1.0000   1.0000   1.0000   1.0000   1.0000   1.0000   1.0000   1.0000
     1.0000   1.0000   1.0000   1.0000   1.0000   1.0000   1.0000   1.0000
     1.0000   1.0000   1.0000   1.0000   1.0000   1.0000   1.0000   1.0000
     1.0000   1.0000   1.0000   1.0000   1.0000   1.0000   1.0000   1.0000
     1.0000   1.0000   1.0000   1.0000   1.0000   1.0000   1.0000   1.0000
     1.0000   1.0000   1.0000   1.0000   1.0000   1.0000   1.0000   1.0000
     1.0000   1.0000   1.0000   1.0000   1.0000   1.0000   1.0000   1.0000
     1.0000   1.0000   1.0000   1.0000   1.0000   1.0000  -0.0000  -0.0000
    -0.0000  -0.0000  -0.0000  -0.0000  -0.0000  -0.0000  -0.0000  -0.0000
    -0.0000  -0.0000  -0.0000  -0.0000  -0.0000  -0.0000  -0.0000  -0.0000
    -0.0000  -0.0000

     the Fermi energy is     7.7244 ev

!    total energy              =   -3215.40614866 Ry
     estimated scf accuracy    <       0.00000080 Ry
     smearing contrib. (-TS)   =       0.00000000 Ry
     internal energy E=F+TS    =   -3215.40614866 Ry

     The total energy is F=E-TS. E is the sum of the following terms:
     one-electron contribution =   -3467.30380969 Ry
     hartree contribution      =    1789.30082502 Ry
     xc contribution           =    -441.98967485 Ry
     ewald contribution        =   -1095.41348914 Ry

     convergence has been achieved in   8 iterations

     Forces acting on atoms (cartesian axes, Ry/au):

     atom    1 type  1   force =    -0.00073560    0.00078642   -0.00021183
     atom    2 type  1   force =     0.00053325   -0.00058603    0.00074843
     atom    3 type  1   force =    -0.00053325    0.00058603   -0.00074843
     atom    4 type  1   force =     0.00073560   -0.00078642    0.00021183
     atom    5 type  2   force =     0.00002834    0.00002984   -0.00000868
     atom    6 type  2   force =    -0.00002834   -0.00002984    0.00000868
     atom    7 type  2   force =     0.00010502   -0.00010691    0.00007690
     atom    8 type  2   force =    -0.00008424    0.00010037   -0.00008196
     atom    9 type  2   force =    -0.00010502    0.00010691   -0.00007690
     atom   10 type  2   force =     0.00008424   -0.00010037    0.00008196
     atom   11 type  3   force =     0.00384967    0.00018042    0.00009799
     atom   12 type  3   force =    -0.00319843   -0.00088309   -0.00195161
     atom   13 type  3   force =    -0.00116037   -0.00311364    0.00195027
     atom   14 type  3   force =     0.00051161    0.00381593   -0.00009613
     atom   15 type  3   force =    -0.00384967   -0.00018042   -0.00009799
     atom   16 type  3   force =     0.00319843    0.00088309    0.00195161
     atom   17 type  3   force =     0.00116037    0.00311364   -0.00195027
     atom   18 type  3   force =    -0.00051161   -0.00381593    0.00009613
     The non-local contrib.  to forces
     atom    1 type  1   force =     0.00786128   -0.00854807    0.00395492
     atom    2 type  1   force =    -0.00672029    0.00733665   -0.00713792
     atom    3 type  1   force =     0.00672029   -0.00733665    0.00713792
     atom    4 type  1   force =    -0.00786128    0.00854807   -0.00395492
     atom    5 type  2   force =     0.00000822    0.00001982    0.00000188
     atom    6 type  2   force =    -0.00000822   -0.00001982   -0.00000188
     atom    7 type  2   force =     0.00486181   -0.00529126    0.00368978
     atom    8 type  2   force =    -0.00484923    0.00530468   -0.00370609
     atom    9 type  2   force =    -0.00486181    0.00529126   -0.00368978
     atom   10 type  2   force =     0.00484923   -0.00530468    0.00370609
     atom   11 type  3   force =     0.13496757    0.09494372    0.02420873
     atom   12 type  3   force =    -0.14226985   -0.08696666   -0.00317229
     atom   13 type  3   force =    -0.09897905   -0.13419332    0.00317481
     atom   14 type  3   force =     0.10629774    0.12621513   -0.02420704
     atom   15 type  3   force =    -0.13496757   -0.09494372   -0.02420873
     atom   16 type  3   force =     0.14226985    0.08696666    0.00317229
     atom   17 type  3   force =     0.09897905    0.13419332   -0.00317481
     atom   18 type  3   force =    -0.10629774   -0.12621513    0.02420704
     The ionic contribution  to forces
     atom    1 type  1   force =     0.68535895   -0.74765608    1.66595261
     atom    2 type  1   force =    -1.31434181    1.43381164    0.14420249
     atom    3 type  1   force =     1.31434181   -1.43381164   -0.14420249
     atom    4 type  1   force =    -0.68535895    0.74765608   -1.66595261
     atom    5 type  2   force =     0.00000000    0.00000000    0.00000000
     atom    6 type  2   force =    -0.00000000    0.00000000   -0.00000000
     atom    7 type  2   force =     8.05383328   -8.78590319    6.12887787
     atom    8 type  2   force =    -8.05383328    8.78590319   -6.12887787
     atom    9 type  2   force =    -8.05383328    8.78590319   -6.12887787
     atom   10 type  2   force =     8.05383328   -8.78590319    6.12887787
     atom   11 type  3   force =   -14.02875612   -9.41582555   -4.51121794
     atom   12 type  3   force =    15.79068286    7.49374481   -0.55944592
     atom   13 type  3   force =     8.83581318   15.08079182    0.55944592
     atom   14 type  3   force =   -10.59773992  -13.15871109    4.51121794
     atom   15 type  3   force =    14.02875612    9.41582555    4.51121794
     atom   16 type  3   force =   -15.79068286   -7.49374481    0.55944592
     atom   17 type  3   force =    -8.83581318  -15.08079182   -0.55944592
     atom   18 type  3   force =    10.59773992   13.15871109   -4.51121794
     The local contribution  to forces
     atom    1 type  1   force =    -0.69303228    0.75592482   -1.66933611
     atom    2 type  1   force =     1.32062741   -1.44068135   -0.13695264
     atom    3 type  1   force =    -1.32056834    1.44064127    0.13700448
     atom    4 type  1   force =     0.69300984   -0.75594547    1.66928846
     atom    5 type  2   force =    -0.00003976   -0.00001887    0.00000883
     atom    6 type  2   force =     0.00001227    0.00006708    0.00004012
     atom    7 type  2   force =    -8.05858567    8.79101612   -6.13248002
     atom    8 type  2   force =     8.05856465   -8.79107645    6.13250245
     atom    9 type  2   force =     8.05848949   -8.79100470    6.13243011
     atom   10 type  2   force =    -8.05846621    8.79099761   -6.13244598
     atom   11 type  3   force =    13.90507498    9.32621857    4.48839769
     atom   12 type  3   force =   -15.65943158   -7.41243354    0.56043100
     atom   13 type  3   force =    -8.74347428  -14.95707569   -0.56044219
     atom   14 type  3   force =    10.49777441   13.04332665   -4.48840967
     atom   15 type  3   force =   -13.90513418   -9.32622723   -4.48839628
     atom   16 type  3   force =    15.65944585    7.41242255   -0.56037845
     atom   17 type  3   force =     8.74339417   14.95706810    0.56039744
     atom   18 type  3   force =   -10.49769568  -13.04331738    4.48839938
     The core correction contribution to forces
     atom    1 type  1   force =    -0.00095895    0.00104151   -0.00086189
     atom    2 type  1   force =     0.00102766   -0.00112311    0.00065099
     atom    3 type  1   force =    -0.00102667    0.00111986   -0.00064971
     atom    4 type  1   force =     0.00095974   -0.00104263    0.00085995
     atom    5 type  2   force =     0.00000000    0.00000000    0.00000000
     atom    6 type  2   force =     0.00000000    0.00000000    0.00000000
     atom    7 type  2   force =     0.00000000    0.00000000    0.00000000
     atom    8 type  2   force =     0.00000000    0.00000000    0.00000000
     atom    9 type  2   force =     0.00000000    0.00000000    0.00000000
     atom   10 type  2   force =     0.00000000    0.00000000    0.00000000
     atom   11 type  3   force =    -0.00723947   -0.00513285   -0.00124438
     atom   12 type  3   force =     0.00760909    0.00472780    0.00017730
     atom   13 type  3   force =     0.00536948    0.00717029   -0.00017760
     atom   14 type  3   force =    -0.00574106   -0.00676520    0.00124453
     atom   15 type  3   force =     0.00723788    0.00513204    0.00124457
     atom   16 type  3   force =    -0.00760820   -0.00472801   -0.00017729
     atom   17 type  3   force =    -0.00537011   -0.00717022    0.00017732
     atom   18 type  3   force =     0.00574145    0.00676558   -0.00124387
     The Hubbard contrib.    to forces
     atom    1 type  1   force =     0.00000000    0.00000000    0.00000000
     atom    2 type  1   force =     0.00000000    0.00000000    0.00000000
     atom    3 type  1   force =     0.00000000    0.00000000    0.00000000
     atom    4 type  1   force =     0.00000000    0.00000000    0.00000000
     atom    5 type  2   force =     0.00000000    0.00000000    0.00000000
     atom    6 type  2   force =     0.00000000    0.00000000    0.00000000
     atom    7 type  2   force =     0.00000000    0.00000000    0.00000000
     atom    8 type  2   force =     0.00000000    0.00000000    0.00000000
     atom    9 type  2   force =     0.00000000    0.00000000    0.00000000
     atom   10 type  2   force =     0.00000000    0.00000000    0.00000000
     atom   11 type  3   force =     0.00000000    0.00000000    0.00000000
     atom   12 type  3   force =     0.00000000    0.00000000    0.00000000
     atom   13 type  3   force =     0.00000000    0.00000000    0.00000000
     atom   14 type  3   force =     0.00000000    0.00000000    0.00000000
     atom   15 type  3   force =     0.00000000    0.00000000    0.00000000
     atom   16 type  3   force =     0.00000000    0.00000000    0.00000000
     atom   17 type  3   force =     0.00000000    0.00000000    0.00000000
     atom   18 type  3   force =     0.00000000    0.00000000    0.00000000
     The SCF correction term to forces
     atom    1 type  1   force =     0.00003958    0.00002035    0.00006932
     atom    2 type  1   force =    -0.00005398    0.00005342   -0.00000651
     atom    3 type  1   force =     0.00000540   -0.00004352   -0.00003064
     atom    4 type  1   force =    -0.00000958   -0.00000637   -0.00003837
     atom    5 type  2   force =     0.00006998    0.00001453   -0.00003427
     atom    6 type  2   force =    -0.00002227   -0.00009146   -0.00004443
     atom    7 type  2   force =    -0.00000986    0.00004841   -0.00000964
     atom    8 type  2   force =     0.00002835   -0.00001563   -0.00002118
     atom    9 type  2   force =     0.00009514   -0.00010586    0.00006172
     atom   10 type  2   force =    -0.00013733    0.00012533   -0.00007674
     atom   11 type  3   force =    -0.00020661   -0.00002888   -0.00004416
     atom   12 type  3   force =     0.00021508    0.00004149    0.00005959
     atom   13 type  3   force =     0.00010432    0.00019007   -0.00005409
     atom   14 type  3   force =    -0.00007573   -0.00024535    0.00005971
     atom   15 type  3   force =     0.00024876    0.00002754    0.00004646
     atom   16 type  3   force =    -0.00022216   -0.00003630   -0.00010957
     atom   17 type  3   force =    -0.00003554   -0.00018894    0.00009228
     atom   18 type  3   force =     0.00000426    0.00024413   -0.00004688

     Total force =     0.011118     Total SCF correction =     0.000744


     Computing stress (Cartesian axis) and pressure

          total   stress  (Ry/bohr**3)                   (kbar)     P=     -141.73
  -0.00098424  -0.00004961   0.00000025         -144.79       -7.30        0.04
  -0.00004961  -0.00097558  -0.00000026           -7.30     -143.51       -0.04
   0.00000025  -0.00000026  -0.00093066            0.04       -0.04     -136.91

     kinetic stress (kbar)  10585.52     19.37      3.37
                               19.37  10582.15     -3.67
                                3.37     -3.67  10557.26

     local   stress (kbar)  -5113.04  31471.46   1513.41
                            31471.46 -10596.01  -1650.98
                             1513.41  -1650.98 -42648.95

     nonloc. stress (kbar)   3199.48     -7.40     -1.95
                               -7.40   3200.77      2.13
                               -1.95      2.13   3211.69

     hartree stress (kbar)  20042.13 -15363.81   -678.61
                           -15363.81  22718.82    740.30
                             -678.61    740.30  38239.06

     exc-cor stress (kbar)    808.75     -0.83     -0.27
                               -0.83    808.89      0.30
                               -0.27      0.30    810.23

     corecor stress (kbar)  -5747.91     -0.19      0.06
                               -0.19  -5747.87     -0.06
                                0.06     -0.06  -5747.82

     ewald   stress (kbar) -23919.72 -16125.89   -835.96
                           -16125.89 -21110.27    911.95
                             -835.96    911.95  -4558.37

     hubbard stress (kbar)      0.00      0.00      0.00
                                0.00      0.00      0.00
                                0.00      0.00      0.00

     DFT-D   stress (kbar)      0.00      0.00      0.00
                                0.00      0.00      0.00
                                0.00      0.00      0.00

     XDM     stress (kbar)      0.00      0.00      0.00
                                0.00      0.00      0.00
                                0.00      0.00      0.00

     dft-nl  stress (kbar)      0.00      0.00      0.00
                                0.00      0.00      0.00
                                0.00      0.00      0.00

     TS-vdW  stress (kbar)      0.00      0.00      0.00
                                0.00      0.00      0.00
                                0.00      0.00      0.00


                                0.00      0.00      0.00
                                0.00      0.00      0.00


                                0.00      0.00      0.00


     Writing all to output data dir calculations/myprefix.save/
 
     init_run     :      1.05s CPU      1.11s WALL (       1 calls)
     electrons    :      1.91s CPU      2.10s WALL (       1 calls)
     forces       :      0.24s CPU      0.30s WALL (       1 calls)
     stress       :      0.59s CPU      0.65s WALL (       1 calls)

     Called by init_run:
     wfcinit      :      0.09s CPU      0.11s WALL (       1 calls)
     wfcinit:atom :      0.00s CPU      0.00s WALL (       1 calls)
     wfcinit:wfcr :      0.09s CPU      0.11s WALL (       1 calls)
     potinit      :      0.36s CPU      0.37s WALL (       1 calls)
     hinit0       :      0.55s CPU      0.57s WALL (       1 calls)

     Called by electrons:
     c_bands      :      1.11s CPU      1.16s WALL (       9 calls)
     sum_band     :      0.42s CPU      0.47s WALL (       9 calls)
     v_of_rho     :      0.12s CPU      0.13s WALL (       9 calls)
     v_h          :      0.01s CPU      0.01s WALL (       9 calls)
     v_xc         :      0.14s CPU      0.14s WALL (      11 calls)
     newd         :      0.27s CPU      0.31s WALL (       9 calls)
     mix_rho      :      0.01s CPU      0.02s WALL (       9 calls)

     Called by c_bands:
     init_us_2    :      0.00s CPU      0.01s WALL (      19 calls)
     init_us_2:cp :      0.00s CPU      0.01s WALL (      19 calls)
     regterg      :      1.08s CPU      1.13s WALL (       9 calls)

     Called by sum_band:
     sum_band:wei :      0.00s CPU      0.00s WALL (       9 calls)
     sum_band:loo :      0.08s CPU      0.09s WALL (       9 calls)
     sum_band:buf :      0.00s CPU      0.00s WALL (       9 calls)
     sum_band:ini :      0.00s CPU      0.00s WALL (       9 calls)
     sum_band:cal :      0.01s CPU      0.02s WALL (       9 calls)
     sum_band:bec :      0.00s CPU      0.00s WALL (       9 calls)
     addusdens    :      0.32s CPU      0.35s WALL (       9 calls)
     addusd:skk   :      0.00s CPU      0.00s WALL (      27 calls)
     addusd:dgemm :      0.12s CPU      0.14s WALL (      27 calls)
     addusd:qvan2 :      0.19s CPU      0.20s WALL (      27 calls)

     Called by *egterg:
     rdiaghg      :      0.56s CPU      0.58s WALL (      51 calls)
     regterg:over :      0.06s CPU      0.06s WALL (      43 calls)
     regterg:upda :      0.02s CPU      0.02s WALL (      43 calls)
     regterg:last :      0.04s CPU      0.04s WALL (      18 calls)
     rdiaghg:chol :      0.02s CPU      0.03s WALL (      51 calls)
     rdiaghg:inve :      0.00s CPU      0.00s WALL (      51 calls)
     rdiaghg:para :      0.05s CPU      0.05s WALL (     102 calls)
     h_psi        :      0.45s CPU      0.48s WALL (      53 calls)
     s_psi        :      0.01s CPU      0.01s WALL (      53 calls)
     g_psi        :      0.00s CPU      0.00s WALL (      43 calls)

     Called by h_psi:
     h_psi:calbec :      0.04s CPU      0.04s WALL (      53 calls)
     vloc_psi     :      0.39s CPU      0.42s WALL (      53 calls)
     add_vuspsi   :      0.02s CPU      0.02s WALL (      53 calls)

     General routines
     calbec       :      0.06s CPU      0.10s WALL (      67 calls)
     fft          :      0.44s CPU      0.45s WALL (     118 calls)
     ffts         :      0.25s CPU      0.25s WALL (      18 calls)
     fftw         :      0.42s CPU      0.44s WALL (    3535 calls)
     interpolate  :      0.25s CPU      0.25s WALL (       9 calls)
 
     Parallel routines
 
     PWSCF        :      4.11s CPU      4.80s WALL

 
   This run was terminated on:  19:54:27   4Mar2023            

=------------------------------------------------------------------------------=
   JOB DONE.
=------------------------------------------------------------------------------=
