
     Program PWSCF v.7.0 starts on  6Mar2023 at  9:19:51 

     This program is part of the open-source Quantum ESPRESSO suite
     for quantum simulation of materials; please cite
         "P. Giannozzi et al., J. Phys.:Condens. Matter 21 395502 (2009);
         "P. Giannozzi et al., J. Phys.:Condens. Matter 29 465901 (2017);
         "P. Giannozzi et al., J. Chem. Phys. 152 154105 (2020);
          URL http://www.quantum-espresso.org", 
     in publications or presentations arising from this work. More details at
     http://www.quantum-espresso.org/quote

     Parallel version (MPI & OpenMP), running on      32 processor cores
     Number of MPI processes:                32
     Threads/MPI process:                     1

     MPI processes distributed on     1 nodes
     R & G space division:  proc/nbgrp/npool/nimage =      32
     166138 MiB available memory on the printing compute node when the environment starts
 
     Reading input from espresso_4114.pwi
Warning: card &CELL ignored
Warning: card / ignored

     Current dimensions of program PWSCF are:
     Max number of different atomic species (ntypx) = 10
     Max number of k-points (npk) =  40000
     Max angular momentum in pseudopotentials (lmaxx) =  4
     file O.pbe-n-kjpaw_psl.0.1.UPF: wavefunction(s)  2P renormalized

     gamma-point specific algorithms are used
     Message from routine setup:
     using ibrav=0 with symmetry is DISCOURAGED, use correct ibrav instead

     Subspace diagonalization in iterative solution of the eigenvalue problem:
     one sub-group per band group will be used
     scalapack distributed-memory algorithm (size of sub-group:  5*  5 procs)

 
     Parallelization info
     --------------------
     sticks:   dense  smooth     PW     G-vecs:    dense   smooth      PW
     Min          30      14      2                 1382      480      48
     Max          32      16      4                 1406      502      68
     Sum        1003     505    125                44585    15789    1985
 
     Using Slab Decomposition
 


     bravais-lattice index     =            0
     lattice parameter (alat)  =       5.4715  a.u.
     unit-cell volume          =     709.5327 (a.u.)^3
     number of atoms/cell      =           12
     number of atomic types    =            3
     number of electrons       =        78.00
     number of Kohn-Sham states=           47
     kinetic-energy cutoff     =      30.0000  Ry
     charge density cutoff     =     240.0000  Ry
     scf convergence threshold =      1.0E-06
     mixing beta               =       0.7000
     number of iterations used =            8  plain     mixing
     Exchange-correlation= SLA  PW   PBX  PBC
                           (   1   4   3   4   0   0   0)

     celldm(1)=   5.471513  celldm(2)=   0.000000  celldm(3)=   0.000000
     celldm(4)=   0.000000  celldm(5)=   0.000000  celldm(6)=   0.000000

     crystal axes: (cart. coord. in units of alat)
               a(1) = (   1.000000   0.000000   0.000000 )  
               a(2) = (   0.007534   1.750528   0.000000 )  
               a(3) = (  -0.488193  -0.813486   2.474463 )  

     reciprocal axes: (cart. coord. in units 2 pi/alat)
               b(1) = (  1.000000 -0.004304  0.195878 )  
               b(2) = (  0.000000  0.571256  0.187802 )  
               b(3) = (  0.000000  0.000000  0.404128 )  


     PseudoPot. # 1 for Li read from file:
     /home/pragov/projects/rrg-bengioy-ad/pragov/crystal_structure_design/SSSP/li_pbe_v1.4.uspp.F.UPF
     MD5 check sum: e912e257baa3777c20ea3d68f190483c
     Pseudo is Ultrasoft, Zval =  3.0
     Generated by new atomic code, or converted to UPF format
     Using radial grid of  751 points,  5 beta functions with: 
                l(1) =   0
                l(2) =   0
                l(3) =   0
                l(4) =   1
                l(5) =   1
     Q(r) pseudized with 10 coefficients,  rinner =    1.150   1.150   1.150


     PseudoPot. # 2 for Mn read from file:
     /home/pragov/projects/rrg-bengioy-ad/pragov/crystal_structure_design/SSSP/mn_pbe_v1.5.uspp.F.UPF
     MD5 check sum: 82ef2b46521d7a7d9e736dc3972e4928
     Pseudo is Ultrasoft + core correction, Zval = 15.0
     Generated by new atomic code, or converted to UPF format
     Using radial grid of  859 points,  6 beta functions with: 
                l(1) =   0
                l(2) =   0
                l(3) =   1
                l(4) =   1
                l(5) =   2
                l(6) =   2
     Q(r) pseudized with  8 coefficients,  rinner =    0.950   0.950   0.950
                                                       0.950   0.950

     PseudoPot. # 3 for O  read from file:
     /home/pragov/projects/rrg-bengioy-ad/pragov/crystal_structure_design/SSSP/O.pbe-n-kjpaw_psl.0.1.UPF
     MD5 check sum: 0234752ac141de4415c5fc33072bef88
     Pseudo is Projector augmented-wave + core cor, Zval =  6.0
     Generated using "atomic" code by A. Dal Corso  v.5.0.99 svn rev. 10869
     Shape of augmentation charge: BESSEL
     Using radial grid of 1095 points,  4 beta functions with: 
                l(1) =   0
                l(2) =   0
                l(3) =   1
                l(4) =   1
     Q(r) pseudized with 0 coefficients 


     atomic species   valence    mass     pseudopotential
        Li             3.00     6.94000     Li( 1.00)
        Mn            15.00    54.93804     Mn( 1.00)
        O              6.00    15.99900     O ( 1.00)

      2 Sym. Ops., with inversion, found


                                    s                        frac. trans.

      isym =  1     identity                                     

 cryst.   s( 1) = (     1          0          0      )
                  (     0          1          0      )
                  (     0          0          1      )

 cart.    s( 1) = (  1.0000000  0.0000000  0.0000000 )
                  (  0.0000000  1.0000000  0.0000000 )
                  (  0.0000000  0.0000000  1.0000000 )


      isym =  2     inversion                                    

 cryst.   s( 2) = (    -1          0          0      )
                  (     0         -1          0      )
                  (     0          0         -1      )

 cart.    s( 2) = ( -1.0000000 -0.0000000 -0.0000000 )
                  (  0.0000000 -1.0000000 -0.0000000 )
                  (  0.0000000  0.0000000 -1.0000000 )


   Cartesian axes

     site n.     atom                  positions (alat units)
         1           Li  tau(   1) = (   0.2548345   0.7535065   0.4367996  )
         2           Li  tau(   2) = (  -0.2403298   0.4685211   1.2372315  )
         3           Li  tau(   3) = (   0.2645059   0.1835357   2.0376633  )
         4           Li  tau(   4) = (   0.2559033  -0.4067431   1.2372315  )
         5           Mn  tau(   5) = (  -0.2365610  -0.6591091   2.0401922  )
         6           Mn  tau(   6) = (   0.7559013   1.5961513   0.4342707  )
         7           O   tau(   7) = (   0.2624798  -0.4297518   2.4449871  )
         8           O   tau(   8) = (   0.2493110   0.1351210   0.7733216  )
         9           O   tau(   9) = (  -0.2365953  -0.1366139   1.6900706  )
        10           O   tau(  10) = (   0.7559356   1.0736561   0.7843924  )
        11           O   tau(  11) = (   0.2700294   0.8019212   1.7011413  )
        12           O   tau(  12) = (   0.2568606   1.3667940   0.0294758  )

   Crystallographic axes

     site n.     atom                  positions (cryst. coord.)
         1           Li  tau(   1) = (  0.3371510  0.5124770  0.1765230  )
         2           Li  tau(   2) = (  0.0000000  0.5000000  0.5000000  )
         3           Li  tau(   3) = (  0.6628490  0.4875230  0.8234770  )
         4           Li  tau(   4) = (  0.5000000 -0.0000000  0.5000000  )
         5           Mn  tau(   5) = (  0.1659040  0.0066320  0.8244990  )
         6           Mn  tau(   6) = (  0.8340960  0.9933680  0.1755010  )
         7           O   tau(   7) = (  0.7432480  0.2136750  0.9880880  )
         8           O   tau(   8) = (  0.4002060  0.2224200  0.3125210  )
         9           O   tau(   9) = (  0.0950400  0.2393570  0.6830050  )
        10           O   tau(  10) = (  0.9049600  0.7606430  0.3169950  )
        11           O   tau(  11) = (  0.5997940  0.7775800  0.6874790  )
        12           O   tau(  12) = (  0.2567520  0.7863250  0.0119120  )

     number of k points=     1  Methfessel-Paxton smearing, width (Ry)=  0.0010
                       cart. coord. in units 2pi/alat
        k(    1) = (   0.0000000   0.0000000   0.0000000), wk =   2.0000000

                       cryst. coord.
        k(    1) = (   0.0000000   0.0000000   0.0000000), wk =   2.0000000

     Dense  grid:    22293 G-vectors     FFT dimensions: (  27,  48,  72)

     Smooth grid:     7895 G-vectors     FFT dimensions: (  20,  36,  54)

     Dynamical RAM for                 wfc:       0.02 MB

     Dynamical RAM for     wfc (w. buffer):       0.02 MB

     Dynamical RAM for           str. fact:       0.03 MB

     Dynamical RAM for           local pot:       0.00 MB

     Dynamical RAM for          nlocal pot:       0.05 MB

     Dynamical RAM for                qrad:       3.73 MB

     Dynamical RAM for          rho,v,vnew:       0.12 MB

     Dynamical RAM for               rhoin:       0.04 MB

     Dynamical RAM for            rho*nmix:       0.17 MB

     Dynamical RAM for           G-vectors:       0.04 MB

     Dynamical RAM for          h,s,v(r/c):       0.01 MB

     Dynamical RAM for          <psi|beta>:       0.04 MB

     Dynamical RAM for                 psi:       0.04 MB

     Dynamical RAM for                hpsi:       0.04 MB

     Dynamical RAM for                spsi:       0.04 MB

     Dynamical RAM for      wfcinit/wfcrot:       0.18 MB

     Dynamical RAM for           addusdens:       2.04 MB

     Dynamical RAM for          addusforce:       2.18 MB

     Dynamical RAM for         addusstress:       2.14 MB

     Estimated static dynamical RAM per process >       4.23 MB

     Estimated max dynamical RAM per process >       6.59 MB

     Estimated total dynamical RAM >     210.73 MB

     Check: negative core charge=   -0.000027

     Initial potential from superposition of free atoms

     starting charge      75.1969, renormalised to      78.0000
     Starting wfcs are   70 randomized atomic wfcs
     Checking if some PAW data can be deallocated... 
       PAW data deallocated on   18 nodes for type:  3

     total cpu time spent up to now is        1.0 secs

     Self-consistent Calculation

     iteration #  1     ecut=    30.00 Ry     beta= 0.70
     Davidson diagonalization with overlap

---- Real-time Memory Report at c_bands before calling an iterative solver
           132 MiB given to the printing process from OS
             0 MiB allocation reported by mallinfo(arena+hblkhd)
        165374 MiB available memory on the node where the printing process lives
------------------
     ethr =  1.00E-02,  avg # of iterations =  3.0

     total cpu time spent up to now is        1.0 secs

     total energy              =    -705.09389330 Ry
     estimated scf accuracy    <      32.52246606 Ry

     iteration #  2     ecut=    30.00 Ry     beta= 0.70
     Davidson diagonalization with overlap

---- Real-time Memory Report at c_bands before calling an iterative solver
           134 MiB given to the printing process from OS
             0 MiB allocation reported by mallinfo(arena+hblkhd)
        165336 MiB available memory on the node where the printing process lives
------------------
     ethr =  1.00E-02,  avg # of iterations =  8.0

     total cpu time spent up to now is        1.1 secs

     total energy              =    -709.36169751 Ry
     estimated scf accuracy    <     307.45567968 Ry

     iteration #  3     ecut=    30.00 Ry     beta= 0.70
     Davidson diagonalization with overlap

---- Real-time Memory Report at c_bands before calling an iterative solver
           136 MiB given to the printing process from OS
             0 MiB allocation reported by mallinfo(arena+hblkhd)
        165339 MiB available memory on the node where the printing process lives
------------------
     ethr =  1.00E-02,  avg # of iterations = 10.0

     total cpu time spent up to now is        1.2 secs

     total energy              =    -727.64231102 Ry
     estimated scf accuracy    <      64.41191326 Ry

     iteration #  4     ecut=    30.00 Ry     beta= 0.70
     Davidson diagonalization with overlap

---- Real-time Memory Report at c_bands before calling an iterative solver
           137 MiB given to the printing process from OS
             0 MiB allocation reported by mallinfo(arena+hblkhd)
        165339 MiB available memory on the node where the printing process lives
------------------
     ethr =  1.00E-02,  avg # of iterations =  2.0

     total cpu time spent up to now is        1.3 secs

     total energy              =    -729.61490793 Ry
     estimated scf accuracy    <      18.45170059 Ry

     iteration #  5     ecut=    30.00 Ry     beta= 0.70
     Davidson diagonalization with overlap

---- Real-time Memory Report at c_bands before calling an iterative solver
           138 MiB given to the printing process from OS
             0 MiB allocation reported by mallinfo(arena+hblkhd)
        165336 MiB available memory on the node where the printing process lives
------------------
     ethr =  1.00E-02,  avg # of iterations =  1.0

     total cpu time spent up to now is        1.3 secs

     total energy              =    -730.10460801 Ry
     estimated scf accuracy    <       3.43881858 Ry

     iteration #  6     ecut=    30.00 Ry     beta= 0.70
     Davidson diagonalization with overlap

---- Real-time Memory Report at c_bands before calling an iterative solver
           138 MiB given to the printing process from OS
             0 MiB allocation reported by mallinfo(arena+hblkhd)
        165336 MiB available memory on the node where the printing process lives
------------------
     ethr =  4.41E-03,  avg # of iterations =  1.0

     total cpu time spent up to now is        1.4 secs

     total energy              =    -730.07342491 Ry
     estimated scf accuracy    <      10.58030012 Ry

     iteration #  7     ecut=    30.00 Ry     beta= 0.70
     Davidson diagonalization with overlap

---- Real-time Memory Report at c_bands before calling an iterative solver
           139 MiB given to the printing process from OS
             0 MiB allocation reported by mallinfo(arena+hblkhd)
        165334 MiB available memory on the node where the printing process lives
------------------
     ethr =  4.41E-03,  avg # of iterations =  1.0

     total cpu time spent up to now is        1.4 secs

     total energy              =    -730.24268842 Ry
     estimated scf accuracy    <       0.84183851 Ry

     iteration #  8     ecut=    30.00 Ry     beta= 0.70
     Davidson diagonalization with overlap

---- Real-time Memory Report at c_bands before calling an iterative solver
           139 MiB given to the printing process from OS
             0 MiB allocation reported by mallinfo(arena+hblkhd)
        165334 MiB available memory on the node where the printing process lives
------------------
     ethr =  1.08E-03,  avg # of iterations =  1.0

     total cpu time spent up to now is        1.5 secs

     total energy              =    -730.24278686 Ry
     estimated scf accuracy    <       0.96525238 Ry

     iteration #  9     ecut=    30.00 Ry     beta= 0.70
     Davidson diagonalization with overlap

---- Real-time Memory Report at c_bands before calling an iterative solver
           139 MiB given to the printing process from OS
             0 MiB allocation reported by mallinfo(arena+hblkhd)
        165331 MiB available memory on the node where the printing process lives
------------------
     ethr =  1.08E-03,  avg # of iterations =  1.0

     total cpu time spent up to now is        1.5 secs

     total energy              =    -730.18779909 Ry
     estimated scf accuracy    <       0.79295058 Ry

     iteration # 10     ecut=    30.00 Ry     beta= 0.70
     Davidson diagonalization with overlap

---- Real-time Memory Report at c_bands before calling an iterative solver
           140 MiB given to the printing process from OS
             0 MiB allocation reported by mallinfo(arena+hblkhd)
        165331 MiB available memory on the node where the printing process lives
------------------
     ethr =  1.02E-03,  avg # of iterations =  1.0

     total cpu time spent up to now is        1.6 secs

     total energy              =    -730.09128135 Ry
     estimated scf accuracy    <       0.40183139 Ry

     iteration # 11     ecut=    30.00 Ry     beta= 0.70
     Davidson diagonalization with overlap

---- Real-time Memory Report at c_bands before calling an iterative solver
           140 MiB given to the printing process from OS
             0 MiB allocation reported by mallinfo(arena+hblkhd)
        165331 MiB available memory on the node where the printing process lives
------------------
     ethr =  5.15E-04,  avg # of iterations =  2.0

     total cpu time spent up to now is        1.6 secs

     total energy              =    -730.13517181 Ry
     estimated scf accuracy    <       0.80122430 Ry

     iteration # 12     ecut=    30.00 Ry     beta= 0.70
     Davidson diagonalization with overlap

---- Real-time Memory Report at c_bands before calling an iterative solver
           140 MiB given to the printing process from OS
             0 MiB allocation reported by mallinfo(arena+hblkhd)
        165331 MiB available memory on the node where the printing process lives
------------------
     ethr =  5.15E-04,  avg # of iterations =  1.0

     total cpu time spent up to now is        1.7 secs

     total energy              =    -730.13455435 Ry
     estimated scf accuracy    <       0.46004263 Ry

     iteration # 13     ecut=    30.00 Ry     beta= 0.70
     Davidson diagonalization with overlap

---- Real-time Memory Report at c_bands before calling an iterative solver
           140 MiB given to the printing process from OS
             0 MiB allocation reported by mallinfo(arena+hblkhd)
        165331 MiB available memory on the node where the printing process lives
------------------
     ethr =  5.15E-04,  avg # of iterations =  1.0

     total cpu time spent up to now is        1.7 secs

     total energy              =    -730.10798569 Ry
     estimated scf accuracy    <       0.49517997 Ry

     iteration # 14     ecut=    30.00 Ry     beta= 0.70
     Davidson diagonalization with overlap

---- Real-time Memory Report at c_bands before calling an iterative solver
           140 MiB given to the printing process from OS
             0 MiB allocation reported by mallinfo(arena+hblkhd)
        165331 MiB available memory on the node where the printing process lives
------------------
     ethr =  5.15E-04,  avg # of iterations =  1.0

     total cpu time spent up to now is        1.8 secs

     total energy              =    -730.09492473 Ry
     estimated scf accuracy    <       1.23586882 Ry

     iteration # 15     ecut=    30.00 Ry     beta= 0.70
     Davidson diagonalization with overlap

---- Real-time Memory Report at c_bands before calling an iterative solver
           140 MiB given to the printing process from OS
             0 MiB allocation reported by mallinfo(arena+hblkhd)
        165331 MiB available memory on the node where the printing process lives
------------------
     ethr =  5.15E-04,  avg # of iterations =  1.0

     total cpu time spent up to now is        1.8 secs

     total energy              =    -730.11514566 Ry
     estimated scf accuracy    <       1.00045599 Ry

     iteration # 16     ecut=    30.00 Ry     beta= 0.70
     Davidson diagonalization with overlap

---- Real-time Memory Report at c_bands before calling an iterative solver
           141 MiB given to the printing process from OS
             0 MiB allocation reported by mallinfo(arena+hblkhd)
        165331 MiB available memory on the node where the printing process lives
------------------
     ethr =  5.15E-04,  avg # of iterations =  1.0

     total cpu time spent up to now is        1.9 secs

     total energy              =    -730.09439124 Ry
     estimated scf accuracy    <       1.28938062 Ry

     iteration # 17     ecut=    30.00 Ry     beta= 0.70
     Davidson diagonalization with overlap

---- Real-time Memory Report at c_bands before calling an iterative solver
           141 MiB given to the printing process from OS
             0 MiB allocation reported by mallinfo(arena+hblkhd)
        165331 MiB available memory on the node where the printing process lives
------------------
     ethr =  5.15E-04,  avg # of iterations =  2.0

     total cpu time spent up to now is        1.9 secs

     total energy              =    -730.09836810 Ry
     estimated scf accuracy    <       1.78055262 Ry

     iteration # 18     ecut=    30.00 Ry     beta= 0.70
     Davidson diagonalization with overlap

---- Real-time Memory Report at c_bands before calling an iterative solver
           141 MiB given to the printing process from OS
             0 MiB allocation reported by mallinfo(arena+hblkhd)
        165329 MiB available memory on the node where the printing process lives
------------------
     ethr =  5.15E-04,  avg # of iterations =  1.0

     total cpu time spent up to now is        2.0 secs

     total energy              =    -730.11804000 Ry
     estimated scf accuracy    <       0.19807422 Ry

     iteration # 19     ecut=    30.00 Ry     beta= 0.70
     Davidson diagonalization with overlap

---- Real-time Memory Report at c_bands before calling an iterative solver
           141 MiB given to the printing process from OS
             0 MiB allocation reported by mallinfo(arena+hblkhd)
        165327 MiB available memory on the node where the printing process lives
------------------
     ethr =  2.54E-04,  avg # of iterations =  1.0

     total cpu time spent up to now is        2.0 secs

     total energy              =    -730.12481226 Ry
     estimated scf accuracy    <       0.22063604 Ry

     iteration # 20     ecut=    30.00 Ry     beta= 0.70
     Davidson diagonalization with overlap

---- Real-time Memory Report at c_bands before calling an iterative solver
           141 MiB given to the printing process from OS
             0 MiB allocation reported by mallinfo(arena+hblkhd)
        165326 MiB available memory on the node where the printing process lives
------------------
     ethr =  2.54E-04,  avg # of iterations =  1.0

     total cpu time spent up to now is        2.1 secs

     total energy              =    -730.13039549 Ry
     estimated scf accuracy    <       0.01690332 Ry

     iteration # 21     ecut=    30.00 Ry     beta= 0.70
     Davidson diagonalization with overlap

---- Real-time Memory Report at c_bands before calling an iterative solver
           141 MiB given to the printing process from OS
             0 MiB allocation reported by mallinfo(arena+hblkhd)
        165326 MiB available memory on the node where the printing process lives
------------------
     ethr =  2.17E-05,  avg # of iterations =  1.0

     total cpu time spent up to now is        2.1 secs

     total energy              =    -730.13072789 Ry
     estimated scf accuracy    <       0.04536031 Ry

     iteration # 22     ecut=    30.00 Ry     beta= 0.70
     Davidson diagonalization with overlap

---- Real-time Memory Report at c_bands before calling an iterative solver
           141 MiB given to the printing process from OS
             0 MiB allocation reported by mallinfo(arena+hblkhd)
        165326 MiB available memory on the node where the printing process lives
------------------
     ethr =  2.17E-05,  avg # of iterations =  1.0

     total cpu time spent up to now is        2.2 secs

     total energy              =    -730.13050195 Ry
     estimated scf accuracy    <       0.00378540 Ry

     iteration # 23     ecut=    30.00 Ry     beta= 0.70
     Davidson diagonalization with overlap

---- Real-time Memory Report at c_bands before calling an iterative solver
           141 MiB given to the printing process from OS
             0 MiB allocation reported by mallinfo(arena+hblkhd)
        165326 MiB available memory on the node where the printing process lives
------------------
     ethr =  4.85E-06,  avg # of iterations =  2.0

     total cpu time spent up to now is        2.2 secs

     total energy              =    -730.12966360 Ry
     estimated scf accuracy    <       0.03117353 Ry

     iteration # 24     ecut=    30.00 Ry     beta= 0.70
     Davidson diagonalization with overlap

---- Real-time Memory Report at c_bands before calling an iterative solver
           141 MiB given to the printing process from OS
             0 MiB allocation reported by mallinfo(arena+hblkhd)
        165326 MiB available memory on the node where the printing process lives
------------------
     ethr =  4.85E-06,  avg # of iterations =  2.0

     total cpu time spent up to now is        2.3 secs

     total energy              =    -730.12870433 Ry
     estimated scf accuracy    <       0.04663951 Ry

     iteration # 25     ecut=    30.00 Ry     beta= 0.70
     Davidson diagonalization with overlap

---- Real-time Memory Report at c_bands before calling an iterative solver
           141 MiB given to the printing process from OS
             0 MiB allocation reported by mallinfo(arena+hblkhd)
        165326 MiB available memory on the node where the printing process lives
------------------
     ethr =  4.85E-06,  avg # of iterations =  2.0

     total cpu time spent up to now is        2.4 secs

     total energy              =    -730.12855016 Ry
     estimated scf accuracy    <       0.03312754 Ry

     iteration # 26     ecut=    30.00 Ry     beta= 0.70
     Davidson diagonalization with overlap

---- Real-time Memory Report at c_bands before calling an iterative solver
           141 MiB given to the printing process from OS
             0 MiB allocation reported by mallinfo(arena+hblkhd)
        165326 MiB available memory on the node where the printing process lives
------------------
     ethr =  4.85E-06,  avg # of iterations =  2.0

     total cpu time spent up to now is        2.4 secs

     total energy              =    -730.11846425 Ry
     estimated scf accuracy    <       0.46655044 Ry

     iteration # 27     ecut=    30.00 Ry     beta= 0.70
     Davidson diagonalization with overlap

---- Real-time Memory Report at c_bands before calling an iterative solver
           141 MiB given to the printing process from OS
             0 MiB allocation reported by mallinfo(arena+hblkhd)
        165326 MiB available memory on the node where the printing process lives
------------------
     ethr =  4.85E-06,  avg # of iterations =  1.0

     total cpu time spent up to now is        2.5 secs

     total energy              =    -730.13036398 Ry
     estimated scf accuracy    <       0.00326890 Ry

     iteration # 28     ecut=    30.00 Ry     beta= 0.70
     Davidson diagonalization with overlap

---- Real-time Memory Report at c_bands before calling an iterative solver
           141 MiB given to the printing process from OS
             0 MiB allocation reported by mallinfo(arena+hblkhd)
        165326 MiB available memory on the node where the printing process lives
------------------
     ethr =  4.19E-06,  avg # of iterations =  1.0

     total cpu time spent up to now is        2.5 secs

     total energy              =    -730.13049916 Ry
     estimated scf accuracy    <       0.00135405 Ry

     iteration # 29     ecut=    30.00 Ry     beta= 0.70
     Davidson diagonalization with overlap

---- Real-time Memory Report at c_bands before calling an iterative solver
           141 MiB given to the printing process from OS
             0 MiB allocation reported by mallinfo(arena+hblkhd)
        165326 MiB available memory on the node where the printing process lives
------------------
     ethr =  1.74E-06,  avg # of iterations =  1.0

     total cpu time spent up to now is        2.6 secs

     total energy              =    -730.13045733 Ry
     estimated scf accuracy    <       0.00263610 Ry

     iteration # 30     ecut=    30.00 Ry     beta= 0.70
     Davidson diagonalization with overlap

---- Real-time Memory Report at c_bands before calling an iterative solver
           141 MiB given to the printing process from OS
             0 MiB allocation reported by mallinfo(arena+hblkhd)
        165326 MiB available memory on the node where the printing process lives
------------------
     ethr =  1.74E-06,  avg # of iterations =  1.0

     total cpu time spent up to now is        2.6 secs

     total energy              =    -730.13048342 Ry
     estimated scf accuracy    <       0.00891553 Ry

     iteration # 31     ecut=    30.00 Ry     beta= 0.70
     Davidson diagonalization with overlap

---- Real-time Memory Report at c_bands before calling an iterative solver
           141 MiB given to the printing process from OS
             0 MiB allocation reported by mallinfo(arena+hblkhd)
        165326 MiB available memory on the node where the printing process lives
------------------
     ethr =  1.74E-06,  avg # of iterations =  1.0

     total cpu time spent up to now is        2.7 secs

     total energy              =    -730.13051752 Ry
     estimated scf accuracy    <       0.00080378 Ry

     iteration # 32     ecut=    30.00 Ry     beta= 0.70
     Davidson diagonalization with overlap

---- Real-time Memory Report at c_bands before calling an iterative solver
           141 MiB given to the printing process from OS
             0 MiB allocation reported by mallinfo(arena+hblkhd)
        165326 MiB available memory on the node where the printing process lives
------------------
     ethr =  1.03E-06,  avg # of iterations =  1.0

     total cpu time spent up to now is        2.7 secs

     total energy              =    -730.13051406 Ry
     estimated scf accuracy    <       0.00315268 Ry

     iteration # 33     ecut=    30.00 Ry     beta= 0.70
     Davidson diagonalization with overlap

---- Real-time Memory Report at c_bands before calling an iterative solver
           141 MiB given to the printing process from OS
             0 MiB allocation reported by mallinfo(arena+hblkhd)
        165326 MiB available memory on the node where the printing process lives
------------------
     ethr =  1.03E-06,  avg # of iterations =  1.0

     total cpu time spent up to now is        2.8 secs

     total energy              =    -730.13048235 Ry
     estimated scf accuracy    <       0.00176792 Ry

     iteration # 34     ecut=    30.00 Ry     beta= 0.70
     Davidson diagonalization with overlap

---- Real-time Memory Report at c_bands before calling an iterative solver
           141 MiB given to the printing process from OS
             0 MiB allocation reported by mallinfo(arena+hblkhd)
        165326 MiB available memory on the node where the printing process lives
------------------
     ethr =  1.03E-06,  avg # of iterations =  1.0

     total cpu time spent up to now is        2.8 secs

     total energy              =    -730.13045879 Ry
     estimated scf accuracy    <       0.00667773 Ry

     iteration # 35     ecut=    30.00 Ry     beta= 0.70
     Davidson diagonalization with overlap

---- Real-time Memory Report at c_bands before calling an iterative solver
           141 MiB given to the printing process from OS
             0 MiB allocation reported by mallinfo(arena+hblkhd)
        165326 MiB available memory on the node where the printing process lives
------------------
     ethr =  1.03E-06,  avg # of iterations =  1.0

     total cpu time spent up to now is        2.8 secs

     total energy              =    -730.12992544 Ry
     estimated scf accuracy    <       0.03200302 Ry

     iteration # 36     ecut=    30.00 Ry     beta= 0.70
     Davidson diagonalization with overlap

---- Real-time Memory Report at c_bands before calling an iterative solver
           141 MiB given to the printing process from OS
             0 MiB allocation reported by mallinfo(arena+hblkhd)
        165326 MiB available memory on the node where the printing process lives
------------------
     ethr =  1.03E-06,  avg # of iterations =  1.0

     total cpu time spent up to now is        2.9 secs

     total energy              =    -730.13005916 Ry
     estimated scf accuracy    <       0.00379416 Ry

     iteration # 37     ecut=    30.00 Ry     beta= 0.70
     Davidson diagonalization with overlap

---- Real-time Memory Report at c_bands before calling an iterative solver
           141 MiB given to the printing process from OS
             0 MiB allocation reported by mallinfo(arena+hblkhd)
        165326 MiB available memory on the node where the printing process lives
------------------
     ethr =  1.03E-06,  avg # of iterations =  2.0

     total cpu time spent up to now is        3.0 secs

     total energy              =    -730.12263491 Ry
     estimated scf accuracy    <       0.17738172 Ry

     iteration # 38     ecut=    30.00 Ry     beta= 0.70
     Davidson diagonalization with overlap

---- Real-time Memory Report at c_bands before calling an iterative solver
           141 MiB given to the printing process from OS
             0 MiB allocation reported by mallinfo(arena+hblkhd)
        165326 MiB available memory on the node where the printing process lives
------------------
     ethr =  1.03E-06,  avg # of iterations =  2.0

     total cpu time spent up to now is        3.0 secs

     total energy              =    -730.13037595 Ry
     estimated scf accuracy    <       0.00083328 Ry

     iteration # 39     ecut=    30.00 Ry     beta= 0.70
     Davidson diagonalization with overlap

---- Real-time Memory Report at c_bands before calling an iterative solver
           141 MiB given to the printing process from OS
             0 MiB allocation reported by mallinfo(arena+hblkhd)
        165328 MiB available memory on the node where the printing process lives
------------------
     ethr =  1.03E-06,  avg # of iterations =  1.0

     total cpu time spent up to now is        3.1 secs

     total energy              =    -730.13050815 Ry
     estimated scf accuracy    <       0.00097276 Ry

     iteration # 40     ecut=    30.00 Ry     beta= 0.70
     Davidson diagonalization with overlap

---- Real-time Memory Report at c_bands before calling an iterative solver
           141 MiB given to the printing process from OS
             0 MiB allocation reported by mallinfo(arena+hblkhd)
        165328 MiB available memory on the node where the printing process lives
------------------
     ethr =  1.03E-06,  avg # of iterations =  1.0

     total cpu time spent up to now is        3.1 secs

     total energy              =    -730.13046978 Ry
     estimated scf accuracy    <       0.00198084 Ry

     iteration # 41     ecut=    30.00 Ry     beta= 0.70
     Davidson diagonalization with overlap

---- Real-time Memory Report at c_bands before calling an iterative solver
           141 MiB given to the printing process from OS
             0 MiB allocation reported by mallinfo(arena+hblkhd)
        165328 MiB available memory on the node where the printing process lives
------------------
     ethr =  1.03E-06,  avg # of iterations =  1.0

     total cpu time spent up to now is        3.2 secs

     total energy              =    -730.13045635 Ry
     estimated scf accuracy    <       0.00085891 Ry

     iteration # 42     ecut=    30.00 Ry     beta= 0.70
     Davidson diagonalization with overlap

---- Real-time Memory Report at c_bands before calling an iterative solver
           141 MiB given to the printing process from OS
             0 MiB allocation reported by mallinfo(arena+hblkhd)
        165328 MiB available memory on the node where the printing process lives
------------------
     ethr =  1.03E-06,  avg # of iterations =  1.0

     total cpu time spent up to now is        3.2 secs

     total energy              =    -730.13045297 Ry
     estimated scf accuracy    <       0.00138152 Ry

     iteration # 43     ecut=    30.00 Ry     beta= 0.70
     Davidson diagonalization with overlap

---- Real-time Memory Report at c_bands before calling an iterative solver
           141 MiB given to the printing process from OS
             0 MiB allocation reported by mallinfo(arena+hblkhd)
        165328 MiB available memory on the node where the printing process lives
------------------
     ethr =  1.03E-06,  avg # of iterations =  1.0

     total cpu time spent up to now is        3.2 secs

     total energy              =    -730.13046823 Ry
     estimated scf accuracy    <       0.00171417 Ry

     iteration # 44     ecut=    30.00 Ry     beta= 0.70
     Davidson diagonalization with overlap

---- Real-time Memory Report at c_bands before calling an iterative solver
           141 MiB given to the printing process from OS
             0 MiB allocation reported by mallinfo(arena+hblkhd)
        165328 MiB available memory on the node where the printing process lives
------------------
     ethr =  1.03E-06,  avg # of iterations =  1.0

     total cpu time spent up to now is        3.3 secs

     total energy              =    -730.13050587 Ry
     estimated scf accuracy    <       0.00132245 Ry

     iteration # 45     ecut=    30.00 Ry     beta= 0.70
     Davidson diagonalization with overlap

---- Real-time Memory Report at c_bands before calling an iterative solver
           141 MiB given to the printing process from OS
             0 MiB allocation reported by mallinfo(arena+hblkhd)
        165328 MiB available memory on the node where the printing process lives
------------------
     ethr =  1.03E-06,  avg # of iterations =  1.0

     total cpu time spent up to now is        3.3 secs

     total energy              =    -730.13044835 Ry
     estimated scf accuracy    <       0.00282376 Ry

     iteration # 46     ecut=    30.00 Ry     beta= 0.70
     Davidson diagonalization with overlap

---- Real-time Memory Report at c_bands before calling an iterative solver
           141 MiB given to the printing process from OS
             0 MiB allocation reported by mallinfo(arena+hblkhd)
        165328 MiB available memory on the node where the printing process lives
------------------
     ethr =  1.03E-06,  avg # of iterations =  1.0

     total cpu time spent up to now is        3.4 secs

     total energy              =    -730.13064627 Ry
     estimated scf accuracy    <       0.00272971 Ry

     iteration # 47     ecut=    30.00 Ry     beta= 0.70
     Davidson diagonalization with overlap

---- Real-time Memory Report at c_bands before calling an iterative solver
           141 MiB given to the printing process from OS
             0 MiB allocation reported by mallinfo(arena+hblkhd)
        165328 MiB available memory on the node where the printing process lives
------------------
     ethr =  1.03E-06,  avg # of iterations =  2.0

     total cpu time spent up to now is        3.4 secs

     total energy              =    -730.13086086 Ry
     estimated scf accuracy    <       0.01700268 Ry

     iteration # 48     ecut=    30.00 Ry     beta= 0.70
     Davidson diagonalization with overlap

---- Real-time Memory Report at c_bands before calling an iterative solver
           141 MiB given to the printing process from OS
             0 MiB allocation reported by mallinfo(arena+hblkhd)
        165328 MiB available memory on the node where the printing process lives
------------------
     ethr =  1.03E-06,  avg # of iterations =  1.0

     total cpu time spent up to now is        3.5 secs

     total energy              =    -730.13070889 Ry
     estimated scf accuracy    <       0.00267029 Ry

     iteration # 49     ecut=    30.00 Ry     beta= 0.70
     Davidson diagonalization with overlap

---- Real-time Memory Report at c_bands before calling an iterative solver
           141 MiB given to the printing process from OS
             0 MiB allocation reported by mallinfo(arena+hblkhd)
        165328 MiB available memory on the node where the printing process lives
------------------
     ethr =  1.03E-06,  avg # of iterations =  1.0

     total cpu time spent up to now is        3.5 secs

     total energy              =    -730.13053686 Ry
     estimated scf accuracy    <       0.02248602 Ry

     iteration # 50     ecut=    30.00 Ry     beta= 0.70
     Davidson diagonalization with overlap

---- Real-time Memory Report at c_bands before calling an iterative solver
           141 MiB given to the printing process from OS
             0 MiB allocation reported by mallinfo(arena+hblkhd)
        165328 MiB available memory on the node where the printing process lives
------------------
     ethr =  1.03E-06,  avg # of iterations =  2.0

     total cpu time spent up to now is        3.6 secs

     total energy              =    -730.13050017 Ry
     estimated scf accuracy    <       0.00283831 Ry

     iteration # 51     ecut=    30.00 Ry     beta= 0.70
     Davidson diagonalization with overlap

---- Real-time Memory Report at c_bands before calling an iterative solver
           141 MiB given to the printing process from OS
             0 MiB allocation reported by mallinfo(arena+hblkhd)
        165328 MiB available memory on the node where the printing process lives
------------------
     ethr =  1.03E-06,  avg # of iterations =  1.0

     total cpu time spent up to now is        3.6 secs

     total energy              =    -730.13034441 Ry
     estimated scf accuracy    <       0.00110622 Ry

     iteration # 52     ecut=    30.00 Ry     beta= 0.70
     Davidson diagonalization with overlap

---- Real-time Memory Report at c_bands before calling an iterative solver
           141 MiB given to the printing process from OS
             0 MiB allocation reported by mallinfo(arena+hblkhd)
        165328 MiB available memory on the node where the printing process lives
------------------
     ethr =  1.03E-06,  avg # of iterations =  2.0

     total cpu time spent up to now is        3.7 secs

     total energy              =    -730.12983219 Ry
     estimated scf accuracy    <       0.01473988 Ry

     iteration # 53     ecut=    30.00 Ry     beta= 0.70
     Davidson diagonalization with overlap

---- Real-time Memory Report at c_bands before calling an iterative solver
           141 MiB given to the printing process from OS
             0 MiB allocation reported by mallinfo(arena+hblkhd)
        165328 MiB available memory on the node where the printing process lives
------------------
     ethr =  1.03E-06,  avg # of iterations =  2.0

     total cpu time spent up to now is        3.7 secs

     total energy              =    -730.13017454 Ry
     estimated scf accuracy    <       0.00317325 Ry

     iteration # 54     ecut=    30.00 Ry     beta= 0.70
     Davidson diagonalization with overlap

---- Real-time Memory Report at c_bands before calling an iterative solver
           141 MiB given to the printing process from OS
             0 MiB allocation reported by mallinfo(arena+hblkhd)
        165328 MiB available memory on the node where the printing process lives
------------------
     ethr =  1.03E-06,  avg # of iterations =  2.0

     total cpu time spent up to now is        3.8 secs

     total energy              =    -730.12861295 Ry
     estimated scf accuracy    <       0.02383259 Ry

     iteration # 55     ecut=    30.00 Ry     beta= 0.70
     Davidson diagonalization with overlap

---- Real-time Memory Report at c_bands before calling an iterative solver
           141 MiB given to the printing process from OS
             0 MiB allocation reported by mallinfo(arena+hblkhd)
        165328 MiB available memory on the node where the printing process lives
------------------
     ethr =  1.03E-06,  avg # of iterations =  1.0

     total cpu time spent up to now is        3.9 secs

     total energy              =    -730.13043971 Ry
     estimated scf accuracy    <       0.00093014 Ry

     iteration # 56     ecut=    30.00 Ry     beta= 0.70
     Davidson diagonalization with overlap

---- Real-time Memory Report at c_bands before calling an iterative solver
           141 MiB given to the printing process from OS
             0 MiB allocation reported by mallinfo(arena+hblkhd)
        165328 MiB available memory on the node where the printing process lives
------------------
     ethr =  1.03E-06,  avg # of iterations =  1.0

     total cpu time spent up to now is        3.9 secs

     total energy              =    -730.13041818 Ry
     estimated scf accuracy    <       0.00131377 Ry

     iteration # 57     ecut=    30.00 Ry     beta= 0.70
     Davidson diagonalization with overlap

---- Real-time Memory Report at c_bands before calling an iterative solver
           141 MiB given to the printing process from OS
             0 MiB allocation reported by mallinfo(arena+hblkhd)
        165328 MiB available memory on the node where the printing process lives
------------------
     ethr =  1.03E-06,  avg # of iterations =  1.0

     total cpu time spent up to now is        4.0 secs

     total energy              =    -730.13040541 Ry
     estimated scf accuracy    <       0.00076168 Ry

     iteration # 58     ecut=    30.00 Ry     beta= 0.70
     Davidson diagonalization with overlap

---- Real-time Memory Report at c_bands before calling an iterative solver
           141 MiB given to the printing process from OS
             0 MiB allocation reported by mallinfo(arena+hblkhd)
        165328 MiB available memory on the node where the printing process lives
------------------
     ethr =  9.77E-07,  avg # of iterations =  1.0

     total cpu time spent up to now is        4.0 secs

     total energy              =    -730.13039286 Ry
     estimated scf accuracy    <       0.00080492 Ry

     iteration # 59     ecut=    30.00 Ry     beta= 0.70
     Davidson diagonalization with overlap

---- Real-time Memory Report at c_bands before calling an iterative solver
           141 MiB given to the printing process from OS
             0 MiB allocation reported by mallinfo(arena+hblkhd)
        165328 MiB available memory on the node where the printing process lives
------------------
     ethr =  9.77E-07,  avg # of iterations =  1.0

     total cpu time spent up to now is        4.1 secs

     total energy              =    -730.13036065 Ry
     estimated scf accuracy    <       0.00126861 Ry

     iteration # 60     ecut=    30.00 Ry     beta= 0.70
     Davidson diagonalization with overlap

---- Real-time Memory Report at c_bands before calling an iterative solver
           141 MiB given to the printing process from OS
             0 MiB allocation reported by mallinfo(arena+hblkhd)
        165328 MiB available memory on the node where the printing process lives
------------------
     ethr =  9.77E-07,  avg # of iterations =  1.0

     total cpu time spent up to now is        4.1 secs

     total energy              =    -730.13034637 Ry
     estimated scf accuracy    <       0.00090593 Ry

     iteration # 61     ecut=    30.00 Ry     beta= 0.70
     Davidson diagonalization with overlap

---- Real-time Memory Report at c_bands before calling an iterative solver
           141 MiB given to the printing process from OS
             0 MiB allocation reported by mallinfo(arena+hblkhd)
        165328 MiB available memory on the node where the printing process lives
------------------
     ethr =  9.77E-07,  avg # of iterations =  1.0

     total cpu time spent up to now is        4.2 secs

     total energy              =    -730.13031582 Ry
     estimated scf accuracy    <       0.00089378 Ry

     iteration # 62     ecut=    30.00 Ry     beta= 0.70
     Davidson diagonalization with overlap

---- Real-time Memory Report at c_bands before calling an iterative solver
           141 MiB given to the printing process from OS
             0 MiB allocation reported by mallinfo(arena+hblkhd)
        165328 MiB available memory on the node where the printing process lives
------------------
     ethr =  9.77E-07,  avg # of iterations =  1.0

     total cpu time spent up to now is        4.2 secs

     total energy              =    -730.13030904 Ry
     estimated scf accuracy    <       0.00341796 Ry

     iteration # 63     ecut=    30.00 Ry     beta= 0.70
     Davidson diagonalization with overlap

---- Real-time Memory Report at c_bands before calling an iterative solver
           141 MiB given to the printing process from OS
             0 MiB allocation reported by mallinfo(arena+hblkhd)
        165328 MiB available memory on the node where the printing process lives
------------------
     ethr =  9.77E-07,  avg # of iterations =  1.0

     total cpu time spent up to now is        4.3 secs

     total energy              =    -730.13013932 Ry
     estimated scf accuracy    <       0.00071130 Ry

     iteration # 64     ecut=    30.00 Ry     beta= 0.70
     Davidson diagonalization with overlap

---- Real-time Memory Report at c_bands before calling an iterative solver
           141 MiB given to the printing process from OS
             0 MiB allocation reported by mallinfo(arena+hblkhd)
        165328 MiB available memory on the node where the printing process lives
------------------
     ethr =  9.12E-07,  avg # of iterations =  1.0

     total cpu time spent up to now is        4.3 secs

     total energy              =    -730.11861140 Ry
     estimated scf accuracy    <       0.27818794 Ry

     iteration # 65     ecut=    30.00 Ry     beta= 0.70
     Davidson diagonalization with overlap

---- Real-time Memory Report at c_bands before calling an iterative solver
           141 MiB given to the printing process from OS
             0 MiB allocation reported by mallinfo(arena+hblkhd)
        165328 MiB available memory on the node where the printing process lives
------------------
     ethr =  9.12E-07,  avg # of iterations =  2.0

     total cpu time spent up to now is        4.4 secs

     total energy              =    -730.12980007 Ry
     estimated scf accuracy    <       0.00043144 Ry

     iteration # 66     ecut=    30.00 Ry     beta= 0.70
     Davidson diagonalization with overlap

---- Real-time Memory Report at c_bands before calling an iterative solver
           141 MiB given to the printing process from OS
             0 MiB allocation reported by mallinfo(arena+hblkhd)
        165328 MiB available memory on the node where the printing process lives
------------------
     ethr =  5.53E-07,  avg # of iterations =  2.0

     total cpu time spent up to now is        4.4 secs

     total energy              =    -730.13033715 Ry
     estimated scf accuracy    <       0.00028227 Ry

     iteration # 67     ecut=    30.00 Ry     beta= 0.70
     Davidson diagonalization with overlap

---- Real-time Memory Report at c_bands before calling an iterative solver
           141 MiB given to the printing process from OS
             0 MiB allocation reported by mallinfo(arena+hblkhd)
        165328 MiB available memory on the node where the printing process lives
------------------
     ethr =  3.62E-07,  avg # of iterations =  1.0

     total cpu time spent up to now is        4.5 secs

     total energy              =    -730.13035084 Ry
     estimated scf accuracy    <       0.00027996 Ry

     iteration # 68     ecut=    30.00 Ry     beta= 0.70
     Davidson diagonalization with overlap

---- Real-time Memory Report at c_bands before calling an iterative solver
           141 MiB given to the printing process from OS
             0 MiB allocation reported by mallinfo(arena+hblkhd)
        165328 MiB available memory on the node where the printing process lives
------------------
     ethr =  3.59E-07,  avg # of iterations =  1.0

     total cpu time spent up to now is        4.5 secs

     total energy              =    -730.13034011 Ry
     estimated scf accuracy    <       0.00024677 Ry

     iteration # 69     ecut=    30.00 Ry     beta= 0.70
     Davidson diagonalization with overlap

---- Real-time Memory Report at c_bands before calling an iterative solver
           141 MiB given to the printing process from OS
             0 MiB allocation reported by mallinfo(arena+hblkhd)
        165328 MiB available memory on the node where the printing process lives
------------------
     ethr =  3.16E-07,  avg # of iterations =  1.0

     total cpu time spent up to now is        4.5 secs

     total energy              =    -730.13033917 Ry
     estimated scf accuracy    <       0.00021315 Ry

     iteration # 70     ecut=    30.00 Ry     beta= 0.70
     Davidson diagonalization with overlap

---- Real-time Memory Report at c_bands before calling an iterative solver
           141 MiB given to the printing process from OS
             0 MiB allocation reported by mallinfo(arena+hblkhd)
        165328 MiB available memory on the node where the printing process lives
------------------
     ethr =  2.73E-07,  avg # of iterations =  1.0

     total cpu time spent up to now is        4.6 secs

     total energy              =    -730.13033647 Ry
     estimated scf accuracy    <       0.00020560 Ry

     iteration # 71     ecut=    30.00 Ry     beta= 0.70
     Davidson diagonalization with overlap

---- Real-time Memory Report at c_bands before calling an iterative solver
           141 MiB given to the printing process from OS
             0 MiB allocation reported by mallinfo(arena+hblkhd)
        165328 MiB available memory on the node where the printing process lives
------------------
     ethr =  2.64E-07,  avg # of iterations =  1.0

     total cpu time spent up to now is        4.6 secs

     total energy              =    -730.13033550 Ry
     estimated scf accuracy    <       0.00015974 Ry

     iteration # 72     ecut=    30.00 Ry     beta= 0.70
     Davidson diagonalization with overlap

---- Real-time Memory Report at c_bands before calling an iterative solver
           141 MiB given to the printing process from OS
             0 MiB allocation reported by mallinfo(arena+hblkhd)
        165328 MiB available memory on the node where the printing process lives
------------------
     ethr =  2.05E-07,  avg # of iterations =  1.0

     total cpu time spent up to now is        4.7 secs

     total energy              =    -730.13033757 Ry
     estimated scf accuracy    <       0.00027200 Ry

     iteration # 73     ecut=    30.00 Ry     beta= 0.70
     Davidson diagonalization with overlap

---- Real-time Memory Report at c_bands before calling an iterative solver
           141 MiB given to the printing process from OS
             0 MiB allocation reported by mallinfo(arena+hblkhd)
        165328 MiB available memory on the node where the printing process lives
------------------
     ethr =  2.05E-07,  avg # of iterations =  1.0

     total cpu time spent up to now is        4.7 secs

     total energy              =    -730.13032357 Ry
     estimated scf accuracy    <       0.00016283 Ry

     iteration # 74     ecut=    30.00 Ry     beta= 0.70
     Davidson diagonalization with overlap

---- Real-time Memory Report at c_bands before calling an iterative solver
           141 MiB given to the printing process from OS
             0 MiB allocation reported by mallinfo(arena+hblkhd)
        165328 MiB available memory on the node where the printing process lives
------------------
     ethr =  2.05E-07,  avg # of iterations =  1.0

     total cpu time spent up to now is        4.8 secs

     total energy              =    -730.13031845 Ry
     estimated scf accuracy    <       0.00150293 Ry

     iteration # 75     ecut=    30.00 Ry     beta= 0.70
     Davidson diagonalization with overlap

---- Real-time Memory Report at c_bands before calling an iterative solver
           141 MiB given to the printing process from OS
             0 MiB allocation reported by mallinfo(arena+hblkhd)
        165328 MiB available memory on the node where the printing process lives
------------------
     ethr =  2.05E-07,  avg # of iterations =  1.0

     total cpu time spent up to now is        4.8 secs

     total energy              =    -730.13033669 Ry
     estimated scf accuracy    <       0.00019058 Ry

     iteration # 76     ecut=    30.00 Ry     beta= 0.70
     Davidson diagonalization with overlap

---- Real-time Memory Report at c_bands before calling an iterative solver
           141 MiB given to the printing process from OS
             0 MiB allocation reported by mallinfo(arena+hblkhd)
        165328 MiB available memory on the node where the printing process lives
------------------
     ethr =  2.05E-07,  avg # of iterations =  1.0

     total cpu time spent up to now is        4.9 secs

     total energy              =    -730.13033942 Ry
     estimated scf accuracy    <       0.00002986 Ry

     iteration # 77     ecut=    30.00 Ry     beta= 0.70
     Davidson diagonalization with overlap

---- Real-time Memory Report at c_bands before calling an iterative solver
           141 MiB given to the printing process from OS
             0 MiB allocation reported by mallinfo(arena+hblkhd)
        165328 MiB available memory on the node where the printing process lives
------------------
     ethr =  3.83E-08,  avg # of iterations =  1.0

     total cpu time spent up to now is        4.9 secs

     total energy              =    -730.13034146 Ry
     estimated scf accuracy    <       0.00000897 Ry

     iteration # 78     ecut=    30.00 Ry     beta= 0.70
     Davidson diagonalization with overlap

---- Real-time Memory Report at c_bands before calling an iterative solver
           141 MiB given to the printing process from OS
             0 MiB allocation reported by mallinfo(arena+hblkhd)
        165328 MiB available memory on the node where the printing process lives
------------------
     ethr =  1.15E-08,  avg # of iterations =  1.0

     total cpu time spent up to now is        5.0 secs

     total energy              =    -730.13034164 Ry
     estimated scf accuracy    <       0.00000416 Ry

     iteration # 79     ecut=    30.00 Ry     beta= 0.70
     Davidson diagonalization with overlap

---- Real-time Memory Report at c_bands before calling an iterative solver
           141 MiB given to the printing process from OS
             0 MiB allocation reported by mallinfo(arena+hblkhd)
        165328 MiB available memory on the node where the printing process lives
------------------
     ethr =  5.33E-09,  avg # of iterations =  1.0

     total cpu time spent up to now is        5.0 secs

     End of self-consistent calculation

          k = 0.0000 0.0000 0.0000 (   993 PWs)   bands (ev):

   -71.5370 -71.5333 -40.7996 -40.7724 -40.0573 -40.0380 -39.8852 -39.8778
   -37.0172 -36.5067 -36.4969 -36.3661 -11.0612 -10.2816  -9.8266  -9.6949
    -9.5128  -9.4426   2.0524   2.4010   2.5692   2.7726   3.4549   3.6716
     3.6947   3.7577   3.8325   5.1850   5.2679   5.5472   5.7060   5.9055
     6.3683   6.4265   6.4523   6.4832   8.0275   8.0455   8.5595   8.5815
     8.6322   8.6433  10.5808  11.1515  11.1667  11.2238  13.8529

     occupation numbers 
     1.0000   1.0000   1.0000   1.0000   1.0000   1.0000   1.0000   1.0000
     1.0000   1.0000   1.0000   1.0000   1.0000   1.0000   1.0000   1.0000
     1.0000   1.0000   1.0000   1.0000   1.0000   1.0000   1.0000   1.0000
     1.0000   1.0000   1.0000   1.0000   1.0000   1.0000   1.0000   1.0000
     1.0000   1.0000   1.0000   1.0000   1.0000   1.0000   0.9915   0.0085
    -0.0000  -0.0000  -0.0000  -0.0000  -0.0000  -0.0000  -0.0000

     the Fermi energy is     8.5705 ev

!    total energy              =    -730.13034104 Ry
     estimated scf accuracy    <       0.00000078 Ry
     smearing contrib. (-TS)   =       0.00008807 Ry
     internal energy E=F+TS    =    -730.13042910 Ry

     The total energy is F=E-TS. E is the sum of the following terms:
     one-electron contribution =    -416.45560435 Ry
     hartree contribution      =     240.56760155 Ry
     xc contribution           =    -111.50630108 Ry
     ewald contribution        =    -385.66270423 Ry
     one-center paw contrib.   =     -57.07342100 Ry
      -> PAW hartree energy AE =       0.00000000 Ry
      -> PAW hartree energy PS =       0.00000000 Ry
      -> PAW xc energy AE      =       0.00000000 Ry
      -> PAW xc energy PS      =       0.00000000 Ry
      -> total E_H with PAW    =     240.56760155 Ry
      -> total E_XC with PAW   =    -111.50630108 Ry

     convergence has been achieved in  79 iterations

     Forces acting on atoms (cartesian axes, Ry/au):

     atom    1 type  1   force =     0.00006550   -0.00453993    0.00084633
     atom    2 type  1   force =     0.00000000    0.00000000    0.00000000
     atom    3 type  1   force =    -0.00006550    0.00453993   -0.00084633
     atom    4 type  1   force =     0.00000000    0.00000000    0.00000000
     atom    5 type  2   force =    -0.00327311    0.01348404   -0.06882373
     atom    6 type  2   force =     0.00327311   -0.01348404    0.06882373
     atom    7 type  3   force =     0.00074978   -0.06263544   -0.03861740
     atom    8 type  3   force =    -0.00009480   -0.03946326   -0.07992541
     atom    9 type  3   force =    -0.00013502   -0.04867111    0.04710580
     atom   10 type  3   force =     0.00013502    0.04867111   -0.04710580
     atom   11 type  3   force =     0.00009480    0.03946326    0.07992541
     atom   12 type  3   force =    -0.00074978    0.06263544    0.03861740
     The non-local contrib.  to forces
     atom    1 type  1   force =    -0.00004003   -0.01234073   -0.03149262
     atom    2 type  1   force =     0.00000000    0.00000000    0.00000000
     atom    3 type  1   force =     0.00004003    0.01234073    0.03149262
     atom    4 type  1   force =     0.00000000    0.00000000    0.00000000
     atom    5 type  2   force =     0.00280830   -0.07249094   -0.01016238
     atom    6 type  2   force =    -0.00280830    0.07249094    0.01016238
     atom    7 type  3   force =    -0.00440773   -0.45058753   -0.11135991
     atom    8 type  3   force =     0.00198446   -0.19143712   -0.20872569
     atom    9 type  3   force =     0.00189184   -0.43850958    0.14827931
     atom   10 type  3   force =    -0.00189184    0.43850958   -0.14827931
     atom   11 type  3   force =    -0.00198446    0.19143712    0.20872569
     atom   12 type  3   force =     0.00440773    0.45058753    0.11135991
     The ionic contribution  to forces
     atom    1 type  1   force =    -0.00216170   -0.22976291    2.01468867
     atom    2 type  1   force =    -0.00000000   -0.00000000   -0.00000000
     atom    3 type  1   force =     0.00216170    0.22976291   -2.01468867
     atom    4 type  1   force =    -0.00000000    0.00000000   -0.00000000
     atom    5 type  2   force =    -0.06609057    1.33332377  -14.79460385
     atom    6 type  2   force =     0.06609057   -1.33332377   14.79460385
     atom    7 type  3   force =     0.05206550   13.43267004    4.99635376
     atom    8 type  3   force =    -0.00984658    9.28964287   14.44767004
     atom    9 type  3   force =    -0.02282871   10.69969292   -9.79471626
     atom   10 type  3   force =     0.02282871  -10.69969292    9.79471626
     atom   11 type  3   force =     0.00984658   -9.28964287  -14.44767004
     atom   12 type  3   force =    -0.05206550  -13.43267004   -4.99635376
     The local contribution  to forces
     atom    1 type  1   force =     0.00226737    0.23746324   -1.98238985
     atom    2 type  1   force =     0.00000241   -0.00003730    0.00029011
     atom    3 type  1   force =    -0.00225544   -0.23761883    1.98205347
     atom    4 type  1   force =    -0.00001371    0.00005241    0.00044510
     atom    5 type  2   force =     0.06019059   -1.24642373   14.73266981
     atom    6 type  2   force =    -0.06026115    1.24691713  -14.73427681
     atom    7 type  3   force =    -0.04689708  -13.04911704   -4.92537026
     atom    8 type  3   force =     0.00779356   -9.13882099  -14.31948026
     atom    9 type  3   force =     0.02079644  -10.31412723    9.69413636
     atom   10 type  3   force =    -0.02086457   10.31354978   -9.69328004
     atom   11 type  3   force =    -0.00784179    9.13948301   14.32056934
     atom   12 type  3   force =     0.04694102   13.04915173    4.92317412
     The core correction contribution to forces
     atom    1 type  1   force =     0.00000000    0.00000000    0.00000000
     atom    2 type  1   force =     0.00000000    0.00000000    0.00000000
     atom    3 type  1   force =     0.00000000    0.00000000    0.00000000
     atom    4 type  1   force =     0.00000000    0.00000000    0.00000000
     atom    5 type  2   force =    -0.00022297   -0.00097785    0.00167487
     atom    6 type  2   force =     0.00021946    0.00098193   -0.00167439
     atom    7 type  3   force =     0.00004597    0.00422683    0.00058798
     atom    8 type  3   force =    -0.00002348    0.00136429    0.00131612
     atom    9 type  3   force =    -0.00001873    0.00390740   -0.00038894
     atom   10 type  3   force =     0.00001762   -0.00390729    0.00038927
     atom   11 type  3   force =     0.00002339   -0.00136384   -0.00131599
     atom   12 type  3   force =    -0.00004594   -0.00422672   -0.00058817
     The Hubbard contrib.    to forces
     atom    1 type  1   force =     0.00000000    0.00000000    0.00000000
     atom    2 type  1   force =     0.00000000    0.00000000    0.00000000
     atom    3 type  1   force =     0.00000000    0.00000000    0.00000000
     atom    4 type  1   force =     0.00000000    0.00000000    0.00000000
     atom    5 type  2   force =     0.00000000    0.00000000    0.00000000
     atom    6 type  2   force =     0.00000000    0.00000000    0.00000000
     atom    7 type  3   force =     0.00000000    0.00000000    0.00000000
     atom    8 type  3   force =     0.00000000    0.00000000    0.00000000
     atom    9 type  3   force =     0.00000000    0.00000000    0.00000000
     atom   10 type  3   force =     0.00000000    0.00000000    0.00000000
     atom   11 type  3   force =     0.00000000    0.00000000    0.00000000
     atom   12 type  3   force =     0.00000000    0.00000000    0.00000000
     The SCF correction term to forces
     atom    1 type  1   force =     0.00000195    0.00007609    0.00000404
     atom    2 type  1   force =    -0.00000174    0.00002526   -0.00023849
     atom    3 type  1   force =    -0.00000972    0.00003075    0.00026016
     atom    4 type  1   force =     0.00000838   -0.00003407   -0.00035319
     atom    5 type  2   force =     0.00002079    0.00006862    0.00156702
     atom    6 type  2   force =     0.00001179   -0.00053446   -0.00002211
     atom    7 type  3   force =    -0.00005784    0.00018148    0.00115203
     atom    8 type  3   force =    -0.00000238   -0.00018633   -0.00069171
     atom    9 type  3   force =    -0.00000738    0.00039429   -0.00021241
     atom   10 type  3   force =     0.00001357    0.00024087   -0.00065972
     atom   11 type  3   force =     0.00005148   -0.00042420   -0.00036968
     atom   12 type  3   force =     0.00001192   -0.00019784    0.00100631

     Total force =     0.214004     Total SCF correction =     0.002636


     Computing stress (Cartesian axis) and pressure

          total   stress  (Ry/bohr**3)                   (kbar)     P=     -481.08
  -0.00235222  -0.00003995  -0.00002942         -346.02       -5.88       -4.33
  -0.00003995  -0.00359852   0.00007293           -5.88     -529.36       10.73
  -0.00002942   0.00007293  -0.00386023           -4.33       10.73     -567.86

     kinetic stress (kbar)  28260.62     -4.78     -2.64
                               -4.78  27516.20    409.48
                               -2.64    409.48  27767.65

     local   stress (kbar) -45347.31     85.28    126.19
                               85.28  -2267.10  11018.46
                              126.19  11018.46 -10108.91

     nonloc. stress (kbar)   8365.08     -6.00     -3.58
                               -6.00   7977.76    102.06
                               -3.58    102.06   8147.30

     hartree stress (kbar)  28330.89    -28.60    -43.21
                              -28.60   9140.58  -4954.65
                              -43.21  -4954.65  12404.61

     exc-cor stress (kbar)  -5208.72     -0.21     -0.33
                               -0.21  -5211.25     -0.39
                               -0.33     -0.39  -5208.45

     corecor stress (kbar)  -2020.65      0.12      0.06
                                0.12  -2008.91     -3.99
                                0.06     -3.99  -2014.48

     ewald   stress (kbar) -12725.94    -51.68    -80.81
                              -51.68 -35676.64  -6560.24
                              -80.81  -6560.24 -31555.59

     hubbard stress (kbar)      0.00      0.00      0.00
                                0.00      0.00      0.00
                                0.00      0.00      0.00

     DFT-D   stress (kbar)      0.00      0.00      0.00
                                0.00      0.00      0.00
                                0.00      0.00      0.00

     XDM     stress (kbar)      0.00      0.00      0.00
                                0.00      0.00      0.00
                                0.00      0.00      0.00

     dft-nl  stress (kbar)      0.00      0.00      0.00
                                0.00      0.00      0.00
                                0.00      0.00      0.00

     TS-vdW  stress (kbar)      0.00      0.00      0.00
                                0.00      0.00      0.00
                                0.00      0.00      0.00


                                0.00      0.00      0.00
                                0.00      0.00      0.00


                                0.00      0.00      0.00


     Writing all to output data dir calculations/myprefix.save/
 
     init_run     :      0.66s CPU      0.70s WALL (       1 calls)
     electrons    :      3.97s CPU      4.09s WALL (       1 calls)
     forces       :      0.05s CPU      0.05s WALL (       1 calls)
     stress       :      0.10s CPU      0.11s WALL (       1 calls)

     Called by init_run:
     wfcinit      :      0.02s CPU      0.03s WALL (       1 calls)
     wfcinit:atom :      0.00s CPU      0.00s WALL (       1 calls)
     wfcinit:wfcr :      0.02s CPU      0.02s WALL (       1 calls)
     potinit      :      0.27s CPU      0.27s WALL (       1 calls)
     hinit0       :      0.36s CPU      0.38s WALL (       1 calls)

     Called by electrons:
     c_bands      :      1.32s CPU      1.38s WALL (      79 calls)
     sum_band     :      0.51s CPU      0.53s WALL (      79 calls)
     v_of_rho     :      0.16s CPU      0.17s WALL (      80 calls)
     v_h          :      0.01s CPU      0.01s WALL (      80 calls)
     v_xc         :      0.15s CPU      0.16s WALL (      82 calls)
     newd         :      0.29s CPU      0.30s WALL (      80 calls)
     PAW_pot      :      1.59s CPU      1.59s WALL (      80 calls)
     mix_rho      :      0.08s CPU      0.08s WALL (      79 calls)

     Called by c_bands:
     init_us_2    :      0.01s CPU      0.01s WALL (     159 calls)
     init_us_2:cp :      0.01s CPU      0.01s WALL (     159 calls)
     regterg      :      1.29s CPU      1.34s WALL (      79 calls)

     Called by sum_band:
     sum_band:wei :      0.01s CPU      0.01s WALL (      79 calls)
     sum_band:loo :      0.11s CPU      0.13s WALL (      79 calls)
     sum_band:buf :      0.00s CPU      0.00s WALL (      79 calls)
     sum_band:ini :      0.00s CPU      0.01s WALL (      79 calls)
     sum_band:cal :      0.02s CPU      0.02s WALL (      79 calls)
     sum_band:bec :      0.00s CPU      0.00s WALL (      79 calls)
     addusdens    :      0.30s CPU      0.31s WALL (      79 calls)
     addusd:skk   :      0.00s CPU      0.00s WALL (     237 calls)
     addusd:dgemm :      0.09s CPU      0.09s WALL (     237 calls)
     addusd:qvan2 :      0.19s CPU      0.19s WALL (     237 calls)

     Called by *egterg:
     rdiaghg      :      0.72s CPU      0.73s WALL (     192 calls)
     regterg:over :      0.08s CPU      0.08s WALL (     113 calls)
     regterg:upda :      0.03s CPU      0.03s WALL (     113 calls)
     regterg:last :      0.04s CPU      0.04s WALL (     102 calls)
     rdiaghg:chol :      0.04s CPU      0.04s WALL (     192 calls)
     rdiaghg:inve :      0.01s CPU      0.01s WALL (     192 calls)
     rdiaghg:para :      0.05s CPU      0.05s WALL (     384 calls)
     h_psi        :      0.39s CPU      0.43s WALL (     193 calls)
     s_psi        :      0.00s CPU      0.01s WALL (     193 calls)
     g_psi        :      0.00s CPU      0.00s WALL (     113 calls)

     Called by h_psi:
     h_psi:calbec :      0.04s CPU      0.05s WALL (     193 calls)
     vloc_psi     :      0.33s CPU      0.37s WALL (     193 calls)
     add_vuspsi   :      0.01s CPU      0.01s WALL (     193 calls)

     General routines
     calbec       :      0.06s CPU      0.07s WALL (     277 calls)
     fft          :      0.46s CPU      0.47s WALL (     898 calls)
     ffts         :      0.23s CPU      0.23s WALL (     159 calls)
     fftw         :      0.38s CPU      0.42s WALL (    9922 calls)
     interpolate  :      0.24s CPU      0.24s WALL (      80 calls)
 
     Parallel routines

     PAW routines
     PAW_pot      :      1.59s CPU      1.59s WALL (      80 calls)
     PAW_symme    :      0.03s CPU      0.03s WALL (     159 calls)
 
     PWSCF        :      5.04s CPU      6.79s WALL

 
   This run was terminated on:   9:19:58   6Mar2023            

=------------------------------------------------------------------------------=
   JOB DONE.
=------------------------------------------------------------------------------=
