
     Program PWSCF v.7.0 starts on  6Mar2023 at 12:10:12 

     This program is part of the open-source Quantum ESPRESSO suite
     for quantum simulation of materials; please cite
         "P. Giannozzi et al., J. Phys.:Condens. Matter 21 395502 (2009);
         "P. Giannozzi et al., J. Phys.:Condens. Matter 29 465901 (2017);
         "P. Giannozzi et al., J. Chem. Phys. 152 154105 (2020);
          URL http://www.quantum-espresso.org", 
     in publications or presentations arising from this work. More details at
     http://www.quantum-espresso.org/quote

     Parallel version (MPI & OpenMP), running on      32 processor cores
     Number of MPI processes:                32
     Threads/MPI process:                     1

     MPI processes distributed on     1 nodes
     R & G space division:  proc/nbgrp/npool/nimage =      32
     166215 MiB available memory on the printing compute node when the environment starts
 
     Reading input from espresso_4557.pwi
Warning: card &CELL ignored
Warning: card / ignored

     Current dimensions of program PWSCF are:
     Max number of different atomic species (ntypx) = 10
     Max number of k-points (npk) =  40000
     Max angular momentum in pseudopotentials (lmaxx) =  4
     file Al.pbe-n-kjpaw_psl.1.0.0.UPF: wavefunction(s)  3S 3P renormalized

     gamma-point specific algorithms are used
     Message from routine setup:
     using ibrav=0 with symmetry is DISCOURAGED, use correct ibrav instead

     Subspace diagonalization in iterative solution of the eigenvalue problem:
     one sub-group per band group will be used
     scalapack distributed-memory algorithm (size of sub-group:  5*  5 procs)

 
     Parallelization info
     --------------------
     sticks:   dense  smooth     PW     G-vecs:    dense   smooth      PW
     Min          90      45     10                 3302     1168     140
     Max          92      48     12                 3318     1176     148
     Sum        2941    1483    367               106019    37461    4645
 
     Using Slab Decomposition
 


     bravais-lattice index     =            0
     lattice parameter (alat)  =      13.3728  a.u.
     unit-cell volume          =    1691.0497 (a.u.)^3
     number of atoms/cell      =           14
     number of atomic types    =            3
     number of electrons       =        82.00
     number of Kohn-Sham states=           49
     kinetic-energy cutoff     =      30.0000  Ry
     charge density cutoff     =     240.0000  Ry
     scf convergence threshold =      1.0E-06
     mixing beta               =       0.7000
     number of iterations used =            8  plain     mixing
     Exchange-correlation=  SLA  PW   PBX  PBC
                           (   1   4   3   4   0   0   0)

     celldm(1)=  13.372844  celldm(2)=   0.000000  celldm(3)=   0.000000
     celldm(4)=   0.000000  celldm(5)=   0.000000  celldm(6)=   0.000000

     crystal axes: (cart. coord. in units of alat)
               a(1) = (   1.000000   0.000000   0.000000 )  
               a(2) = (   0.500000   0.866025   0.000000 )  
               a(3) = (   0.500000   0.288675   0.816497 )  

     reciprocal axes: (cart. coord. in units 2 pi/alat)
               b(1) = (  1.000000 -0.577350 -0.408248 )  
               b(2) = (  0.000000  1.154701 -0.408248 )  
               b(3) = (  0.000000  0.000000  1.224745 )  


     PseudoPot. # 1 for Al read from file:
     /home/pragov/projects/rrg-bengioy-ad/pragov/crystal_structure_design/SSSP/Al.pbe-n-kjpaw_psl.1.0.0.UPF
     MD5 check sum: cfc449ca30b5f3223ec38ddd88ac046d
     Pseudo is Projector augmented-wave + core cor, Zval =  3.0
     Generated using "atomic" code by A. Dal Corso  v.5.1
     Shape of augmentation charge: PSQ
     Using radial grid of 1135 points,  6 beta functions with: 
                l(1) =   0
                l(2) =   0
                l(3) =   1
                l(4) =   1
                l(5) =   2
                l(6) =   2
     Q(r) pseudized with 0 coefficients 


     PseudoPot. # 2 for Cu read from file:
     /home/pragov/projects/rrg-bengioy-ad/pragov/crystal_structure_design/SSSP/Cu_pbe_v1.2.uspp.F.UPF
     MD5 check sum: 6e991ff952a84172a2a52a1c1e996048
     Pseudo is Ultrasoft + core correction, Zval = 19.0
     Generated by new atomic code, or converted to UPF format
     Using radial grid of  867 points,  6 beta functions with: 
                l(1) =   0
                l(2) =   0
                l(3) =   1
                l(4) =   1
                l(5) =   2
                l(6) =   2
     Q(r) pseudized with  8 coefficients,  rinner =    1.150   1.150   1.150
                                                       1.150   1.150

     PseudoPot. # 3 for S  read from file:
     /home/pragov/projects/rrg-bengioy-ad/pragov/crystal_structure_design/SSSP/s_pbe_v1.4.uspp.F.UPF
     MD5 check sum: 88d86576ff6df21479756cfb9bdac1df
     Pseudo is Ultrasoft + core correction, Zval =  6.0
     Generated by new atomic code, or converted to UPF format
     Using radial grid of  907 points,  6 beta functions with: 
                l(1) =   0
                l(2) =   0
                l(3) =   1
                l(4) =   1
                l(5) =   2
                l(6) =   2
     Q(r) pseudized with  8 coefficients,  rinner =    1.300   1.300   1.300
                                                       1.300   1.300

     atomic species   valence    mass     pseudopotential
        Al             3.00    26.98154     Al( 1.00)
        Cu            19.00    63.54600     Cu( 1.00)
        S              6.00    32.06000     S ( 1.00)

      6 Sym. Ops. (no inversion) found


                                    s                        frac. trans.

      isym =  1     identity                                     

 cryst.   s( 1) = (     1          0          0      )
                  (     0          1          0      )
                  (     0          0          1      )

 cart.    s( 1) = (  1.0000000  0.0000000  0.0000000 )
                  (  0.0000000  1.0000000  0.0000000 )
                  (  0.0000000  0.0000000  1.0000000 )


      isym =  2     120 deg rotation - cryst. axis [0,0,1]       

 cryst.   s( 2) = (    -1          1          0      )
                  (    -1          0          0      )
                  (    -1          0          1      )

 cart.    s( 2) = ( -0.5000000 -0.8660254 -0.0000000 )
                  (  0.8660254 -0.5000000 -0.0000000 )
                  (  0.0000000  0.0000000  1.0000000 )


      isym =  3     120 deg rotation - cryst. axis [0,0,-1]      

 cryst.   s( 3) = (     0         -1          0      )
                  (     1         -1          0      )
                  (     0         -1          1      )

 cart.    s( 3) = ( -0.5000000  0.8660254  0.0000000 )
                  ( -0.8660254 -0.5000000 -0.0000000 )
                  (  0.0000000  0.0000000  1.0000000 )


      isym =  4     inv. 180 deg rotation - cart. axis [1,0,0]   

 cryst.   s( 4) = (    -1          0          0      )
                  (    -1          1          0      )
                  (    -1          0          1      )

 cart.    s( 4) = ( -1.0000000  0.0000000  0.0000000 )
                  (  0.0000000  1.0000000  0.0000000 )
                  (  0.0000000  0.0000000  1.0000000 )


      isym =  5     inv. 180 deg rotation - cryst. axis [0,1,0]  

 cryst.   s( 5) = (     0          1          0      )
                  (     1          0          0      )
                  (     0          0          1      )

 cart.    s( 5) = (  0.5000000  0.8660254  0.0000000 )
                  (  0.8660254 -0.5000000 -0.0000000 )
                  (  0.0000000  0.0000000  1.0000000 )


      isym =  6     inv. 180 deg rotation - cryst. axis [1,1,0]  

 cryst.   s( 6) = (     1         -1          0      )
                  (     0         -1          0      )
                  (     0         -1          1      )

 cart.    s( 6) = (  0.5000000 -0.8660254 -0.0000000 )
                  ( -0.8660254 -0.5000000 -0.0000000 )
                  (  0.0000000  0.0000000  1.0000000 )


   Cartesian axes

     site n.     atom                  positions (alat units)
         1           Al  tau(   1) = (   1.4999995   0.5932011   0.7088301  )
         2           Al  tau(   2) = (   1.2637270   1.0024371   0.7088301  )
         3           Al  tau(   3) = (   1.4999995   0.8660251   0.3229987  )
         4           Al  tau(   4) = (   1.7362720   1.0024371   0.7088301  )
         5           Al  tau(   5) = (   0.5000000   0.2886751   0.2041241  )
         6           Cu  tau(   6) = (   1.0000000   0.5773503   0.4082483  )
         7           S   tau(   7) = (   1.2637660   0.7296356   0.5159303  )
         8           S   tau(   8) = (   0.9999995   0.5773500   0.0852014  )
         9           S   tau(   9) = (   0.7362330   0.7296356   0.5159303  )
        10           S   tau(  10) = (   0.9999995   0.2727787   0.5159303  )
        11           S   tau(  11) = (   0.5000000   0.5969594   0.0951292  )
        12           S   tau(  12) = (   0.7669820   0.1345330   0.0951292  )
        13           S   tau(  13) = (   0.5000000   0.2886751   0.5311090  )
        14           S   tau(  14) = (   0.2330180   0.1345330   0.0951292  )

   Crystallographic axes

     site n.     atom                  positions (cryst. coord.)
         1           Al  tau(   1) = (  0.8681360  0.3955910  0.8681360  )
         2           Al  tau(   2) = (  0.3955910  0.8681360  0.8681360  )
         3           Al  tau(   3) = (  0.8681360  0.8681360  0.3955910  )
         4           Al  tau(   4) = (  0.8681360  0.8681360  0.8681360  )
         5           Al  tau(   5) = (  0.2500000  0.2500000  0.2500000  )
         6           Cu  tau(   6) = (  0.5000000  0.5000000  0.5000000  )
         7           S   tau(   7) = (  0.6318830  0.6318830  0.6318830  )
         8           S   tau(   8) = (  0.6318830  0.6318830  0.1043500  )
         9           S   tau(   9) = (  0.1043500  0.6318830  0.6318830  )
        10           S   tau(  10) = (  0.6318830  0.1043500  0.6318830  )
        11           S   tau(  11) = (  0.1165090  0.6504730  0.1165090  )
        12           S   tau(  12) = (  0.6504730  0.1165090  0.1165090  )
        13           S   tau(  13) = (  0.1165090  0.1165090  0.6504730  )
        14           S   tau(  14) = (  0.1165090  0.1165090  0.1165090  )

     number of k points=     1  Methfessel-Paxton smearing, width (Ry)=  0.0010
                       cart. coord. in units 2pi/alat
        k(    1) = (   0.0000000   0.0000000   0.0000000), wk =   2.0000000

                       cryst. coord.
        k(    1) = (   0.0000000   0.0000000   0.0000000), wk =   2.0000000

     Dense  grid:    53010 G-vectors     FFT dimensions: (  72,  72,  72)

     Smooth grid:    18731 G-vectors     FFT dimensions: (  48,  48,  48)

     Dynamical RAM for                 wfc:       0.05 MB

     Dynamical RAM for     wfc (w. buffer):       0.05 MB

     Dynamical RAM for           str. fact:       0.08 MB

     Dynamical RAM for           local pot:       0.00 MB

     Dynamical RAM for          nlocal pot:       0.28 MB

     Dynamical RAM for                qrad:       3.73 MB

     Dynamical RAM for          rho,v,vnew:       0.43 MB

     Dynamical RAM for               rhoin:       0.14 MB

     Dynamical RAM for            rho*nmix:       0.40 MB

     Dynamical RAM for           G-vectors:       0.10 MB

     Dynamical RAM for          h,s,v(r/c):       0.01 MB

     Dynamical RAM for          <psi|beta>:       0.09 MB

     Dynamical RAM for                 psi:       0.11 MB

     Dynamical RAM for                hpsi:       0.11 MB

     Dynamical RAM for                spsi:       0.11 MB

     Dynamical RAM for      wfcinit/wfcrot:       0.24 MB

     Dynamical RAM for           addusdens:       4.91 MB

     Dynamical RAM for          addusforce:       5.31 MB

     Dynamical RAM for         addusstress:       5.09 MB

     Estimated static dynamical RAM per process >       5.51 MB

     Estimated max dynamical RAM per process >      11.22 MB

     Estimated total dynamical RAM >     359.17 MB

     Initial potential from superposition of free atoms

     starting charge      80.9883, renormalised to      82.0000
     Starting wfcs are   65 randomized atomic wfcs
     Checking if some PAW data can be deallocated... 
       PAW data deallocated on   18 nodes for type:  1

     total cpu time spent up to now is        1.5 secs

     Self-consistent Calculation

     iteration #  1     ecut=    30.00 Ry     beta= 0.70
     Davidson diagonalization with overlap

---- Real-time Memory Report at c_bands before calling an iterative solver
           154 MiB given to the printing process from OS
             0 MiB allocation reported by mallinfo(arena+hblkhd)
        165128 MiB available memory on the node where the printing process lives
------------------
     ethr =  1.00E-02,  avg # of iterations =  3.0

     total cpu time spent up to now is        1.7 secs

     total energy              =    -793.07615917 Ry
     estimated scf accuracy    <       2.08548432 Ry

     iteration #  2     ecut=    30.00 Ry     beta= 0.70
     Davidson diagonalization with overlap

---- Real-time Memory Report at c_bands before calling an iterative solver
           161 MiB given to the printing process from OS
             0 MiB allocation reported by mallinfo(arena+hblkhd)
        165057 MiB available memory on the node where the printing process lives
------------------
     ethr =  2.54E-03,  avg # of iterations =  9.0

     total cpu time spent up to now is        1.9 secs

     total energy              =    -787.14077189 Ry
     estimated scf accuracy    <      86.74920444 Ry

     iteration #  3     ecut=    30.00 Ry     beta= 0.70
     Davidson diagonalization with overlap

---- Real-time Memory Report at c_bands before calling an iterative solver
           163 MiB given to the printing process from OS
             0 MiB allocation reported by mallinfo(arena+hblkhd)
        165025 MiB available memory on the node where the printing process lives
------------------
     ethr =  2.54E-03,  avg # of iterations =  8.0

     total cpu time spent up to now is        2.1 secs

     total energy              =    -794.21328680 Ry
     estimated scf accuracy    <       1.28097757 Ry

     iteration #  4     ecut=    30.00 Ry     beta= 0.70
     Davidson diagonalization with overlap

---- Real-time Memory Report at c_bands before calling an iterative solver
           164 MiB given to the printing process from OS
             0 MiB allocation reported by mallinfo(arena+hblkhd)
        165030 MiB available memory on the node where the printing process lives
------------------
     ethr =  1.56E-03,  avg # of iterations =  2.0

     total cpu time spent up to now is        2.3 secs

     total energy              =    -794.19652936 Ry
     estimated scf accuracy    <       0.73501226 Ry

     iteration #  5     ecut=    30.00 Ry     beta= 0.70
     Davidson diagonalization with overlap

---- Real-time Memory Report at c_bands before calling an iterative solver
           165 MiB given to the printing process from OS
             0 MiB allocation reported by mallinfo(arena+hblkhd)
        165030 MiB available memory on the node where the printing process lives
------------------
     ethr =  8.96E-04,  avg # of iterations =  1.0

     total cpu time spent up to now is        2.4 secs

     total energy              =    -794.14901214 Ry
     estimated scf accuracy    <       0.43303418 Ry

     iteration #  6     ecut=    30.00 Ry     beta= 0.70
     Davidson diagonalization with overlap

---- Real-time Memory Report at c_bands before calling an iterative solver
           166 MiB given to the printing process from OS
             0 MiB allocation reported by mallinfo(arena+hblkhd)
        165030 MiB available memory on the node where the printing process lives
------------------
     ethr =  5.28E-04,  avg # of iterations =  1.0

     total cpu time spent up to now is        2.6 secs

     total energy              =    -794.15010736 Ry
     estimated scf accuracy    <       0.17834452 Ry

     iteration #  7     ecut=    30.00 Ry     beta= 0.70
     Davidson diagonalization with overlap

---- Real-time Memory Report at c_bands before calling an iterative solver
           166 MiB given to the printing process from OS
             0 MiB allocation reported by mallinfo(arena+hblkhd)
        165030 MiB available memory on the node where the printing process lives
------------------
     ethr =  2.17E-04,  avg # of iterations =  1.0

     total cpu time spent up to now is        2.8 secs

     total energy              =    -794.12994638 Ry
     estimated scf accuracy    <       0.14139937 Ry

     iteration #  8     ecut=    30.00 Ry     beta= 0.70
     Davidson diagonalization with overlap

---- Real-time Memory Report at c_bands before calling an iterative solver
           166 MiB given to the printing process from OS
             0 MiB allocation reported by mallinfo(arena+hblkhd)
        165024 MiB available memory on the node where the printing process lives
------------------
     ethr =  1.72E-04,  avg # of iterations =  2.0

     total cpu time spent up to now is        2.9 secs

     total energy              =    -794.12699524 Ry
     estimated scf accuracy    <       0.03938362 Ry

     iteration #  9     ecut=    30.00 Ry     beta= 0.70
     Davidson diagonalization with overlap

---- Real-time Memory Report at c_bands before calling an iterative solver
           167 MiB given to the printing process from OS
             0 MiB allocation reported by mallinfo(arena+hblkhd)
        165024 MiB available memory on the node where the printing process lives
------------------
     ethr =  4.80E-05,  avg # of iterations =  4.0

     total cpu time spent up to now is        3.1 secs

     total energy              =    -794.13209223 Ry
     estimated scf accuracy    <       0.00351501 Ry

     iteration # 10     ecut=    30.00 Ry     beta= 0.70
     Davidson diagonalization with overlap

---- Real-time Memory Report at c_bands before calling an iterative solver
           167 MiB given to the printing process from OS
             0 MiB allocation reported by mallinfo(arena+hblkhd)
        165022 MiB available memory on the node where the printing process lives
------------------
     ethr =  4.29E-06,  avg # of iterations =  6.0

     total cpu time spent up to now is        3.3 secs

     total energy              =    -794.12932338 Ry
     estimated scf accuracy    <       0.00514299 Ry

     iteration # 11     ecut=    30.00 Ry     beta= 0.70
     Davidson diagonalization with overlap

---- Real-time Memory Report at c_bands before calling an iterative solver
           168 MiB given to the printing process from OS
             0 MiB allocation reported by mallinfo(arena+hblkhd)
        165023 MiB available memory on the node where the printing process lives
------------------
     ethr =  4.29E-06,  avg # of iterations =  2.0

     total cpu time spent up to now is        3.5 secs

     total energy              =    -794.13040763 Ry
     estimated scf accuracy    <       0.00023775 Ry

     iteration # 12     ecut=    30.00 Ry     beta= 0.70
     Davidson diagonalization with overlap

---- Real-time Memory Report at c_bands before calling an iterative solver
           168 MiB given to the printing process from OS
             0 MiB allocation reported by mallinfo(arena+hblkhd)
        165023 MiB available memory on the node where the printing process lives
------------------
     ethr =  2.90E-07,  avg # of iterations =  2.0

     total cpu time spent up to now is        3.6 secs

     total energy              =    -794.13037915 Ry
     estimated scf accuracy    <       0.00033486 Ry

     iteration # 13     ecut=    30.00 Ry     beta= 0.70
     Davidson diagonalization with overlap

---- Real-time Memory Report at c_bands before calling an iterative solver
           168 MiB given to the printing process from OS
             0 MiB allocation reported by mallinfo(arena+hblkhd)
        165022 MiB available memory on the node where the printing process lives
------------------
     ethr =  2.90E-07,  avg # of iterations =  1.0

     total cpu time spent up to now is        3.8 secs

     total energy              =    -794.13033961 Ry
     estimated scf accuracy    <       0.00016620 Ry

     iteration # 14     ecut=    30.00 Ry     beta= 0.70
     Davidson diagonalization with overlap

---- Real-time Memory Report at c_bands before calling an iterative solver
           168 MiB given to the printing process from OS
             0 MiB allocation reported by mallinfo(arena+hblkhd)
        165021 MiB available memory on the node where the printing process lives
------------------
     ethr =  2.03E-07,  avg # of iterations =  3.0

     total cpu time spent up to now is        4.0 secs

     total energy              =    -794.13037193 Ry
     estimated scf accuracy    <       0.00007285 Ry

     iteration # 15     ecut=    30.00 Ry     beta= 0.70
     Davidson diagonalization with overlap

---- Real-time Memory Report at c_bands before calling an iterative solver
           169 MiB given to the printing process from OS
             0 MiB allocation reported by mallinfo(arena+hblkhd)
        165017 MiB available memory on the node where the printing process lives
------------------
     ethr =  8.88E-08,  avg # of iterations =  2.0

     total cpu time spent up to now is        4.1 secs

     total energy              =    -794.13036603 Ry
     estimated scf accuracy    <       0.00002420 Ry

     iteration # 16     ecut=    30.00 Ry     beta= 0.70
     Davidson diagonalization with overlap

---- Real-time Memory Report at c_bands before calling an iterative solver
           169 MiB given to the printing process from OS
             0 MiB allocation reported by mallinfo(arena+hblkhd)
        165017 MiB available memory on the node where the printing process lives
------------------
     ethr =  2.95E-08,  avg # of iterations =  3.0

     total cpu time spent up to now is        4.3 secs

     total energy              =    -794.13037132 Ry
     estimated scf accuracy    <       0.00001912 Ry

     iteration # 17     ecut=    30.00 Ry     beta= 0.70
     Davidson diagonalization with overlap

---- Real-time Memory Report at c_bands before calling an iterative solver
           169 MiB given to the printing process from OS
             0 MiB allocation reported by mallinfo(arena+hblkhd)
        165017 MiB available memory on the node where the printing process lives
------------------
     ethr =  2.33E-08,  avg # of iterations =  2.0

     total cpu time spent up to now is        4.5 secs

     total energy              =    -794.13037347 Ry
     estimated scf accuracy    <       0.00000146 Ry

     iteration # 18     ecut=    30.00 Ry     beta= 0.70
     Davidson diagonalization with overlap

---- Real-time Memory Report at c_bands before calling an iterative solver
           169 MiB given to the printing process from OS
             0 MiB allocation reported by mallinfo(arena+hblkhd)
        165018 MiB available memory on the node where the printing process lives
------------------
     ethr =  1.79E-09,  avg # of iterations =  4.0

     total cpu time spent up to now is        4.6 secs

     End of self-consistent calculation

          k = 0.0000 0.0000 0.0000 (  2323 PWs)   bands (ev):

  -105.4158 -62.7920 -62.7919 -62.7918  -7.3765  -5.8336  -5.4357  -5.4357
    -5.4356  -4.9954  -4.9953  -4.9953  -0.4939   0.3712   0.3712   0.3713
     0.4909   1.5669   1.5669   3.2722   3.2722   3.2722   4.0826   4.0826
     4.0826   4.4852   4.4853   4.4897   4.4897   4.4897   5.5548   5.5548
     5.5549   5.8482   5.8483   6.0251   6.0251   6.0251   6.6821   6.6822
     6.6822   8.4493   8.4493   8.4493   8.5777   9.7462  10.2033  11.2992
    11.2993

     occupation numbers 
     1.0000   1.0000   1.0000   1.0000   1.0000   1.0000   1.0000   1.0000
     1.0000   1.0000   1.0000   1.0000   1.0000   1.0000   1.0000   1.0000
     1.0000   1.0000   1.0000   1.0000   1.0000   1.0000   1.0000   1.0000
     1.0000   1.0000   1.0000   1.0000   1.0000   1.0000   1.0000   1.0000
     1.0000   1.0000   1.0000   1.0000   1.0000   1.0000   1.0000   1.0000
     1.0000  -0.0000  -0.0000  -0.0000  -0.0000  -0.0000  -0.0000  -0.0000
    -0.0000

     the Fermi energy is     7.7795 ev

!    total energy              =    -794.13037368 Ry
     estimated scf accuracy    <       0.00000024 Ry
     smearing contrib. (-TS)   =       0.00000000 Ry
     internal energy E=F+TS    =    -794.13037368 Ry

     The total energy is F=E-TS. E is the sum of the following terms:
     one-electron contribution =    -451.12594650 Ry
     hartree contribution      =     265.64662240 Ry
     xc contribution           =    -120.45320700 Ry
     ewald contribution        =    -314.96695759 Ry
     one-center paw contrib.   =    -173.23088499 Ry
      -> PAW hartree energy AE =       1.28286445 Ry
      -> PAW hartree energy PS =      -1.27962698 Ry
      -> PAW xc energy AE      =     -36.49756505 Ry
      -> PAW xc energy PS      =       1.84920462 Ry
      -> total E_H with PAW    =     265.64985988 Ry
      -> total E_XC with PAW   =    -155.10156743 Ry

     convergence has been achieved in  18 iterations

     Forces acting on atoms (cartesian axes, Ry/au):

     atom    1 type  1   force =     0.00000000   -0.00945834    0.00335905
     atom    2 type  1   force =    -0.00819116    0.00472917    0.00335905
     atom    3 type  1   force =     0.00000000    0.00000000   -0.01001307
     atom    4 type  1   force =     0.00819116    0.00472917    0.00335905
     atom    5 type  1   force =    -0.00000000   -0.00000000    0.00002283
     atom    6 type  2   force =     0.00000000    0.00000000   -0.00022575
     atom    7 type  3   force =     0.04825937    0.02786256    0.01972593
     atom    8 type  3   force =     0.00000000    0.00000000   -0.05910980
     atom    9 type  3   force =    -0.04825937    0.02786256    0.01972593
     atom   10 type  3   force =     0.00000000   -0.05572512    0.01972593
     atom   11 type  3   force =     0.00000000   -0.00772837    0.00274670
     atom   12 type  3   force =    -0.00669296    0.00386418    0.00274670
     atom   13 type  3   force =     0.00000000    0.00000000   -0.00816926
     atom   14 type  3   force =     0.00669296    0.00386418    0.00274670
     The non-local contrib.  to forces
     atom    1 type  1   force =     0.00000000   -0.08228045    0.02909060
     atom    2 type  1   force =    -0.07125696    0.04114022    0.02909060
     atom    3 type  1   force =     0.00000000    0.00000000   -0.08726974
     atom    4 type  1   force =     0.07125696    0.04114022    0.02909060
     atom    5 type  1   force =    -0.00000000   -0.00000000    0.00000561
     atom    6 type  2   force =     0.00000000    0.00000000   -0.00013025
     atom    7 type  3   force =    -0.05053191   -0.02917461   -0.02063276
     atom    8 type  3   force =     0.00000000    0.00000000    0.06194521
     atom    9 type  3   force =     0.05053191   -0.02917461   -0.02063276
     atom   10 type  3   force =     0.00000000    0.05834923   -0.02063276
     atom   11 type  3   force =     0.00000000   -0.13445936    0.04753427
     atom   12 type  3   force =    -0.11644522    0.06722968    0.04753427
     atom   13 type  3   force =     0.00000000    0.00000000   -0.14265017
     atom   14 type  3   force =     0.11644522    0.06722968    0.04753427
     The ionic contribution  to forces
     atom    1 type  1   force =     0.00000547   -0.64345398    0.22749869
     atom    2 type  1   force =    -0.55724476    0.32173173    0.22749869
     atom    3 type  1   force =     0.00000547    0.00000316   -0.68248713
     atom    4 type  1   force =     0.55725210    0.32172965    0.22749722
     atom    5 type  1   force =    -0.00000358   -0.00000207   -0.00000146
     atom    6 type  2   force =    -0.00002266   -0.00001308   -0.00000925
     atom    7 type  3   force =     5.22380586    3.01596572    2.13260981
     atom    8 type  3   force =    -0.00000514   -0.00000297   -6.39776786
     atom    9 type  3   force =    -5.22375901    3.01593274    2.13258649
     atom   10 type  3   force =    -0.00000514   -6.03187437    2.13258649
     atom   11 type  3   force =    -0.00001210   -0.57148364    0.20204257
     atom   12 type  3   force =    -0.49492540    0.28573134    0.20204257
     atom   13 type  3   force =    -0.00001210   -0.00000699   -0.60614746
     atom   14 type  3   force =     0.49492099    0.28574277    0.20205065
     The local contribution  to forces
     atom    1 type  1   force =    -0.00000164    0.70584498   -0.24955598
     atom    2 type  1   force =     0.61129212   -0.35291899   -0.24954838
     atom    3 type  1   force =    -0.00001119   -0.00001472    0.74864448
     atom    4 type  1   force =    -0.61128703   -0.35292187   -0.24953235
     atom    5 type  1   force =    -0.00001262   -0.00000012   -0.00002058
     atom    6 type  2   force =     0.00003204    0.00007931    0.00014337
     atom    7 type  3   force =    -5.12889292   -2.96121242   -2.09383345
     atom    8 type  3   force =     0.00005553    0.00002644    6.28134733
     atom    9 type  3   force =     5.12883158   -2.96115223   -2.09378667
     atom   10 type  3   force =    -0.00003309    5.92227405   -2.09371410
     atom   11 type  3   force =    -0.00002314    0.69027163   -0.24405227
     atom   12 type  3   force =     0.59782775   -0.34520420   -0.24410856
     atom   13 type  3   force =    -0.00000344    0.00005268    0.73225795
     atom   14 type  3   force =    -0.59773367   -0.34512496   -0.24407475
     The core correction contribution to forces
     atom    1 type  1   force =     0.00000016    0.01049559   -0.00371093
     atom    2 type  1   force =     0.00909000   -0.00524742   -0.00371078
     atom    3 type  1   force =    -0.00000024   -0.00000032    0.01113173
     atom    4 type  1   force =    -0.00908940   -0.00524764   -0.00371032
     atom    5 type  1   force =    -0.00000036    0.00000006   -0.00000055
     atom    6 type  2   force =    -0.00000001   -0.00000003    0.00000037
     atom    7 type  3   force =     0.00355895    0.00205401    0.00145280
     atom    8 type  3   force =     0.00000096    0.00000021   -0.00436318
     atom    9 type  3   force =    -0.00355872    0.00205412    0.00145262
     atom   10 type  3   force =    -0.00000139   -0.00410937    0.00145465
     atom   11 type  3   force =     0.00000030    0.00750944   -0.00265488
     atom   12 type  3   force =     0.00650450   -0.00375639   -0.00265551
     atom   13 type  3   force =     0.00000013    0.00000094    0.00796776
     atom   14 type  3   force =    -0.00650172   -0.00375507   -0.00265435
     The Hubbard contrib.    to forces
     atom    1 type  1   force =     0.00000000    0.00000000    0.00000000
     atom    2 type  1   force =     0.00000000    0.00000000    0.00000000
     atom    3 type  1   force =     0.00000000    0.00000000    0.00000000
     atom    4 type  1   force =     0.00000000    0.00000000    0.00000000
     atom    5 type  1   force =     0.00000000    0.00000000    0.00000000
     atom    6 type  2   force =     0.00000000    0.00000000    0.00000000
     atom    7 type  3   force =     0.00000000    0.00000000    0.00000000
     atom    8 type  3   force =     0.00000000    0.00000000    0.00000000
     atom    9 type  3   force =     0.00000000    0.00000000    0.00000000
     atom   10 type  3   force =     0.00000000    0.00000000    0.00000000
     atom   11 type  3   force =     0.00000000    0.00000000    0.00000000
     atom   12 type  3   force =     0.00000000    0.00000000    0.00000000
     atom   13 type  3   force =     0.00000000    0.00000000    0.00000000
     atom   14 type  3   force =     0.00000000    0.00000000    0.00000000
     The SCF correction term to forces
     atom    1 type  1   force =    -0.00000164   -0.00006461    0.00001508
     atom    2 type  1   force =    -0.00006600    0.00002775    0.00000870
     atom    3 type  1   force =     0.00000426    0.00000860   -0.00005119
     atom    4 type  1   force =     0.00006039    0.00003081   -0.00000062
     atom    5 type  1   force =     0.00001113    0.00000257    0.00002104
     atom    6 type  2   force =     0.00002408   -0.00010212   -0.00024876
     atom    7 type  3   force =     0.00031278    0.00021680    0.00010082
     atom    8 type  3   force =    -0.00003465   -0.00001901   -0.00029007
     atom    9 type  3   force =    -0.00031511    0.00019656    0.00007587
     atom   10 type  3   force =     0.00001315   -0.00037127    0.00003441
     atom   11 type  3   force =     0.00003489    0.00043006   -0.00013872
     atom   12 type  3   force =     0.00036113   -0.00016517   -0.00009481
     atom   13 type  3   force =     0.00001828   -0.00002950    0.00038389
     atom   14 type  3   force =    -0.00040988   -0.00022755   -0.00012097

     Total force =     0.121030     Total SCF correction =     0.001170


     Computing stress (Cartesian axis) and pressure

          total   stress  (Ry/bohr**3)                   (kbar)     P=       25.80
   0.00017538   0.00000000   0.00000000           25.80        0.00        0.00
   0.00000000   0.00017538   0.00000000            0.00       25.80        0.00
   0.00000000   0.00000000   0.00017540            0.00        0.00       25.80

     kinetic stress (kbar)   6697.89      0.00     -0.00
                                0.00   6697.89      0.00
                                0.00      0.00   6697.90

     local   stress (kbar)  -7672.23     -0.03     -0.01
                               -0.03  -7672.17     -0.01
                               -0.01     -0.01  -7672.21

     nonloc. stress (kbar)   4999.20     -0.00     -0.00
                               -0.00   4999.20      0.00
                               -0.00      0.00   4999.21

     hartree stress (kbar)   7702.91      0.01      0.00
                                0.01   7702.88     -0.00
                                0.00     -0.00   7702.91

     exc-cor stress (kbar)    596.38      0.00     -0.00
                                0.00    596.38      0.00
                               -0.00      0.00    596.38

     corecor stress (kbar)  -3165.34      0.00      0.00
                                0.00  -3165.34     -0.00
                                0.00     -0.00  -3165.34

     ewald   stress (kbar)  -9133.02      0.02      0.01
                                0.02  -9133.04      0.01
                                0.01      0.01  -9133.04

     hubbard stress (kbar)      0.00      0.00      0.00
                                0.00      0.00      0.00
                                0.00      0.00      0.00

     DFT-D   stress (kbar)      0.00      0.00      0.00
                                0.00      0.00      0.00
                                0.00      0.00      0.00

     XDM     stress (kbar)      0.00      0.00      0.00
                                0.00      0.00      0.00
                                0.00      0.00      0.00

     dft-nl  stress (kbar)      0.00      0.00      0.00
                                0.00      0.00      0.00
                                0.00      0.00      0.00

     TS-vdW  stress (kbar)      0.00      0.00      0.00
                                0.00      0.00      0.00
                                0.00      0.00      0.00


                                0.00      0.00      0.00
                                0.00      0.00      0.00


                                0.00      0.00      0.00


     Writing all to output data dir calculations/myprefix.save/
 
     init_run     :      1.11s CPU      1.15s WALL (       1 calls)
     electrons    :      3.09s CPU      3.19s WALL (       1 calls)
     forces       :      0.07s CPU      0.08s WALL (       1 calls)
     stress       :      0.21s CPU      0.21s WALL (       1 calls)

     Called by init_run:
     wfcinit      :      0.02s CPU      0.03s WALL (       1 calls)
     wfcinit:atom :      0.00s CPU      0.00s WALL (       1 calls)
     wfcinit:wfcr :      0.02s CPU      0.03s WALL (       1 calls)
     potinit      :      0.45s CPU      0.46s WALL (       1 calls)
     hinit0       :      0.61s CPU      0.62s WALL (       1 calls)

     Called by electrons:
     c_bands      :      0.64s CPU      0.66s WALL (      18 calls)
     sum_band     :      0.41s CPU      0.42s WALL (      18 calls)
     v_of_rho     :      0.14s CPU      0.15s WALL (      19 calls)
     v_h          :      0.01s CPU      0.01s WALL (      19 calls)
     v_xc         :      0.15s CPU      0.15s WALL (      21 calls)
     newd         :      0.34s CPU      0.35s WALL (      19 calls)
     PAW_pot      :      1.62s CPU      1.65s WALL (      19 calls)
     mix_rho      :      0.03s CPU      0.03s WALL (      18 calls)

     Called by c_bands:
     init_us_2    :      0.00s CPU      0.01s WALL (      37 calls)
     init_us_2:cp :      0.00s CPU      0.00s WALL (      37 calls)
     regterg      :      0.61s CPU      0.63s WALL (      18 calls)

     Called by sum_band:
     sum_band:wei :      0.00s CPU      0.00s WALL (      18 calls)
     sum_band:loo :      0.05s CPU      0.06s WALL (      18 calls)
     sum_band:buf :      0.00s CPU      0.00s WALL (      18 calls)
     sum_band:ini :      0.00s CPU      0.00s WALL (      18 calls)
     sum_band:cal :      0.01s CPU      0.01s WALL (      18 calls)
     sum_band:bec :      0.00s CPU      0.00s WALL (      18 calls)
     addusdens    :      0.31s CPU      0.31s WALL (      18 calls)
     addusd:skk   :      0.00s CPU      0.00s WALL (      54 calls)
     addusd:dgemm :      0.09s CPU      0.09s WALL (      54 calls)
     addusd:qvan2 :      0.21s CPU      0.21s WALL (      54 calls)

     Called by *egterg:
     rdiaghg      :      0.29s CPU      0.30s WALL (      74 calls)
     regterg:over :      0.03s CPU      0.03s WALL (      56 calls)
     regterg:upda :      0.01s CPU      0.01s WALL (      56 calls)
     regterg:last :      0.02s CPU      0.03s WALL (      38 calls)
     rdiaghg:chol :      0.02s CPU      0.02s WALL (      74 calls)
     rdiaghg:inve :      0.00s CPU      0.00s WALL (      74 calls)
     rdiaghg:para :      0.02s CPU      0.02s WALL (     148 calls)
     h_psi        :      0.24s CPU      0.26s WALL (      75 calls)
     s_psi        :      0.00s CPU      0.00s WALL (      75 calls)
     g_psi        :      0.00s CPU      0.00s WALL (      56 calls)

     Called by h_psi:
     h_psi:calbec :      0.03s CPU      0.03s WALL (      75 calls)
     vloc_psi     :      0.21s CPU      0.22s WALL (      75 calls)
     add_vuspsi   :      0.01s CPU      0.01s WALL (      75 calls)

     General routines
     calbec       :      0.04s CPU      0.04s WALL (      98 calls)
     fft          :      0.65s CPU      0.66s WALL (     227 calls)
     ffts         :      0.33s CPU      0.33s WALL (      37 calls)
     fftw         :      0.23s CPU      0.25s WALL (    2820 calls)
     interpolate  :      0.34s CPU      0.34s WALL (      19 calls)
 
     Parallel routines

     PAW routines
     PAW_pot      :      1.62s CPU      1.65s WALL (      19 calls)
     PAW_symme    :      0.01s CPU      0.01s WALL (      37 calls)
 
     PWSCF        :      4.77s CPU      5.37s WALL

 
   This run was terminated on:  12:10:17   6Mar2023            

=------------------------------------------------------------------------------=
   JOB DONE.
=------------------------------------------------------------------------------=
