
     Program PWSCF v.7.0 starts on  6Mar2023 at 12:11:43 

     This program is part of the open-source Quantum ESPRESSO suite
     for quantum simulation of materials; please cite
         "P. Giannozzi et al., J. Phys.:Condens. Matter 21 395502 (2009);
         "P. Giannozzi et al., J. Phys.:Condens. Matter 29 465901 (2017);
         "P. Giannozzi et al., J. Chem. Phys. 152 154105 (2020);
          URL http://www.quantum-espresso.org", 
     in publications or presentations arising from this work. More details at
     http://www.quantum-espresso.org/quote

     Parallel version (MPI & OpenMP), running on      32 processor cores
     Number of MPI processes:                32
     Threads/MPI process:                     1

     MPI processes distributed on     1 nodes
     R & G space division:  proc/nbgrp/npool/nimage =      32
     166216 MiB available memory on the printing compute node when the environment starts
 
     Reading input from espresso_4562.pwi
Warning: card &CELL ignored
Warning: card / ignored

     Current dimensions of program PWSCF are:
     Max number of different atomic species (ntypx) = 10
     Max number of k-points (npk) =  40000
     Max angular momentum in pseudopotentials (lmaxx) =  4

     gamma-point specific algorithms are used
     Message from routine setup:
     using ibrav=0 with symmetry is DISCOURAGED, use correct ibrav instead

     Subspace diagonalization in iterative solution of the eigenvalue problem:
     one sub-group per band group will be used
     scalapack distributed-memory algorithm (size of sub-group:  5*  5 procs)

 
     Parallelization info
     --------------------
     sticks:   dense  smooth     PW     G-vecs:    dense   smooth      PW
     Min          60      29      6                 1780      627      76
     Max          62      32      8                 1792      634      86
     Sum        1945     967    253                57121    20179    2637
 
     Using Slab Decomposition
 


     bravais-lattice index     =            0
     lattice parameter (alat)  =      10.8873  a.u.
     unit-cell volume          =     912.5280 (a.u.)^3
     number of atoms/cell      =            8
     number of atomic types    =            3
     number of electrons       =        56.00
     number of Kohn-Sham states=           34
     kinetic-energy cutoff     =      30.0000  Ry
     charge density cutoff     =     240.0000  Ry
     scf convergence threshold =      1.0E-06
     mixing beta               =       0.7000
     number of iterations used =            8  plain     mixing
     Exchange-correlation=  SLA  PW   PBX  PBC
                           (   1   4   3   4   0   0   0)

     celldm(1)=  10.887305  celldm(2)=   0.000000  celldm(3)=   0.000000
     celldm(4)=   0.000000  celldm(5)=   0.000000  celldm(6)=   0.000000

     crystal axes: (cart. coord. in units of alat)
               a(1) = (   1.000000   0.000000   0.000000 )  
               a(2) = (   0.500000   0.866025   0.000000 )  
               a(3) = (   0.500000   0.288675   0.816497 )  

     reciprocal axes: (cart. coord. in units 2 pi/alat)
               b(1) = (  1.000000 -0.577350 -0.408248 )  
               b(2) = (  0.000000  1.154701 -0.408248 )  
               b(3) = (  0.000000  0.000000  1.224745 )  


     PseudoPot. # 1 for Na read from file:
     /home/pragov/projects/rrg-bengioy-ad/pragov/crystal_structure_design/SSSP/na_pbe_v1.5.uspp.F.UPF
     MD5 check sum: 44600605ef58000f06b90626533354dc
     Pseudo is Ultrasoft, Zval =  9.0
     Generated by new atomic code, or converted to UPF format
     Using radial grid of  819 points,  5 beta functions with: 
                l(1) =   0
                l(2) =   0
                l(3) =   1
                l(4) =   1
                l(5) =   2
     Q(r) pseudized with  8 coefficients,  rinner =    1.250   1.250   1.250
                                                       1.250   1.250

     PseudoPot. # 2 for As read from file:
     /home/pragov/projects/rrg-bengioy-ad/pragov/crystal_structure_design/SSSP/As.pbe-n-rrkjus_psl.0.2.UPF
     MD5 check sum: 767315de957beeeb34f87d97bf945c8f
     Pseudo is Ultrasoft + core correction, Zval =  5.0
     Generated using "atomic" code by A. Dal Corso  v.5.0.99 svn rev. 10869
     Using radial grid of 1209 points,  4 beta functions with: 
                l(1) =   0
                l(2) =   0
                l(3) =   1
                l(4) =   1
     Q(r) pseudized with 0 coefficients 


     PseudoPot. # 3 for F  read from file:
     /home/pragov/projects/rrg-bengioy-ad/pragov/crystal_structure_design/SSSP/f_pbe_v1.4.uspp.F.UPF
     MD5 check sum: 4c38b6a325caf53ec0e86aed9459de46
     Pseudo is Ultrasoft, Zval =  7.0
     Generated by new atomic code, or converted to UPF format
     Using radial grid of  799 points,  4 beta functions with: 
                l(1) =   0
                l(2) =   0
                l(3) =   1
                l(4) =   1
     Q(r) pseudized with  8 coefficients,  rinner =    0.950   0.950   0.950


     atomic species   valence    mass     pseudopotential
        Na             9.00    22.98977     Na( 1.00)
        As             5.00    74.92159     As( 1.00)
        F              7.00    18.99840     F ( 1.00)

     12 Sym. Ops., with inversion, found


                                    s                        frac. trans.

      isym =  1     identity                                     

 cryst.   s( 1) = (     1          0          0      )
                  (     0          1          0      )
                  (     0          0          1      )

 cart.    s( 1) = (  1.0000000  0.0000000  0.0000000 )
                  (  0.0000000  1.0000000 -0.0000000 )
                  (  0.0000000  0.0000000  1.0000000 )


      isym =  2     180 deg rotation - cart. axis [1,0,0]        

 cryst.   s( 2) = (     1          0          0      )
                  (     1         -1          0      )
                  (     1          0         -1      )

 cart.    s( 2) = (  1.0000000  0.0000000  0.0000000 )
                  (  0.0000000 -1.0000000  0.0000000 )
                  (  0.0000000  0.0000000 -1.0000000 )


      isym =  3     120 deg rotation - cryst. axis [0,0,1]       

 cryst.   s( 3) = (    -1          1          0      )
                  (    -1          0          0      )
                  (    -1          0          1      )

 cart.    s( 3) = ( -0.5000000 -0.8660254 -0.0000000 )
                  (  0.8660254 -0.5000000 -0.0000000 )
                  (  0.0000000  0.0000000  1.0000000 )


      isym =  4     120 deg rotation - cryst. axis [0,0,-1]      

 cryst.   s( 4) = (     0         -1          0      )
                  (     1         -1          0      )
                  (     0         -1          1      )

 cart.    s( 4) = ( -0.5000000  0.8660254  0.0000000 )
                  ( -0.8660254 -0.5000000 -0.0000000 )
                  (  0.0000000  0.0000000  1.0000000 )


      isym =  5     180 deg rotation - cryst. axis [0,1,0]       

 cryst.   s( 5) = (     0         -1          0      )
                  (    -1          0          0      )
                  (     0          0         -1      )

 cart.    s( 5) = ( -0.5000000 -0.8660254 -0.0000000 )
                  ( -0.8660254  0.5000000  0.0000000 )
                  (  0.0000000  0.0000000 -1.0000000 )


      isym =  6     180 deg rotation - cryst. axis [1,1,0]       

 cryst.   s( 6) = (    -1          1          0      )
                  (     0          1          0      )
                  (     0          1         -1      )

 cart.    s( 6) = ( -0.5000000  0.8660254  0.0000000 )
                  (  0.8660254  0.5000000  0.0000000 )
                  (  0.0000000  0.0000000 -1.0000000 )


      isym =  7     inversion                                    

 cryst.   s( 7) = (    -1          0          0      )
                  (     0         -1          0      )
                  (     0          0         -1      )

 cart.    s( 7) = ( -1.0000000  0.0000000  0.0000000 )
                  (  0.0000000 -1.0000000  0.0000000 )
                  (  0.0000000  0.0000000 -1.0000000 )


      isym =  8     inv. 180 deg rotation - cart. axis [1,0,0]   

 cryst.   s( 8) = (    -1          0          0      )
                  (    -1          1          0      )
                  (    -1          0          1      )

 cart.    s( 8) = ( -1.0000000  0.0000000  0.0000000 )
                  (  0.0000000  1.0000000 -0.0000000 )
                  (  0.0000000  0.0000000  1.0000000 )


      isym =  9     inv. 120 deg rotation - cryst. axis [0,0,1]  

 cryst.   s( 9) = (     1         -1          0      )
                  (     1          0          0      )
                  (     1          0         -1      )

 cart.    s( 9) = (  0.5000000  0.8660254  0.0000000 )
                  ( -0.8660254  0.5000000  0.0000000 )
                  (  0.0000000  0.0000000 -1.0000000 )


      isym = 10     inv. 120 deg rotation - cryst. axis [0,0,-1] 

 cryst.   s(10) = (     0          1          0      )
                  (    -1          1          0      )
                  (     0          1         -1      )

 cart.    s(10) = (  0.5000000 -0.8660254 -0.0000000 )
                  (  0.8660254  0.5000000  0.0000000 )
                  (  0.0000000  0.0000000 -1.0000000 )


      isym = 11     inv. 180 deg rotation - cryst. axis [0,1,0]  

 cryst.   s(11) = (     0          1          0      )
                  (     1          0          0      )
                  (     0          0          1      )

 cart.    s(11) = (  0.5000000  0.8660254  0.0000000 )
                  (  0.8660254 -0.5000000 -0.0000000 )
                  (  0.0000000  0.0000000  1.0000000 )


      isym = 12     inv. 180 deg rotation - cryst. axis [1,1,0]  

 cryst.   s(12) = (     1         -1          0      )
                  (     0         -1          0      )
                  (     0         -1          1      )

 cart.    s(12) = (  0.5000000 -0.8660254 -0.0000000 )
                  ( -0.8660254 -0.5000000 -0.0000000 )
                  (  0.0000000  0.0000000  1.0000000 )


   Cartesian axes

     site n.     atom                  positions (alat units)
         1           Na  tau(   1) = (   1.0000000   0.5773503   0.4082483  )
         2           As  tau(   2) = (   0.0000000   0.0000000   0.0000000  )
         3           F   tau(   3) = (   1.2827090   0.7405724   0.1774174  )
         4           F   tau(   4) = (   0.7172910   0.7405724   0.1774174  )
         5           F   tau(   5) = (   1.0000000   0.2509060   0.1774174  )
         6           F   tau(   6) = (   0.7172910   0.4141282   0.6390792  )
         7           F   tau(   7) = (   1.2827090   0.4141282   0.6390792  )
         8           F   tau(   8) = (   1.0000000   0.9037945   0.6390792  )

   Crystallographic axes

     site n.     atom                  positions (cryst. coord.)
         1           Na  tau(   1) = (  0.5000000  0.5000000  0.5000000  )
         2           As  tau(   2) = (  0.0000000  0.0000000  0.0000000  )
         3           F   tau(   3) = (  0.7827090  0.7827090  0.2172910  )
         4           F   tau(   4) = (  0.2172910  0.7827090  0.2172910  )
         5           F   tau(   5) = (  0.7827090  0.2172910  0.2172910  )
         6           F   tau(   6) = (  0.2172910  0.2172910  0.7827090  )
         7           F   tau(   7) = (  0.7827090  0.2172910  0.7827090  )
         8           F   tau(   8) = (  0.2172910  0.7827090  0.7827090  )

     number of k points=     1  Methfessel-Paxton smearing, width (Ry)=  0.0010
                       cart. coord. in units 2pi/alat
        k(    1) = (   0.0000000   0.0000000   0.0000000), wk =   2.0000000

                       cryst. coord.
        k(    1) = (   0.0000000   0.0000000   0.0000000), wk =   2.0000000

     Dense  grid:    28561 G-vectors     FFT dimensions: (  54,  54,  54)

     Smooth grid:    10090 G-vectors     FFT dimensions: (  40,  40,  40)

     Dynamical RAM for                 wfc:       0.02 MB

     Dynamical RAM for     wfc (w. buffer):       0.02 MB

     Dynamical RAM for           str. fact:       0.04 MB

     Dynamical RAM for           local pot:       0.00 MB

     Dynamical RAM for          nlocal pot:       0.04 MB

     Dynamical RAM for                qrad:       2.67 MB

     Dynamical RAM for          rho,v,vnew:       0.17 MB

     Dynamical RAM for               rhoin:       0.06 MB

     Dynamical RAM for            rho*nmix:       0.22 MB

     Dynamical RAM for           G-vectors:       0.05 MB

     Dynamical RAM for          h,s,v(r/c):       0.00 MB

     Dynamical RAM for          <psi|beta>:       0.02 MB

     Dynamical RAM for                 psi:       0.04 MB

     Dynamical RAM for                hpsi:       0.04 MB

     Dynamical RAM for                spsi:       0.04 MB

     Dynamical RAM for      wfcinit/wfcrot:       0.07 MB

     Dynamical RAM for           addusdens:       1.52 MB

     Dynamical RAM for          addusforce:       1.68 MB

     Dynamical RAM for         addusstress:       1.65 MB

     Estimated static dynamical RAM per process >       3.33 MB

     Estimated max dynamical RAM per process >       5.23 MB

     Estimated total dynamical RAM >     167.23 MB

     Initial potential from superposition of free atoms

     starting charge      55.9935, renormalised to      56.0000
     Starting wfcs are   33 randomized atomic wfcs +    1 random wfcs

     total cpu time spent up to now is        0.8 secs

     Self-consistent Calculation

     iteration #  1     ecut=    30.00 Ry     beta= 0.70
     Davidson diagonalization with overlap

---- Real-time Memory Report at c_bands before calling an iterative solver
           129 MiB given to the printing process from OS
             0 MiB allocation reported by mallinfo(arena+hblkhd)
        165620 MiB available memory on the node where the printing process lives
------------------
     ethr =  1.00E-02,  avg # of iterations =  4.0

     total cpu time spent up to now is        0.9 secs

     total energy              =    -404.95300014 Ry
     estimated scf accuracy    <       1.14297667 Ry

     iteration #  2     ecut=    30.00 Ry     beta= 0.70
     Davidson diagonalization with overlap

---- Real-time Memory Report at c_bands before calling an iterative solver
           134 MiB given to the printing process from OS
             0 MiB allocation reported by mallinfo(arena+hblkhd)
        165558 MiB available memory on the node where the printing process lives
------------------
     ethr =  2.04E-03,  avg # of iterations =  2.0

     total cpu time spent up to now is        0.9 secs

     total energy              =    -405.27318788 Ry
     estimated scf accuracy    <       0.88565811 Ry

     iteration #  3     ecut=    30.00 Ry     beta= 0.70
     Davidson diagonalization with overlap

---- Real-time Memory Report at c_bands before calling an iterative solver
           135 MiB given to the printing process from OS
             0 MiB allocation reported by mallinfo(arena+hblkhd)
        165556 MiB available memory on the node where the printing process lives
------------------
     ethr =  1.58E-03,  avg # of iterations =  2.0

     total cpu time spent up to now is        0.9 secs

     total energy              =    -405.44739821 Ry
     estimated scf accuracy    <       0.00382689 Ry

     iteration #  4     ecut=    30.00 Ry     beta= 0.70
     Davidson diagonalization with overlap

---- Real-time Memory Report at c_bands before calling an iterative solver
           135 MiB given to the printing process from OS
             0 MiB allocation reported by mallinfo(arena+hblkhd)
        165556 MiB available memory on the node where the printing process lives
------------------
     ethr =  6.83E-06,  avg # of iterations =  9.0

     total cpu time spent up to now is        1.0 secs

     total energy              =    -405.44793247 Ry
     estimated scf accuracy    <       0.00031878 Ry

     iteration #  5     ecut=    30.00 Ry     beta= 0.70
     Davidson diagonalization with overlap

---- Real-time Memory Report at c_bands before calling an iterative solver
           135 MiB given to the printing process from OS
             0 MiB allocation reported by mallinfo(arena+hblkhd)
        165556 MiB available memory on the node where the printing process lives
------------------
     ethr =  5.69E-07,  avg # of iterations =  2.0

     total cpu time spent up to now is        1.0 secs

     total energy              =    -405.44796774 Ry
     estimated scf accuracy    <       0.00001922 Ry

     iteration #  6     ecut=    30.00 Ry     beta= 0.70
     Davidson diagonalization with overlap

---- Real-time Memory Report at c_bands before calling an iterative solver
           136 MiB given to the printing process from OS
             0 MiB allocation reported by mallinfo(arena+hblkhd)
        165556 MiB available memory on the node where the printing process lives
------------------
     ethr =  3.43E-08,  avg # of iterations =  2.0

     total cpu time spent up to now is        1.1 secs

     End of self-consistent calculation

          k = 0.0000 0.0000 0.0000 (  1319 PWs)   bands (ev):

   -49.6218 -24.4911 -23.0500 -23.0492 -23.0485 -22.3797 -22.3788 -21.4826
   -21.4826 -21.4826 -10.9994  -6.8728  -6.8723  -6.8719  -4.5781  -4.5778
    -4.5774  -4.2206  -4.2198  -3.0876  -3.0874  -3.0873  -3.0304  -3.0300
    -3.0296  -2.3333  -2.3330  -2.3325   2.4013   6.7241   8.7018   8.7020
     8.7022   9.8855

     occupation numbers 
     1.0000   1.0000   1.0000   1.0000   1.0000   1.0000   1.0000   1.0000
     1.0000   1.0000   1.0000   1.0000   1.0000   1.0000   1.0000   1.0000
     1.0000   1.0000   1.0000   1.0000   1.0000   1.0000   1.0000   1.0000
     1.0000   1.0000   1.0000   1.0000  -0.0000  -0.0000  -0.0000  -0.0000
    -0.0000  -0.0000

     the Fermi energy is    -1.1871 ev

!    total energy              =    -405.44797212 Ry
     estimated scf accuracy    <       0.00000071 Ry
     smearing contrib. (-TS)   =       0.00000000 Ry
     internal energy E=F+TS    =    -405.44797212 Ry

     The total energy is F=E-TS. E is the sum of the following terms:
     one-electron contribution =    -312.60188084 Ry
     hartree contribution      =     180.21163638 Ry
     xc contribution           =     -79.95109503 Ry
     ewald contribution        =    -193.10663263 Ry

     convergence has been achieved in   6 iterations

     Forces acting on atoms (cartesian axes, Ry/au):

     atom    1 type  1   force =     0.00000000    0.00000000    0.00000000
     atom    2 type  2   force =     0.00000000    0.00000000    0.00000000
     atom    3 type  3   force =    -0.00767806   -0.00443293    0.00627632
     atom    4 type  3   force =     0.00767806   -0.00443293    0.00627632
     atom    5 type  3   force =     0.00000000    0.00886586    0.00627632
     atom    6 type  3   force =     0.00767806    0.00443293   -0.00627632
     atom    7 type  3   force =    -0.00767806    0.00443293   -0.00627632
     atom    8 type  3   force =     0.00000000   -0.00886586   -0.00627632
     The non-local contrib.  to forces
     atom    1 type  1   force =     0.00000000    0.00000000    0.00000000
     atom    2 type  2   force =     0.00000000    0.00000000    0.00000000
     atom    3 type  3   force =     1.08569534    0.62682650   -0.88646810
     atom    4 type  3   force =    -1.08569534    0.62682650   -0.88646810
     atom    5 type  3   force =     0.00000000   -1.25365300   -0.88646810
     atom    6 type  3   force =    -1.08569534   -0.62682650    0.88646810
     atom    7 type  3   force =     1.08569534   -0.62682650    0.88646810
     atom    8 type  3   force =     0.00000000    1.25365300    0.88646810
     The ionic contribution  to forces
     atom    1 type  1   force =    -0.00000000    0.00000000    0.00000000
     atom    2 type  2   force =    -0.00000000    0.00000000    0.00000000
     atom    3 type  3   force =    -4.48546280   -2.58968316    3.66236504
     atom    4 type  3   force =     4.48546280   -2.58968316    3.66236504
     atom    5 type  3   force =    -0.00000000    5.17936631    3.66236504
     atom    6 type  3   force =     4.48546280    2.58968316   -3.66236504
     atom    7 type  3   force =    -4.48546280    2.58968316   -3.66236504
     atom    8 type  3   force =     0.00000000   -5.17936631   -3.66236504
     The local contribution  to forces
     atom    1 type  1   force =     0.00004690    0.00001264   -0.00003798
     atom    2 type  2   force =    -0.00000060    0.00000152   -0.00000574
     atom    3 type  3   force =     3.39287711    1.95887305   -2.77028443
     atom    4 type  3   force =    -3.39287190    1.95888587   -2.77030383
     atom    5 type  3   force =     0.00001612   -3.91775573   -2.77029486
     atom    6 type  3   force =    -3.39291262   -1.95890717    2.77030118
     atom    7 type  3   force =     3.39291283   -1.95887974    2.77026152
     atom    8 type  3   force =     0.00002545    3.91779568    2.77027588
     The core correction contribution to forces
     atom    1 type  1   force =     0.00000000    0.00000000    0.00000000
     atom    2 type  2   force =     0.00001090    0.00000274   -0.00000982
     atom    3 type  3   force =     0.00000000    0.00000000    0.00000000
     atom    4 type  3   force =     0.00000000    0.00000000    0.00000000
     atom    5 type  3   force =     0.00000000    0.00000000    0.00000000
     atom    6 type  3   force =     0.00000000    0.00000000    0.00000000
     atom    7 type  3   force =     0.00000000    0.00000000    0.00000000
     atom    8 type  3   force =     0.00000000    0.00000000    0.00000000
     The Hubbard contrib.    to forces
     atom    1 type  1   force =     0.00000000    0.00000000    0.00000000
     atom    2 type  2   force =     0.00000000    0.00000000    0.00000000
     atom    3 type  3   force =     0.00000000    0.00000000    0.00000000
     atom    4 type  3   force =     0.00000000    0.00000000    0.00000000
     atom    5 type  3   force =     0.00000000    0.00000000    0.00000000
     atom    6 type  3   force =     0.00000000    0.00000000    0.00000000
     atom    7 type  3   force =     0.00000000    0.00000000    0.00000000
     atom    8 type  3   force =     0.00000000    0.00000000    0.00000000
     The SCF correction term to forces
     atom    1 type  1   force =    -0.00008579   -0.00000818    0.00008328
     atom    2 type  2   force =     0.00006999    0.00001616   -0.00005570
     atom    3 type  3   force =    -0.00072971   -0.00042121    0.00061839
     atom    4 type  3   force =     0.00082096   -0.00047824    0.00070080
     atom    5 type  3   force =    -0.00000604    0.00090687    0.00066793
     atom    6 type  3   force =     0.00081610    0.00047651   -0.00066427
     atom    7 type  3   force =    -0.00084391    0.00047934   -0.00067790
     atom    8 type  3   force =    -0.00001158   -0.00095278   -0.00066865

     Total force =     0.026608     Total SCF correction =     0.002805
     SCF correction compared to forces is large: reduce conv_thr to get better values


     Computing stress (Cartesian axis) and pressure

          total   stress  (Ry/bohr**3)                   (kbar)     P=      -42.07
  -0.00028600   0.00000000  -0.00000000          -42.07        0.00       -0.00
   0.00000000  -0.00028600  -0.00000000            0.00      -42.07       -0.00
   0.00000000  -0.00000000  -0.00028598            0.00       -0.00      -42.07

     kinetic stress (kbar)  13937.40     -0.00      0.00
                               -0.00  13937.40      0.00
                                0.00      0.00  13937.40

     local   stress (kbar)  -4041.61     -0.13      0.19
                               -0.13  -4041.60      0.01
                                0.19      0.01  -4041.61

     nonloc. stress (kbar)  -5370.97      0.00      0.00
                                0.00  -5370.97     -0.00
                                0.00     -0.00  -5370.96

     hartree stress (kbar)   9683.74      0.09     -0.13
                                0.09   9683.73     -0.01
                               -0.13     -0.01   9683.74

     exc-cor stress (kbar)  -2906.23     -0.00      0.00
                               -0.00  -2906.23     -0.00
                                0.00     -0.00  -2906.23

     corecor stress (kbar)   -967.75      0.00     -0.00
                                0.00   -967.75     -0.00
                               -0.00     -0.00   -967.75

     ewald   stress (kbar) -10376.66      0.00      0.00
                                0.00 -10376.66      0.00
                                0.00      0.00 -10376.66

     hubbard stress (kbar)      0.00      0.00      0.00
                                0.00      0.00      0.00
                                0.00      0.00      0.00

     DFT-D   stress (kbar)      0.00      0.00      0.00
                                0.00      0.00      0.00
                                0.00      0.00      0.00

     XDM     stress (kbar)      0.00      0.00      0.00
                                0.00      0.00      0.00
                                0.00      0.00      0.00

     dft-nl  stress (kbar)      0.00      0.00      0.00
                                0.00      0.00      0.00
                                0.00      0.00      0.00

     TS-vdW  stress (kbar)      0.00      0.00      0.00
                                0.00      0.00      0.00
                                0.00      0.00      0.00


                                0.00      0.00      0.00
                                0.00      0.00      0.00


                                0.00      0.00      0.00


     Writing all to output data dir calculations/myprefix.save/
 
     init_run     :      0.56s CPU      0.60s WALL (       1 calls)
     electrons    :      0.23s CPU      0.25s WALL (       1 calls)
     forces       :      0.03s CPU      0.03s WALL (       1 calls)
     stress       :      0.06s CPU      0.06s WALL (       1 calls)

     Called by init_run:
     wfcinit      :      0.01s CPU      0.03s WALL (       1 calls)
     wfcinit:atom :      0.00s CPU      0.00s WALL (       1 calls)
     wfcinit:wfcr :      0.01s CPU      0.03s WALL (       1 calls)
     potinit      :      0.30s CPU      0.30s WALL (       1 calls)
     hinit0       :      0.24s CPU      0.25s WALL (       1 calls)

     Called by electrons:
     c_bands      :      0.16s CPU      0.16s WALL (       6 calls)
     sum_band     :      0.03s CPU      0.03s WALL (       6 calls)
     v_of_rho     :      0.02s CPU      0.02s WALL (       7 calls)
     v_h          :      0.00s CPU      0.00s WALL (       7 calls)
     v_xc         :      0.03s CPU      0.03s WALL (       9 calls)
     newd         :      0.02s CPU      0.02s WALL (       7 calls)
     mix_rho      :      0.00s CPU      0.00s WALL (       6 calls)

     Called by c_bands:
     init_us_2    :      0.00s CPU      0.00s WALL (      13 calls)
     init_us_2:cp :      0.00s CPU      0.00s WALL (      13 calls)
     regterg      :      0.15s CPU      0.16s WALL (       6 calls)

     Called by sum_band:
     sum_band:wei :      0.00s CPU      0.00s WALL (       6 calls)
     sum_band:loo :      0.01s CPU      0.01s WALL (       6 calls)
     sum_band:buf :      0.00s CPU      0.00s WALL (       6 calls)
     sum_band:ini :      0.00s CPU      0.00s WALL (       6 calls)
     sum_band:cal :      0.00s CPU      0.00s WALL (       6 calls)
     sum_band:bec :      0.00s CPU      0.00s WALL (       6 calls)
     addusdens    :      0.02s CPU      0.02s WALL (       6 calls)
     addusd:skk   :      0.00s CPU      0.00s WALL (      18 calls)
     addusd:dgemm :      0.00s CPU      0.00s WALL (      18 calls)
     addusd:qvan2 :      0.01s CPU      0.01s WALL (      18 calls)

     Called by *egterg:
     rdiaghg      :      0.09s CPU      0.10s WALL (      27 calls)
     regterg:over :      0.01s CPU      0.01s WALL (      21 calls)
     regterg:upda :      0.00s CPU      0.00s WALL (      21 calls)
     regterg:last :      0.01s CPU      0.01s WALL (      12 calls)
     rdiaghg:chol :      0.01s CPU      0.02s WALL (      27 calls)
     rdiaghg:inve :      0.00s CPU      0.00s WALL (      27 calls)
     rdiaghg:para :      0.01s CPU      0.01s WALL (      54 calls)
     h_psi        :      0.05s CPU      0.05s WALL (      28 calls)
     s_psi        :      0.00s CPU      0.00s WALL (      28 calls)
     g_psi        :      0.00s CPU      0.00s WALL (      21 calls)

     Called by h_psi:
     h_psi:calbec :      0.00s CPU      0.00s WALL (      28 calls)
     vloc_psi     :      0.04s CPU      0.05s WALL (      28 calls)
     add_vuspsi   :      0.00s CPU      0.00s WALL (      28 calls)

     General routines
     calbec       :      0.01s CPU      0.01s WALL (      39 calls)
     fft          :      0.21s CPU      0.21s WALL (      95 calls)
     ffts         :      0.28s CPU      0.28s WALL (      13 calls)
     fftw         :      0.05s CPU      0.05s WALL (     680 calls)
     interpolate  :      0.28s CPU      0.28s WALL (       7 calls)
 
     Parallel routines
 
     PWSCF        :      1.11s CPU      1.49s WALL

 
   This run was terminated on:  12:11:45   6Mar2023            

=------------------------------------------------------------------------------=
   JOB DONE.
=------------------------------------------------------------------------------=
