
     Program PWSCF v.7.0 starts on  6Mar2023 at 13:40:38 

     This program is part of the open-source Quantum ESPRESSO suite
     for quantum simulation of materials; please cite
         "P. Giannozzi et al., J. Phys.:Condens. Matter 21 395502 (2009);
         "P. Giannozzi et al., J. Phys.:Condens. Matter 29 465901 (2017);
         "P. Giannozzi et al., J. Chem. Phys. 152 154105 (2020);
          URL http://www.quantum-espresso.org", 
     in publications or presentations arising from this work. More details at
     http://www.quantum-espresso.org/quote

     Parallel version (MPI & OpenMP), running on      32 processor cores
     Number of MPI processes:                32
     Threads/MPI process:                     1

     MPI processes distributed on     1 nodes
     R & G space division:  proc/nbgrp/npool/nimage =      32
     166137 MiB available memory on the printing compute node when the environment starts
 
     Reading input from espresso_4803.pwi
Warning: card &CELL ignored
Warning: card / ignored

     Current dimensions of program PWSCF are:
     Max number of different atomic species (ntypx) = 10
     Max number of k-points (npk) =  40000
     Max angular momentum in pseudopotentials (lmaxx) =  4

     gamma-point specific algorithms are used
     Message from routine setup:
     using ibrav=0 with symmetry is DISCOURAGED, use correct ibrav instead

     Subspace diagonalization in iterative solution of the eigenvalue problem:
     one sub-group per band group will be used
     scalapack distributed-memory algorithm (size of sub-group:  5*  5 procs)

 
     Parallelization info
     --------------------
     sticks:   dense  smooth     PW     G-vecs:    dense   smooth      PW
     Min          54      25      6                 1022      357      42
     Max          56      28      8                 1030      364      50
     Sum        1755     879    219                32817    11585    1435
 
     Using Slab Decomposition
 


     bravais-lattice index     =            0
     lattice parameter (alat)  =       9.9034  a.u.
     unit-cell volume          =     521.8237 (a.u.)^3
     number of atoms/cell      =            4
     number of atomic types    =            2
     number of electrons       =        66.00
     number of Kohn-Sham states=           40
     kinetic-energy cutoff     =      30.0000  Ry
     charge density cutoff     =     240.0000  Ry
     scf convergence threshold =      1.0E-06
     mixing beta               =       0.7000
     number of iterations used =            8  plain     mixing
     Exchange-correlation= PBE
                           (   1   4   3   4   0   0   0)

     celldm(1)=   9.903390  celldm(2)=   0.000000  celldm(3)=   0.000000
     celldm(4)=   0.000000  celldm(5)=   0.000000  celldm(6)=   0.000000

     crystal axes: (cart. coord. in units of alat)
               a(1) = (   1.000000   0.000000   0.000000 )  
               a(2) = (   0.344831   0.938665   0.000000 )  
               a(3) = (  -0.672416  -0.469332   0.572350 )  

     reciprocal axes: (cart. coord. in units 2 pi/alat)
               b(1) = (  1.000000 -0.367363  0.873591 )  
               b(2) = (  0.000000  1.065343  0.873591 )  
               b(3) = (  0.000000  0.000000  1.747183 )  


     PseudoPot. # 1 for Na read from file:
     /home/pragov/projects/rrg-bengioy-ad/pragov/crystal_structure_design/SSSP/na_pbe_v1.5.uspp.F.UPF
     MD5 check sum: 44600605ef58000f06b90626533354dc
     Pseudo is Ultrasoft, Zval =  9.0
     Generated by new atomic code, or converted to UPF format
     Using radial grid of  819 points,  5 beta functions with: 
                l(1) =   0
                l(2) =   0
                l(3) =   1
                l(4) =   1
                l(5) =   2
     Q(r) pseudized with  8 coefficients,  rinner =    1.250   1.250   1.250
                                                       1.250   1.250

     PseudoPot. # 2 for Ag read from file:
     /home/pragov/projects/rrg-bengioy-ad/pragov/crystal_structure_design/SSSP/Ag_ONCV_PBE-1.0.oncvpsp.upf
     MD5 check sum: 94f47bd0669c641108e45594df92fabc
     Pseudo is Norm-conserving, Zval = 19.0
     Generated using ONCVPSP code by D. R. Hamann
     Using radial grid of 1398 points,  6 beta functions with: 
                l(1) =   0
                l(2) =   0
                l(3) =   1
                l(4) =   1
                l(5) =   2
                l(6) =   2

     atomic species   valence    mass     pseudopotential
        Na             9.00    22.98977     Na( 1.00)
        Ag            19.00   107.86820     Ag( 1.00)

      4 Sym. Ops., with inversion, found


                                    s                        frac. trans.

      isym =  1     identity                                     

 cryst.   s( 1) = (     1          0          0      )
                  (     0          1          0      )
                  (     0          0          1      )

 cart.    s( 1) = (  1.0000000 -0.0000000 -0.0000000 )
                  (  0.0000000  1.0000000 -0.0000000 )
                  (  0.0000000  0.0000000  1.0000000 )


      isym =  2     180 deg rotation - cart. axis [0,0,1]        

 cryst.   s( 2) = (    -1          0          0      )
                  (     0         -1          0      )
                  (     1          1          1      )

 cart.    s( 2) = ( -1.0000000  0.0000000 -0.0000000 )
                  (  0.0000000 -1.0000000 -0.0000000 )
                  (  0.0000000  0.0000000  1.0000000 )


      isym =  3     inversion                                    

 cryst.   s( 3) = (    -1          0          0      )
                  (     0         -1          0      )
                  (     0          0         -1      )

 cart.    s( 3) = ( -1.0000000  0.0000000  0.0000000 )
                  (  0.0000000 -1.0000000  0.0000000 )
                  (  0.0000000  0.0000000 -1.0000000 )


      isym =  4     inv. 180 deg rotation - cart. axis [0,0,1]   

 cryst.   s( 4) = (     1          0          0      )
                  (     0          1          0      )
                  (    -1         -1         -1      )

 cart.    s( 4) = (  1.0000000 -0.0000000  0.0000000 )
                  (  0.0000000  1.0000000  0.0000000 )
                  (  0.0000000  0.0000000 -1.0000000 )


   Cartesian axes

     site n.     atom                  positions (alat units)
         1           Na  tau(   1) = (   0.0000000   0.0000000   0.0000000  )
         2           Ag  tau(   2) = (   0.5000000  -0.0000000   0.2861750  )
         3           Ag  tau(   3) = (   0.1724155   0.4693324   0.2861750  )
         4           Ag  tau(   4) = (   0.6724155   0.4693324   0.0000000  )

   Crystallographic axes

     site n.     atom                  positions (cryst. coord.)
         1           Na  tau(   1) = (  0.0000000  0.0000000  0.0000000  )
         2           Ag  tau(   2) = (  0.7500000  0.2500000  0.5000000  )
         3           Ag  tau(   3) = (  0.2500000  0.7500000  0.5000000  )
         4           Ag  tau(   4) = (  0.5000000  0.5000000  0.0000000  )

     number of k points=     1  Methfessel-Paxton smearing, width (Ry)=  0.0010
                       cart. coord. in units 2pi/alat
        k(    1) = (   0.0000000   0.0000000   0.0000000), wk =   2.0000000

                       cryst. coord.
        k(    1) = (   0.0000000   0.0000000   0.0000000), wk =   2.0000000

     Dense  grid:    16409 G-vectors     FFT dimensions: (  50,  50,  50)

     Smooth grid:     5793 G-vectors     FFT dimensions: (  36,  36,  36)

     Dynamical RAM for                 wfc:       0.01 MB

     Dynamical RAM for     wfc (w. buffer):       0.01 MB

     Dynamical RAM for           str. fact:       0.02 MB

     Dynamical RAM for           local pot:       0.00 MB

     Dynamical RAM for          nlocal pot:       0.02 MB

     Dynamical RAM for                qrad:       2.49 MB

     Dynamical RAM for          rho,v,vnew:       0.14 MB

     Dynamical RAM for               rhoin:       0.05 MB

     Dynamical RAM for            rho*nmix:       0.12 MB

     Dynamical RAM for           G-vectors:       0.03 MB

     Dynamical RAM for          h,s,v(r/c):       0.01 MB

     Dynamical RAM for          <psi|beta>:       0.02 MB

     Dynamical RAM for                 psi:       0.03 MB

     Dynamical RAM for                hpsi:       0.03 MB

     Dynamical RAM for                spsi:       0.03 MB

     Dynamical RAM for      wfcinit/wfcrot:       0.06 MB

     Dynamical RAM for           addusdens:       0.84 MB

     Dynamical RAM for          addusforce:       0.84 MB

     Dynamical RAM for         addusstress:       0.95 MB

     Estimated static dynamical RAM per process >       2.97 MB

     Estimated max dynamical RAM per process >       4.04 MB

     Estimated total dynamical RAM >     129.24 MB

     Initial potential from superposition of free atoms

     starting charge      65.9928, renormalised to      66.0000
     Starting wfcs are   35 randomized atomic wfcs +    5 random wfcs

     total cpu time spent up to now is        0.7 secs

     Self-consistent Calculation

     iteration #  1     ecut=    30.00 Ry     beta= 0.70
     Davidson diagonalization with overlap

---- Real-time Memory Report at c_bands before calling an iterative solver
           129 MiB given to the printing process from OS
             0 MiB allocation reported by mallinfo(arena+hblkhd)
        165583 MiB available memory on the node where the printing process lives
------------------
     ethr =  1.00E-02,  avg # of iterations =  4.0

     Threshold (ethr) on eigenvalues was too large:
     Diagonalizing with lowered threshold

     Davidson diagonalization with overlap

---- Real-time Memory Report at c_bands before calling an iterative solver
           133 MiB given to the printing process from OS
             0 MiB allocation reported by mallinfo(arena+hblkhd)
        165569 MiB available memory on the node where the printing process lives
------------------
     ethr =  1.52E-04,  avg # of iterations =  3.0

     total cpu time spent up to now is        0.7 secs

     total energy              =    -956.41554375 Ry
     estimated scf accuracy    <       0.10467469 Ry

     iteration #  2     ecut=    30.00 Ry     beta= 0.70
     Davidson diagonalization with overlap

---- Real-time Memory Report at c_bands before calling an iterative solver
           134 MiB given to the printing process from OS
             0 MiB allocation reported by mallinfo(arena+hblkhd)
        165567 MiB available memory on the node where the printing process lives
------------------
     ethr =  1.59E-04,  avg # of iterations =  2.0

     total cpu time spent up to now is        0.8 secs

     total energy              =    -956.42458690 Ry
     estimated scf accuracy    <       0.00955693 Ry

     iteration #  3     ecut=    30.00 Ry     beta= 0.70
     Davidson diagonalization with overlap

---- Real-time Memory Report at c_bands before calling an iterative solver
           134 MiB given to the printing process from OS
             0 MiB allocation reported by mallinfo(arena+hblkhd)
        165564 MiB available memory on the node where the printing process lives
------------------
     ethr =  1.45E-05,  avg # of iterations =  2.0

     total cpu time spent up to now is        0.8 secs

     total energy              =    -956.42707556 Ry
     estimated scf accuracy    <       0.00387536 Ry

     iteration #  4     ecut=    30.00 Ry     beta= 0.70
     Davidson diagonalization with overlap

---- Real-time Memory Report at c_bands before calling an iterative solver
           135 MiB given to the printing process from OS
             0 MiB allocation reported by mallinfo(arena+hblkhd)
        165564 MiB available memory on the node where the printing process lives
------------------
     ethr =  5.87E-06,  avg # of iterations =  2.0

     total cpu time spent up to now is        0.8 secs

     total energy              =    -956.42787758 Ry
     estimated scf accuracy    <       0.00016447 Ry

     iteration #  5     ecut=    30.00 Ry     beta= 0.70
     Davidson diagonalization with overlap

---- Real-time Memory Report at c_bands before calling an iterative solver
           135 MiB given to the printing process from OS
             0 MiB allocation reported by mallinfo(arena+hblkhd)
        165563 MiB available memory on the node where the printing process lives
------------------
     ethr =  2.49E-07,  avg # of iterations =  2.0

     total cpu time spent up to now is        0.9 secs

     total energy              =    -956.42793095 Ry
     estimated scf accuracy    <       0.00004769 Ry

     iteration #  6     ecut=    30.00 Ry     beta= 0.70
     Davidson diagonalization with overlap

---- Real-time Memory Report at c_bands before calling an iterative solver
           135 MiB given to the printing process from OS
             0 MiB allocation reported by mallinfo(arena+hblkhd)
        165563 MiB available memory on the node where the printing process lives
------------------
     ethr =  7.23E-08,  avg # of iterations =  2.0

     total cpu time spent up to now is        0.9 secs

     End of self-consistent calculation

          k = 0.0000 0.0000 0.0000 (   718 PWs)   bands (ev):

   -80.9636 -80.5249 -80.5190 -43.9986 -43.9986 -43.8184 -43.5833 -43.5832
   -43.5310 -43.5309 -43.4882 -43.4831 -38.8492 -10.8034 -10.8034 -10.7412
     6.1769   7.1701   7.2029   7.3449   7.7764   7.8124   7.8124   7.8895
     7.8895   8.2552   8.7848   8.8425   9.0948   9.0948   9.1468   9.5104
    14.5508  17.1527  17.1527  17.3313  18.6529  18.6636  18.9450  18.9450

     occupation numbers 
     1.0000   1.0000   1.0000   1.0000   1.0000   1.0000   1.0000   1.0000
     1.0000   1.0000   1.0000   1.0000   1.0000   1.0000   1.0000   1.0000
     1.0000   1.0000   1.0000   1.0000   1.0000   1.0000   1.0000   1.0000
     1.0000   1.0000   1.0000   1.0000   1.0000   1.0000   1.0000   1.0000
     1.0000  -0.0000  -0.0000  -0.0000  -0.0000  -0.0000  -0.0000  -0.0000

     the Fermi energy is    15.9504 ev

!    total energy              =    -956.42794024 Ry
     estimated scf accuracy    <       0.00000058 Ry
     smearing contrib. (-TS)   =       0.00000000 Ry
     internal energy E=F+TS    =    -956.42794024 Ry

     The total energy is F=E-TS. E is the sum of the following terms:
     one-electron contribution =    -480.77610893 Ry
     hartree contribution      =     261.29634949 Ry
     xc contribution           =     -95.43033951 Ry
     ewald contribution        =    -641.51784130 Ry

     convergence has been achieved in   6 iterations

     Forces acting on atoms (cartesian axes, Ry/au):

     atom    1 type  1   force =     0.00000000    0.00000000    0.00000000
     atom    2 type  2   force =     0.00000000    0.00000000   -0.00003836
     atom    3 type  2   force =     0.00000000    0.00000000    0.00003836
     atom    4 type  2   force =     0.00000000    0.00000000    0.00000000
     The non-local contrib.  to forces
     atom    1 type  1   force =     0.00000000    0.00000000    0.00000000
     atom    2 type  2   force =     0.00000000    0.00000000    0.00001818
     atom    3 type  2   force =     0.00000000    0.00000000   -0.00001818
     atom    4 type  2   force =     0.00000000    0.00000000    0.00000000
     The ionic contribution  to forces
     atom    1 type  1   force =    -0.00000000    0.00000000    0.00000000
     atom    2 type  2   force =     0.00000000    0.00000000   -0.00000000
     atom    3 type  2   force =     0.00000000   -0.00000000   -0.00000000
     atom    4 type  2   force =    -0.00000000   -0.00000000    0.00000000
     The local contribution  to forces
     atom    1 type  1   force =    -0.00000025   -0.00000177   -0.00000246
     atom    2 type  2   force =    -0.00001049   -0.00000060    0.00009324
     atom    3 type  2   force =     0.00000101    0.00000217   -0.00011337
     atom    4 type  2   force =     0.00001672    0.00001675    0.00009044
     The core correction contribution to forces
     atom    1 type  1   force =     0.00000000    0.00000000    0.00000000
     atom    2 type  2   force =     0.00000000    0.00000000    0.00000000
     atom    3 type  2   force =     0.00000000    0.00000000    0.00000000
     atom    4 type  2   force =     0.00000000    0.00000000    0.00000000
     The Hubbard contrib.    to forces
     atom    1 type  1   force =     0.00000000    0.00000000    0.00000000
     atom    2 type  2   force =     0.00000000    0.00000000    0.00000000
     atom    3 type  2   force =     0.00000000    0.00000000    0.00000000
     atom    4 type  2   force =     0.00000000    0.00000000    0.00000000
     The SCF correction term to forces
     atom    1 type  1   force =    -0.00001436    0.00000022    0.00001279
     atom    2 type  2   force =     0.00003105    0.00000867   -0.00013988
     atom    3 type  2   force =     0.00001007   -0.00001420    0.00017982
     atom    4 type  2   force =    -0.00002258   -0.00002159   -0.00010960

     Total force =     0.000054     Total SCF correction =     0.000258
     SCF correction compared to forces is large: reduce conv_thr to get better values


     Computing stress (Cartesian axis) and pressure

          total   stress  (Ry/bohr**3)                   (kbar)     P=    -1237.38
  -0.00687801   0.00212256  -0.00000000        -1011.79      312.24       -0.00
   0.00212256  -0.00843752  -0.00000000          312.24    -1241.20       -0.00
  -0.00000000  -0.00000000  -0.00991913           -0.00       -0.00    -1459.15

     kinetic stress (kbar)  57191.22    396.70      0.00
                              396.70  56899.73      0.00
                                0.00      0.00  56622.83

     local   stress (kbar)   1092.83    518.76      0.01
                              518.76    711.73      0.00
                                0.01      0.00    349.63

     nonloc. stress (kbar) -14550.94     77.58     -0.00
                               77.58 -14607.95     -0.00
                               -0.00     -0.00 -14662.09

     hartree stress (kbar)  24438.43   -159.50     -0.00
                             -159.50  24555.59     -0.00
                               -0.00     -0.00  24666.92

     exc-cor stress (kbar)  -8520.18      5.52     -0.00
                                5.52  -8524.24     -0.00
                               -0.00     -0.00  -8528.09

     corecor stress (kbar)      0.00      0.00      0.00
                                0.00      0.00      0.00
                                0.00      0.00      0.00

     ewald   stress (kbar) -60663.14   -526.82      0.00
                             -526.82 -60276.06      0.00
                                0.00      0.00 -59908.35

     hubbard stress (kbar)      0.00      0.00      0.00
                                0.00      0.00      0.00
                                0.00      0.00      0.00

     DFT-D   stress (kbar)      0.00      0.00      0.00
                                0.00      0.00      0.00
                                0.00      0.00      0.00

     XDM     stress (kbar)      0.00      0.00      0.00
                                0.00      0.00      0.00
                                0.00      0.00      0.00

     dft-nl  stress (kbar)      0.00      0.00      0.00
                                0.00      0.00      0.00
                                0.00      0.00      0.00

     TS-vdW  stress (kbar)      0.00      0.00      0.00
                                0.00      0.00      0.00
                                0.00      0.00      0.00


                                0.00      0.00      0.00
                                0.00      0.00      0.00


                                0.00      0.00      0.00


     Writing all to output data dir calculations/myprefix.save/
 
     init_run     :      0.47s CPU      0.51s WALL (       1 calls)
     electrons    :      0.20s CPU      0.28s WALL (       1 calls)
     forces       :      0.02s CPU      0.02s WALL (       1 calls)
     stress       :      0.03s CPU      0.03s WALL (       1 calls)

     Called by init_run:
     wfcinit      :      0.01s CPU      0.03s WALL (       1 calls)
     wfcinit:atom :      0.00s CPU      0.00s WALL (       1 calls)
     wfcinit:wfcr :      0.01s CPU      0.03s WALL (       1 calls)
     potinit      :      0.26s CPU      0.26s WALL (       1 calls)
     hinit0       :      0.19s CPU      0.21s WALL (       1 calls)

     Called by electrons:
     c_bands      :      0.15s CPU      0.17s WALL (       7 calls)
     sum_band     :      0.02s CPU      0.03s WALL (       7 calls)
     v_of_rho     :      0.02s CPU      0.02s WALL (       7 calls)
     v_h          :      0.00s CPU      0.00s WALL (       7 calls)
     v_xc         :      0.02s CPU      0.02s WALL (       7 calls)
     newd         :      0.01s CPU      0.01s WALL (       7 calls)
     mix_rho      :      0.00s CPU      0.00s WALL (       7 calls)

     Called by c_bands:
     init_us_2    :      0.00s CPU      0.00s WALL (      15 calls)
     init_us_2:cp :      0.00s CPU      0.00s WALL (      15 calls)
     regterg      :      0.15s CPU      0.17s WALL (       7 calls)

     Called by sum_band:
     sum_band:wei :      0.00s CPU      0.00s WALL (       7 calls)
     sum_band:loo :      0.01s CPU      0.01s WALL (       7 calls)
     sum_band:buf :      0.00s CPU      0.00s WALL (       7 calls)
     sum_band:ini :      0.00s CPU      0.00s WALL (       7 calls)
     sum_band:cal :      0.00s CPU      0.00s WALL (       7 calls)
     sum_band:bec :      0.00s CPU      0.00s WALL (       7 calls)
     addusdens    :      0.01s CPU      0.01s WALL (       7 calls)
     addusd:skk   :      0.00s CPU      0.00s WALL (       7 calls)
     addusd:dgemm :      0.00s CPU      0.00s WALL (       7 calls)
     addusd:qvan2 :      0.00s CPU      0.00s WALL (       7 calls)

     Called by *egterg:
     rdiaghg      :      0.08s CPU      0.09s WALL (      23 calls)
     regterg:over :      0.01s CPU      0.01s WALL (      17 calls)
     regterg:upda :      0.00s CPU      0.01s WALL (      17 calls)
     regterg:last :      0.01s CPU      0.01s WALL (      14 calls)
     rdiaghg:chol :      0.01s CPU      0.01s WALL (      23 calls)
     rdiaghg:inve :      0.00s CPU      0.00s WALL (      23 calls)
     rdiaghg:para :      0.01s CPU      0.01s WALL (      46 calls)
     h_psi        :      0.05s CPU      0.07s WALL (      25 calls)
     s_psi        :      0.00s CPU      0.00s WALL (      25 calls)
     g_psi        :      0.00s CPU      0.00s WALL (      17 calls)

     Called by h_psi:
     h_psi:calbec :      0.01s CPU      0.01s WALL (      25 calls)
     vloc_psi     :      0.05s CPU      0.06s WALL (      25 calls)
     add_vuspsi   :      0.00s CPU      0.00s WALL (      25 calls)

     General routines
     calbec       :      0.01s CPU      0.01s WALL (      37 calls)
     fft          :      0.18s CPU      0.19s WALL (      83 calls)
     ffts         :      0.24s CPU      0.24s WALL (      14 calls)
     fftw         :      0.06s CPU      0.07s WALL (     852 calls)
     interpolate  :      0.24s CPU      0.24s WALL (       7 calls)
 
     Parallel routines
 
     PWSCF        :      0.82s CPU      1.28s WALL

 
   This run was terminated on:  13:40:39   6Mar2023            

=------------------------------------------------------------------------------=
   JOB DONE.
=------------------------------------------------------------------------------=
