
     Program PWSCF v.7.0 starts on  4Mar2023 at 21:40:42 

     This program is part of the open-source Quantum ESPRESSO suite
     for quantum simulation of materials; please cite
         "P. Giannozzi et al., J. Phys.:Condens. Matter 21 395502 (2009);
         "P. Giannozzi et al., J. Phys.:Condens. Matter 29 465901 (2017);
         "P. Giannozzi et al., J. Chem. Phys. 152 154105 (2020);
          URL http://www.quantum-espresso.org", 
     in publications or presentations arising from this work. More details at
     http://www.quantum-espresso.org/quote

     Parallel version (MPI & OpenMP), running on      32 processor cores
     Number of MPI processes:                32
     Threads/MPI process:                     1

     MPI processes distributed on     1 nodes
     R & G space division:  proc/nbgrp/npool/nimage =      32
     167158 MiB available memory on the printing compute node when the environment starts
 
     Reading input from espresso_7779.pwi
Warning: card &CELL ignored
Warning: card / ignored

     Current dimensions of program PWSCF are:
     Max number of different atomic species (ntypx) = 10
     Max number of k-points (npk) =  40000
     Max angular momentum in pseudopotentials (lmaxx) =  4

     gamma-point specific algorithms are used

     Subspace diagonalization in iterative solution of the eigenvalue problem:
     one sub-group per band group will be used
     scalapack distributed-memory algorithm (size of sub-group:  5*  5 procs)

 
     Parallelization info
     --------------------
     sticks:   dense  smooth     PW     G-vecs:    dense   smooth      PW
     Min          90      45      9                 3802     1347     161
     Max          92      48     12                 3818     1352     172
     Sum        2917    1483    367               121915    43177    5375
 
     Using Slab Decomposition
 


     bravais-lattice index     =            0
     lattice parameter (alat)  =      13.3315  a.u.
     unit-cell volume          =    1943.8501 (a.u.)^3
     number of atoms/cell      =           12
     number of atomic types    =            3
     number of electrons       =       140.00
     number of Kohn-Sham states=           84
     kinetic-energy cutoff     =      30.0000  Ry
     charge density cutoff     =     240.0000  Ry
     scf convergence threshold =      1.0E-06
     mixing beta               =       0.7000
     number of iterations used =            8  plain     mixing
     Exchange-correlation= SLA  PW   PBE  PBE
                           (   1   4   3   4   0   0   0)

     celldm(1)=  13.331512  celldm(2)=   0.000000  celldm(3)=   0.000000
     celldm(4)=   0.000000  celldm(5)=   0.000000  celldm(6)=   0.000000

     crystal axes: (cart. coord. in units of alat)
               a(1) = (   1.000000   0.000000   0.000000 )  
               a(2) = (  -0.499706   0.866195   0.000000 )  
               a(3) = (   0.169290   0.293104   0.947128 )  

     reciprocal axes: (cart. coord. in units 2 pi/alat)
               b(1) = (  1.000000  0.576897 -0.357270 )  
               b(2) = (  0.000000  1.154474 -0.357270 )  
               b(3) = (  0.000000  0.000000  1.055823 )  


     PseudoPot. # 1 for Cu read from file:
     /home/pragov/projects/rrg-bengioy-ad/pragov/crystal_structure_design/SSSP/Cu_pbe_v1.2.uspp.F.UPF
     MD5 check sum: 6e991ff952a84172a2a52a1c1e996048
     Pseudo is Ultrasoft + core correction, Zval = 19.0
     Generated by new atomic code, or converted to UPF format
     Using radial grid of  867 points,  6 beta functions with: 
                l(1) =   0
                l(2) =   0
                l(3) =   1
                l(4) =   1
                l(5) =   2
                l(6) =   2
     Q(r) pseudized with  8 coefficients,  rinner =    1.150   1.150   1.150
                                                       1.150   1.150

     PseudoPot. # 2 for Sn read from file:
     /home/pragov/projects/rrg-bengioy-ad/pragov/crystal_structure_design/SSSP/Sn_pbe_v1.uspp.F.UPF
     MD5 check sum: 4cf58ce39ec5d5d420df3dd08604eb00
     Pseudo is Ultrasoft + core correction, Zval = 14.0
     Generated by new atomic code, or converted to UPF format
     Using radial grid of  891 points,  6 beta functions with: 
                l(1) =   0
                l(2) =   0
                l(3) =   1
                l(4) =   1
                l(5) =   2
                l(6) =   2
     Q(r) pseudized with  6 coefficients,  rinner =    1.200   1.200   1.200
                                                       1.200   1.200

     PseudoPot. # 3 for Se read from file:
     /home/pragov/projects/rrg-bengioy-ad/pragov/crystal_structure_design/SSSP/Se_pbe_v1.uspp.F.UPF
     MD5 check sum: 1b3568f3a8ae88f9a2a0ad0698632c85
     Pseudo is Ultrasoft + core correction, Zval =  6.0
     Generated by new atomic code, or converted to UPF format
     Using radial grid of  877 points,  6 beta functions with: 
                l(1) =   0
                l(2) =   0
                l(3) =   1
                l(4) =   1
                l(5) =   2
                l(6) =   2
     Q(r) pseudized with  8 coefficients,  rinner =    1.300   1.300   1.300
                                                       1.300   1.300

     atomic species   valence    mass     pseudopotential
        Cu            19.00    63.54600     Cu( 1.00)
        Sn            14.00   118.71000     Sn( 1.00)
        Se             6.00    78.97100     Se( 1.00)

     No symmetry found


                                    s                        frac. trans.

      isym =  1     identity                                     

 cryst.   s( 1) = (     1          0          0      )
                  (     0          1          0      )
                  (     0          0          1      )

 cart.    s( 1) = (  1.0000000  0.0000000 -0.0000000 )
                  (  0.0000000  1.0000000 -0.0000000 )
                  (  0.0000000  0.0000000  1.0000000 )


   Cartesian axes

     site n.     atom                  positions (alat units)
         1           Cu  tau(   1) = (  -0.1321936   0.6472376   0.3602431  )
         2           Cu  tau(   2) = (   0.7113370   0.3554747   0.8338072  )
         3           Cu  tau(   3) = (   0.7126228   0.9490803   0.8338555  )
         4           Cu  tau(   4) = (   0.3813422   0.9449795   0.3602914  )
         5           Sn  tau(   5) = (   0.1941622   0.6513734   0.8498269  )
         6           Sn  tau(   6) = (   0.3825477   0.3471255   0.3762628  )
         7           Se  tau(   7) = (   0.5640604   0.6517651   0.9425640  )
         8           Se  tau(   8) = (   0.7314144   0.3600879   0.4911220  )
         9           Se  tau(   9) = (   0.8602367   0.0493626   0.0172917  )
        10           Se  tau(  10) = (   0.1980467   0.6677254   0.4689999  )
        11           Se  tau(  11) = (  -0.3024626   0.9163515   0.4908558  )
        12           Se  tau(  12) = (  -0.1382305   0.6669339   0.0175579  )

   Crystallographic axes

     site n.     atom                  positions (cryst. coord.)
         1           Cu  tau(   1) = (  0.1124920  0.6185150  0.3803530  )
         2           Cu  tau(   2) = (  0.6185150  0.1124920  0.8803530  )
         3           Cu  tau(   3) = (  0.9622330  0.7977770  0.8804040  )
         4           Cu  tau(   4) = (  0.7977770  0.9622330  0.3804040  )
         5           Sn  tau(   5) = (  0.2663200  0.4483760  0.8972670  )
         6           Sn  tau(   6) = (  0.4483760  0.2663200  0.3972670  )
         7           Se  tau(   7) = (  0.6033120  0.4156960  0.9951810  )
         8           Se  tau(   8) = (  0.7636850  0.2402490  0.5185380  )
         9           Se  tau(   9) = (  0.8825360  0.0508100  0.0182570  )
        10           Se  tau(  10) = (  0.4156960  0.6033120  0.4951810  )
        11           Se  tau(  11) = (  0.0508100  0.8825360  0.5182570  )
        12           Se  tau(  12) = (  0.2402490  0.7636850  0.0185380  )

     number of k points=     1  Methfessel-Paxton smearing, width (Ry)=  0.0010
                       cart. coord. in units 2pi/alat
        k(    1) = (   0.0000000   0.0000000   0.0000000), wk =   2.0000000

                       cryst. coord.
        k(    1) = (   0.0000000   0.0000000   0.0000000), wk =   2.0000000

     Dense  grid:    60958 G-vectors     FFT dimensions: (  72,  72,  72)

     Smooth grid:    21589 G-vectors     FFT dimensions: (  48,  48,  48)

     Dynamical RAM for                 wfc:       0.11 MB

     Dynamical RAM for     wfc (w. buffer):       0.11 MB

     Dynamical RAM for           str. fact:       0.09 MB

     Dynamical RAM for           local pot:       0.00 MB

     Dynamical RAM for          nlocal pot:       0.28 MB

     Dynamical RAM for                qrad:       3.73 MB

     Dynamical RAM for          rho,v,vnew:       0.44 MB

     Dynamical RAM for               rhoin:       0.15 MB

     Dynamical RAM for            rho*nmix:       0.47 MB

     Dynamical RAM for           G-vectors:       0.11 MB

     Dynamical RAM for          h,s,v(r/c):       0.02 MB

     Dynamical RAM for          <psi|beta>:       0.14 MB

     Dynamical RAM for                 psi:       0.22 MB

     Dynamical RAM for                hpsi:       0.22 MB

     Dynamical RAM for                spsi:       0.22 MB

     Dynamical RAM for      wfcinit/wfcrot:       0.44 MB

     Dynamical RAM for           addusdens:       5.59 MB

     Dynamical RAM for          addusforce:       5.92 MB

     Dynamical RAM for         addusstress:       5.85 MB

     Estimated static dynamical RAM per process >       5.62 MB

     Estimated max dynamical RAM per process >      12.00 MB

     Estimated total dynamical RAM >     384.13 MB

     Initial potential from superposition of free atoms

     starting charge     133.9995, renormalised to     140.0000
     Starting wfcs are   94 randomized atomic wfcs

     total cpu time spent up to now is        1.5 secs

     Self-consistent Calculation

     iteration #  1     ecut=    30.00 Ry     beta= 0.70
     Davidson diagonalization with overlap

---- Real-time Memory Report at c_bands before calling an iterative solver
           140 MiB given to the printing process from OS
             0 MiB allocation reported by mallinfo(arena+hblkhd)
        166248 MiB available memory on the node where the printing process lives
------------------
     ethr =  1.00E-02,  avg # of iterations =  4.0

     total cpu time spent up to now is        1.6 secs

     total energy              =   -2183.94103489 Ry
     estimated scf accuracy    <      25.61930041 Ry

     iteration #  2     ecut=    30.00 Ry     beta= 0.70
     Davidson diagonalization with overlap

---- Real-time Memory Report at c_bands before calling an iterative solver
           145 MiB given to the printing process from OS
             0 MiB allocation reported by mallinfo(arena+hblkhd)
        166217 MiB available memory on the node where the printing process lives
------------------
     ethr =  1.00E-02,  avg # of iterations =  3.0

     total cpu time spent up to now is        1.8 secs

     total energy              =   -2197.80524193 Ry
     estimated scf accuracy    <      78.42511476 Ry

     iteration #  3     ecut=    30.00 Ry     beta= 0.70
     Davidson diagonalization with overlap

---- Real-time Memory Report at c_bands before calling an iterative solver
           147 MiB given to the printing process from OS
             0 MiB allocation reported by mallinfo(arena+hblkhd)
        166191 MiB available memory on the node where the printing process lives
------------------
     ethr =  1.00E-02,  avg # of iterations =  2.0

     total cpu time spent up to now is        1.9 secs

     total energy              =   -2203.10705213 Ry
     estimated scf accuracy    <      10.18345286 Ry

     iteration #  4     ecut=    30.00 Ry     beta= 0.70
     Davidson diagonalization with overlap

---- Real-time Memory Report at c_bands before calling an iterative solver
           148 MiB given to the printing process from OS
             0 MiB allocation reported by mallinfo(arena+hblkhd)
        166190 MiB available memory on the node where the printing process lives
------------------
     ethr =  7.27E-03,  avg # of iterations =  2.0

     total cpu time spent up to now is        2.0 secs

     total energy              =   -2202.93769299 Ry
     estimated scf accuracy    <       4.00249584 Ry

     iteration #  5     ecut=    30.00 Ry     beta= 0.70
     Davidson diagonalization with overlap

---- Real-time Memory Report at c_bands before calling an iterative solver
           149 MiB given to the printing process from OS
             0 MiB allocation reported by mallinfo(arena+hblkhd)
        166196 MiB available memory on the node where the printing process lives
------------------
     ethr =  2.86E-03,  avg # of iterations =  2.0

     total cpu time spent up to now is        2.1 secs

     total energy              =   -2203.03184837 Ry
     estimated scf accuracy    <       0.95496922 Ry

     iteration #  6     ecut=    30.00 Ry     beta= 0.70
     Davidson diagonalization with overlap

---- Real-time Memory Report at c_bands before calling an iterative solver
           149 MiB given to the printing process from OS
             0 MiB allocation reported by mallinfo(arena+hblkhd)
        166192 MiB available memory on the node where the printing process lives
------------------
     ethr =  6.82E-04,  avg # of iterations =  2.0

     total cpu time spent up to now is        2.2 secs

     total energy              =   -2202.94883468 Ry
     estimated scf accuracy    <       0.57960821 Ry

     iteration #  7     ecut=    30.00 Ry     beta= 0.70
     Davidson diagonalization with overlap

---- Real-time Memory Report at c_bands before calling an iterative solver
           150 MiB given to the printing process from OS
             0 MiB allocation reported by mallinfo(arena+hblkhd)
        166188 MiB available memory on the node where the printing process lives
------------------
     ethr =  4.14E-04,  avg # of iterations =  2.0

     total cpu time spent up to now is        2.3 secs

     total energy              =   -2202.97522770 Ry
     estimated scf accuracy    <       0.16596658 Ry

     iteration #  8     ecut=    30.00 Ry     beta= 0.70
     Davidson diagonalization with overlap

---- Real-time Memory Report at c_bands before calling an iterative solver
           150 MiB given to the printing process from OS
             0 MiB allocation reported by mallinfo(arena+hblkhd)
        166188 MiB available memory on the node where the printing process lives
------------------
     ethr =  1.19E-04,  avg # of iterations =  2.0

     total cpu time spent up to now is        2.4 secs

     total energy              =   -2202.98838423 Ry
     estimated scf accuracy    <       0.12785068 Ry

     iteration #  9     ecut=    30.00 Ry     beta= 0.70
     Davidson diagonalization with overlap

---- Real-time Memory Report at c_bands before calling an iterative solver
           150 MiB given to the printing process from OS
             0 MiB allocation reported by mallinfo(arena+hblkhd)
        166188 MiB available memory on the node where the printing process lives
------------------
     ethr =  9.13E-05,  avg # of iterations =  1.0

     total cpu time spent up to now is        2.5 secs

     total energy              =   -2203.00267953 Ry
     estimated scf accuracy    <       0.02635856 Ry

     iteration # 10     ecut=    30.00 Ry     beta= 0.70
     Davidson diagonalization with overlap

---- Real-time Memory Report at c_bands before calling an iterative solver
           151 MiB given to the printing process from OS
             0 MiB allocation reported by mallinfo(arena+hblkhd)
        166196 MiB available memory on the node where the printing process lives
------------------
     ethr =  1.88E-05,  avg # of iterations = 14.0

     total cpu time spent up to now is        2.7 secs

     total energy              =   -2203.00109270 Ry
     estimated scf accuracy    <       0.04583316 Ry

     iteration # 11     ecut=    30.00 Ry     beta= 0.70
     Davidson diagonalization with overlap

---- Real-time Memory Report at c_bands before calling an iterative solver
           151 MiB given to the printing process from OS
             0 MiB allocation reported by mallinfo(arena+hblkhd)
        166194 MiB available memory on the node where the printing process lives
------------------
     ethr =  1.88E-05,  avg # of iterations =  1.0

     total cpu time spent up to now is        2.8 secs

     total energy              =   -2203.00213226 Ry
     estimated scf accuracy    <       0.01651998 Ry

     iteration # 12     ecut=    30.00 Ry     beta= 0.70
     Davidson diagonalization with overlap

---- Real-time Memory Report at c_bands before calling an iterative solver
           151 MiB given to the printing process from OS
             0 MiB allocation reported by mallinfo(arena+hblkhd)
        166196 MiB available memory on the node where the printing process lives
------------------
     ethr =  1.18E-05,  avg # of iterations =  2.0

     total cpu time spent up to now is        2.9 secs

     total energy              =   -2203.00182370 Ry
     estimated scf accuracy    <       0.00886729 Ry

     iteration # 13     ecut=    30.00 Ry     beta= 0.70
     Davidson diagonalization with overlap

---- Real-time Memory Report at c_bands before calling an iterative solver
           151 MiB given to the printing process from OS
             0 MiB allocation reported by mallinfo(arena+hblkhd)
        166196 MiB available memory on the node where the printing process lives
------------------
     ethr =  6.33E-06,  avg # of iterations =  1.0

     total cpu time spent up to now is        3.0 secs

     total energy              =   -2203.00202931 Ry
     estimated scf accuracy    <       0.00868298 Ry

     iteration # 14     ecut=    30.00 Ry     beta= 0.70
     Davidson diagonalization with overlap

---- Real-time Memory Report at c_bands before calling an iterative solver
           151 MiB given to the printing process from OS
             0 MiB allocation reported by mallinfo(arena+hblkhd)
        166196 MiB available memory on the node where the printing process lives
------------------
     ethr =  6.20E-06,  avg # of iterations =  1.0

     total cpu time spent up to now is        3.1 secs

     total energy              =   -2203.00211078 Ry
     estimated scf accuracy    <       0.00191181 Ry

     iteration # 15     ecut=    30.00 Ry     beta= 0.70
     Davidson diagonalization with overlap

---- Real-time Memory Report at c_bands before calling an iterative solver
           152 MiB given to the printing process from OS
             0 MiB allocation reported by mallinfo(arena+hblkhd)
        166196 MiB available memory on the node where the printing process lives
------------------
     ethr =  1.37E-06,  avg # of iterations =  2.0

     total cpu time spent up to now is        3.2 secs

     total energy              =   -2203.00096649 Ry
     estimated scf accuracy    <       0.03204153 Ry

     iteration # 16     ecut=    30.00 Ry     beta= 0.70
     Davidson diagonalization with overlap

---- Real-time Memory Report at c_bands before calling an iterative solver
           152 MiB given to the printing process from OS
             0 MiB allocation reported by mallinfo(arena+hblkhd)
        166192 MiB available memory on the node where the printing process lives
------------------
     ethr =  1.37E-06,  avg # of iterations =  2.0

     total cpu time spent up to now is        3.3 secs

     total energy              =   -2203.00243777 Ry
     estimated scf accuracy    <       0.00175733 Ry

     iteration # 17     ecut=    30.00 Ry     beta= 0.70
     Davidson diagonalization with overlap

---- Real-time Memory Report at c_bands before calling an iterative solver
           152 MiB given to the printing process from OS
             0 MiB allocation reported by mallinfo(arena+hblkhd)
        166195 MiB available memory on the node where the printing process lives
------------------
     ethr =  1.26E-06,  avg # of iterations =  1.0

     total cpu time spent up to now is        3.4 secs

     total energy              =   -2203.00255387 Ry
     estimated scf accuracy    <       0.00016721 Ry

     iteration # 18     ecut=    30.00 Ry     beta= 0.70
     Davidson diagonalization with overlap

---- Real-time Memory Report at c_bands before calling an iterative solver
           152 MiB given to the printing process from OS
             0 MiB allocation reported by mallinfo(arena+hblkhd)
        166195 MiB available memory on the node where the printing process lives
------------------
     ethr =  1.19E-07,  avg # of iterations =  2.0

     total cpu time spent up to now is        3.5 secs

     total energy              =   -2203.00254713 Ry
     estimated scf accuracy    <       0.00084995 Ry

     iteration # 19     ecut=    30.00 Ry     beta= 0.70
     Davidson diagonalization with overlap

---- Real-time Memory Report at c_bands before calling an iterative solver
           152 MiB given to the printing process from OS
             0 MiB allocation reported by mallinfo(arena+hblkhd)
        166194 MiB available memory on the node where the printing process lives
------------------
     ethr =  1.19E-07,  avg # of iterations =  2.0

     total cpu time spent up to now is        3.6 secs

     total energy              =   -2203.00258860 Ry
     estimated scf accuracy    <       0.00005722 Ry

     iteration # 20     ecut=    30.00 Ry     beta= 0.70
     Davidson diagonalization with overlap

---- Real-time Memory Report at c_bands before calling an iterative solver
           152 MiB given to the printing process from OS
             0 MiB allocation reported by mallinfo(arena+hblkhd)
        166194 MiB available memory on the node where the printing process lives
------------------
     ethr =  4.09E-08,  avg # of iterations =  2.0

     total cpu time spent up to now is        3.7 secs

     total energy              =   -2203.00258894 Ry
     estimated scf accuracy    <       0.00011119 Ry

     iteration # 21     ecut=    30.00 Ry     beta= 0.70
     Davidson diagonalization with overlap

---- Real-time Memory Report at c_bands before calling an iterative solver
           153 MiB given to the printing process from OS
             0 MiB allocation reported by mallinfo(arena+hblkhd)
        166194 MiB available memory on the node where the printing process lives
------------------
     ethr =  4.09E-08,  avg # of iterations =  1.0

     total cpu time spent up to now is        3.8 secs

     total energy              =   -2203.00259332 Ry
     estimated scf accuracy    <       0.00004814 Ry

     iteration # 22     ecut=    30.00 Ry     beta= 0.70
     Davidson diagonalization with overlap

---- Real-time Memory Report at c_bands before calling an iterative solver
           153 MiB given to the printing process from OS
             0 MiB allocation reported by mallinfo(arena+hblkhd)
        166195 MiB available memory on the node where the printing process lives
------------------
     ethr =  3.44E-08,  avg # of iterations =  1.0

     total cpu time spent up to now is        3.9 secs

     total energy              =   -2203.00259601 Ry
     estimated scf accuracy    <       0.00000601 Ry

     iteration # 23     ecut=    30.00 Ry     beta= 0.70
     Davidson diagonalization with overlap

---- Real-time Memory Report at c_bands before calling an iterative solver
           153 MiB given to the printing process from OS
             0 MiB allocation reported by mallinfo(arena+hblkhd)
        166195 MiB available memory on the node where the printing process lives
------------------
     ethr =  4.29E-09,  avg # of iterations =  5.0

     total cpu time spent up to now is        4.0 secs

     total energy              =   -2203.00259689 Ry
     estimated scf accuracy    <       0.00000168 Ry

     iteration # 24     ecut=    30.00 Ry     beta= 0.70
     Davidson diagonalization with overlap

---- Real-time Memory Report at c_bands before calling an iterative solver
           153 MiB given to the printing process from OS
             0 MiB allocation reported by mallinfo(arena+hblkhd)
        166194 MiB available memory on the node where the printing process lives
------------------
     ethr =  1.20E-09,  avg # of iterations =  5.0

     total cpu time spent up to now is        4.1 secs

     End of self-consistent calculation

          k = 0.0000 0.0000 0.0000 (  2688 PWs)   bands (ev):

  -105.0663-105.0649-105.0346-105.0329 -62.5877 -62.5861 -62.5593 -62.5571
   -62.3931 -62.3915 -62.3626 -62.3610 -62.3608 -62.3596 -62.3314 -62.3296
   -14.8847 -14.8842 -14.8802 -14.8662 -14.8436 -14.8433 -14.8371 -14.8345
   -14.8074 -14.8071  -6.8868  -6.0454  -5.7906  -5.7615  -5.7573  -5.7371
    -0.6006  -0.1540   1.7590   2.2357   2.2461   2.4778   2.6943   2.7331
     2.9429   3.4202   3.6030   3.6069   3.7098   3.7795   3.7923   3.8540
     3.8862   3.9035   4.7988   4.8245   4.8740   4.8848   4.9200   4.9667
     5.0030   5.0338   5.0374   5.1694   5.2477   5.3443   5.5029   5.6836
     5.8925   6.3367   6.5353   6.8050   7.2613   7.2639   7.2712   7.5706
     9.3731   9.6931  10.2661  10.4739  10.8383  11.0677  11.1227  11.7944
    12.1298  12.3358  12.5464  12.5842

     occupation numbers 
     1.0000   1.0000   1.0000   1.0000   1.0000   1.0000   1.0000   1.0000
     1.0000   1.0000   1.0000   1.0000   1.0000   1.0000   1.0000   1.0000
     1.0000   1.0000   1.0000   1.0000   1.0000   1.0000   1.0000   1.0000
     1.0000   1.0000   1.0000   1.0000   1.0000   1.0000   1.0000   1.0000
     1.0000   1.0000   1.0000   1.0000   1.0000   1.0000   1.0000   1.0000
     1.0000   1.0000   1.0000   1.0000   1.0000   1.0000   1.0000   1.0000
     1.0000   1.0000   1.0000   1.0000   1.0000   1.0000   1.0000   1.0000
     1.0000   1.0000   1.0000   1.0000   1.0000   1.0000   1.0000   1.0000
     1.0000   1.0000   1.0000   1.0000   0.8875   0.7707   0.3418  -0.0000
    -0.0000  -0.0000  -0.0000  -0.0000  -0.0000  -0.0000  -0.0000  -0.0000
    -0.0000  -0.0000  -0.0000  -0.0000

     the Fermi energy is     7.2686 ev

!    total energy              =   -2203.00259680 Ry
     estimated scf accuracy    <       0.00000071 Ry
     smearing contrib. (-TS)   =      -0.00053689 Ry
     internal energy E=F+TS    =   -2203.00205992 Ry

     The total energy is F=E-TS. E is the sum of the following terms:
     one-electron contribution =   -1782.89351771 Ry
     hartree contribution      =     949.99641729 Ry
     xc contribution           =    -428.63682617 Ry
     ewald contribution        =    -941.46813332 Ry

     convergence has been achieved in  24 iterations

     Forces acting on atoms (cartesian axes, Ry/au):

     atom    1 type  1   force =     0.00122556   -0.00272222   -0.01189244
     atom    2 type  1   force =    -0.00311008   -0.00072822   -0.01157717
     atom    3 type  1   force =    -0.00337049    0.01054341   -0.01066776
     atom    4 type  1   force =     0.01130115    0.00194779   -0.01083583
     atom    5 type  2   force =     0.00839143   -0.00052000   -0.02289463
     atom    6 type  2   force =    -0.00479535    0.00709004   -0.02297157
     atom    7 type  3   force =     0.00325521   -0.00864899    0.00718131
     atom    8 type  3   force =     0.01703302   -0.00254193    0.01874381
     atom    9 type  3   force =     0.00176364   -0.01219305    0.01948265
     atom   10 type  3   force =    -0.00925547   -0.00141166    0.00725142
     atom   11 type  3   force =    -0.01157957   -0.00442715    0.01946980
     atom   12 type  3   force =    -0.01085906    0.01361197    0.01871041
     The non-local contrib.  to forces
     atom    1 type  1   force =    -0.04827074   -0.00143918   -0.04751174
     atom    2 type  1   force =     0.02299039   -0.04320400   -0.04720036
     atom    3 type  1   force =     0.02903402   -0.04099259   -0.04499131
     atom    4 type  1   force =    -0.04918203    0.00406265   -0.04514293
     atom    5 type  2   force =    -0.00493962    0.00393466    0.05720547
     atom    6 type  2   force =     0.00597385   -0.00231641    0.05709621
     atom    7 type  3   force =     0.05499639   -0.06250485   -0.05519464
     atom    8 type  3   force =    -0.00256176    0.02146654    0.01505945
     atom    9 type  3   force =     0.09711252    0.00488756   -0.00000964
     atom   10 type  3   force =    -0.08156780    0.01616512   -0.05524050
     atom   11 type  3   force =    -0.04462986    0.08696674   -0.00010523
     atom   12 type  3   force =     0.01945644    0.00794330    0.01547848
     The ionic contribution  to forces
     atom    1 type  1   force =     2.19924887   -0.94346778    0.16948973
     atom    2 type  1   force =    -1.91620454    1.43352266    0.16948973
     atom    3 type  1   force =    -0.60436237   -0.54815329    0.02383679
     atom    4 type  1   force =    -0.17280443   -0.79741114    0.02383679
     atom    5 type  2   force =     2.64834663   -0.39377686   -0.89378526
     atom    6 type  2   force =    -1.66448160    2.09721270   -0.89378526
     atom    7 type  3   force =    -2.99000342    0.14361329    1.86794749
     atom    8 type  3   force =    -2.11243699    0.13017333   -0.67110194
     atom    9 type  3   force =     0.92599595    1.57303571   -0.49638681
     atom   10 type  3   force =     1.61851896   -2.51816235    1.86794749
     atom   11 type  3   force =     0.89983057    1.58814823   -0.49638681
     atom   12 type  3   force =     1.16835237   -1.76473450   -0.67110194
     The local contribution  to forces
     atom    1 type  1   force =    -2.15004166    0.94211802   -0.13415214
     atom    2 type  1   force =     1.89051289   -1.39076006   -0.13482535
     atom    3 type  1   force =     0.57181221    0.60017532    0.00969688
     atom    4 type  1   force =     0.23295303    0.79604584    0.00990964
     atom    5 type  2   force =    -2.63368879    0.38915534    0.81567680
     atom    6 type  2   force =     1.65312701   -2.08670503    0.81583752
     atom    7 type  3   force =     2.94673508   -0.09757802   -1.81364639
     atom    8 type  3   force =     2.13395946   -0.15165132    0.67739784
     atom    9 type  3   force =    -1.01021724   -1.59129506    0.51687325
     atom   10 type  3   force =    -1.55709604    2.50411887   -1.81358046
     atom   11 type  3   force =    -0.87332663   -1.67069904    0.51660883
     atom   12 type  3   force =    -1.19707595    1.77314181    0.67719801
     The core correction contribution to forces
     atom    1 type  1   force =     0.00002338   -0.00007511    0.00016118
     atom    2 type  1   force =    -0.00007769   -0.00001537    0.00016144
     atom    3 type  1   force =    -0.00009628    0.00000999    0.00017784
     atom    4 type  1   force =     0.00005562   -0.00007693    0.00017802
     atom    5 type  2   force =    -0.00145531    0.00003473   -0.00188541
     atom    6 type  2   force =     0.00074784   -0.00124837   -0.00188468
     atom    7 type  3   force =    -0.00853863    0.00760851    0.00826821
     atom    8 type  3   force =    -0.00182775   -0.00270051   -0.00250819
     atom    9 type  3   force =    -0.01104373    0.00122633   -0.00068861
     atom   10 type  3   force =     0.01085016   -0.00356138    0.00827575
     atom   11 type  3   force =     0.00662423   -0.00900726   -0.00067761
     atom   12 type  3   force =    -0.00136889   -0.00285776   -0.00256260
     The Hubbard contrib.    to forces
     atom    1 type  1   force =     0.00000000    0.00000000    0.00000000
     atom    2 type  1   force =     0.00000000    0.00000000    0.00000000
     atom    3 type  1   force =     0.00000000    0.00000000    0.00000000
     atom    4 type  1   force =     0.00000000    0.00000000    0.00000000
     atom    5 type  2   force =     0.00000000    0.00000000    0.00000000
     atom    6 type  2   force =     0.00000000    0.00000000    0.00000000
     atom    7 type  3   force =     0.00000000    0.00000000    0.00000000
     atom    8 type  3   force =     0.00000000    0.00000000    0.00000000
     atom    9 type  3   force =     0.00000000    0.00000000    0.00000000
     atom   10 type  3   force =     0.00000000    0.00000000    0.00000000
     atom   11 type  3   force =     0.00000000    0.00000000    0.00000000
     atom   12 type  3   force =     0.00000000    0.00000000    0.00000000
     The SCF correction term to forces
     atom    1 type  1   force =     0.00031526    0.00004505    0.00028190
     atom    2 type  1   force =    -0.00028158   -0.00036821    0.00095873
     atom    3 type  1   force =     0.00029148   -0.00059279    0.00077340
     atom    4 type  1   force =     0.00032853   -0.00076940    0.00054400
     atom    5 type  2   force =     0.00017808    0.00003536    0.00005513
     atom    6 type  2   force =    -0.00011289    0.00005039   -0.00007402
     atom    7 type  3   force =     0.00011533    0.00011532   -0.00003201
     atom    8 type  3   force =    -0.00005039    0.00007326    0.00005799
     atom    9 type  3   force =    -0.00003431   -0.00014436   -0.00014418
     atom   10 type  3   force =     0.00008880   -0.00006869    0.00001049
     atom   11 type  3   force =    -0.00002834    0.00006741    0.00019198
     atom   12 type  3   force =    -0.00017348    0.00002235   -0.00014018

     Total force =     0.067957     Total SCF correction =     0.001894


     Computing stress (Cartesian axis) and pressure

          total   stress  (Ry/bohr**3)                   (kbar)     P=     -154.71
  -0.00096797  -0.00000887  -0.00008316         -142.39       -1.31      -12.23
  -0.00000887  -0.00097802  -0.00014408           -1.31     -143.87      -21.19
  -0.00008316  -0.00014408  -0.00120909          -12.23      -21.19     -177.86

     kinetic stress (kbar)  12520.24      5.21    -24.67
                                5.21  12526.64    -42.55
                              -24.67    -42.55  12418.40

     local   stress (kbar) -16645.86    222.69   -329.94
                              222.69 -16389.46   -573.15
                             -329.94   -573.15 -17705.63

     nonloc. stress (kbar)  10068.81      5.96    -17.77
                                5.96  10075.91    -30.17
                              -17.77    -30.17   9943.55

     hartree stress (kbar)  23825.14   -132.89    167.27
                             -132.89  23671.79    290.70
                              167.27    290.70  24396.11

     exc-cor stress (kbar)   9897.12      0.25     -0.39
                                0.25   9897.42     -0.67
                               -0.39     -0.67   9894.90

     corecor stress (kbar) -15871.21     -1.02      1.36
                               -1.02 -15872.44      2.37
                                1.36      2.37 -15867.91

     ewald   stress (kbar) -23936.63   -101.50    191.91
                             -101.50 -24053.74    332.27
                              191.91    332.27 -23257.28

     hubbard stress (kbar)      0.00      0.00      0.00
                                0.00      0.00      0.00
                                0.00      0.00      0.00

     DFT-D   stress (kbar)      0.00      0.00      0.00
                                0.00      0.00      0.00
                                0.00      0.00      0.00

     XDM     stress (kbar)      0.00      0.00      0.00
                                0.00      0.00      0.00
                                0.00      0.00      0.00

     dft-nl  stress (kbar)      0.00      0.00      0.00
                                0.00      0.00      0.00
                                0.00      0.00      0.00

     TS-vdW  stress (kbar)      0.00      0.00      0.00
                                0.00      0.00      0.00
                                0.00      0.00      0.00


                                0.00      0.00      0.00
                                0.00      0.00      0.00


                                0.00      0.00      0.00


     Writing all to output data dir calculations/myprefix.save/
 
     init_run     :      1.13s CPU      1.18s WALL (       1 calls)
     electrons    :      2.50s CPU      2.66s WALL (       1 calls)
     forces       :      0.15s CPU      0.16s WALL (       1 calls)
     stress       :      0.38s CPU      0.39s WALL (       1 calls)

     Called by init_run:
     wfcinit      :      0.02s CPU      0.04s WALL (       1 calls)
     wfcinit:atom :      0.00s CPU      0.00s WALL (       1 calls)
     wfcinit:wfcr :      0.02s CPU      0.04s WALL (       1 calls)
     potinit      :      0.40s CPU      0.40s WALL (       1 calls)
     hinit0       :      0.68s CPU      0.69s WALL (       1 calls)

     Called by electrons:
     c_bands      :      1.17s CPU      1.21s WALL (      24 calls)
     sum_band     :      0.67s CPU      0.72s WALL (      24 calls)
     v_of_rho     :      0.18s CPU      0.19s WALL (      25 calls)
     v_h          :      0.01s CPU      0.01s WALL (      25 calls)
     v_xc         :      0.19s CPU      0.19s WALL (      27 calls)
     newd         :      0.45s CPU      0.48s WALL (      25 calls)
     mix_rho      :      0.03s CPU      0.04s WALL (      24 calls)

     Called by c_bands:
     init_us_2    :      0.00s CPU      0.01s WALL (      49 calls)
     init_us_2:cp :      0.00s CPU      0.01s WALL (      49 calls)
     regterg      :      1.14s CPU      1.17s WALL (      24 calls)

     Called by sum_band:
     sum_band:wei :      0.00s CPU      0.00s WALL (      24 calls)
     sum_band:loo :      0.11s CPU      0.13s WALL (      24 calls)
     sum_band:buf :      0.00s CPU      0.00s WALL (      24 calls)
     sum_band:ini :      0.00s CPU      0.00s WALL (      24 calls)
     sum_band:cal :      0.01s CPU      0.02s WALL (      24 calls)
     sum_band:bec :      0.00s CPU      0.00s WALL (      24 calls)
     addusdens    :      0.46s CPU      0.48s WALL (      24 calls)
     addusd:skk   :      0.00s CPU      0.00s WALL (      72 calls)
     addusd:dgemm :      0.12s CPU      0.14s WALL (      72 calls)
     addusd:qvan2 :      0.32s CPU      0.32s WALL (      72 calls)

     Called by *egterg:
     rdiaghg      :      0.54s CPU      0.56s WALL (      86 calls)
     regterg:over :      0.06s CPU      0.06s WALL (      62 calls)
     regterg:upda :      0.02s CPU      0.02s WALL (      62 calls)
     regterg:last :      0.04s CPU      0.04s WALL (      42 calls)
     rdiaghg:chol :      0.03s CPU      0.03s WALL (      86 calls)
     rdiaghg:inve :      0.00s CPU      0.00s WALL (      86 calls)
     rdiaghg:para :      0.04s CPU      0.04s WALL (     172 calls)
     h_psi        :      0.45s CPU      0.48s WALL (      87 calls)
     s_psi        :      0.01s CPU      0.01s WALL (      87 calls)
     g_psi        :      0.00s CPU      0.00s WALL (      62 calls)

     Called by h_psi:
     h_psi:calbec :      0.04s CPU      0.04s WALL (      87 calls)
     vloc_psi     :      0.40s CPU      0.43s WALL (      87 calls)
     add_vuspsi   :      0.01s CPU      0.01s WALL (      87 calls)

     General routines
     calbec       :      0.05s CPU      0.06s WALL (     116 calls)
     fft          :      0.72s CPU      0.73s WALL (     293 calls)
     ffts         :      0.33s CPU      0.33s WALL (      49 calls)
     fftw         :      0.45s CPU      0.48s WALL (    5604 calls)
     interpolate  :      0.34s CPU      0.34s WALL (      25 calls)
 
     Parallel routines
 
     PWSCF        :      4.43s CPU      5.45s WALL

 
   This run was terminated on:  21:40:47   4Mar2023            

=------------------------------------------------------------------------------=
   JOB DONE.
=------------------------------------------------------------------------------=
