
     Program PWSCF v.7.0 starts on  6Mar2023 at  8:52:15 

     This program is part of the open-source Quantum ESPRESSO suite
     for quantum simulation of materials; please cite
         "P. Giannozzi et al., J. Phys.:Condens. Matter 21 395502 (2009);
         "P. Giannozzi et al., J. Phys.:Condens. Matter 29 465901 (2017);
         "P. Giannozzi et al., J. Chem. Phys. 152 154105 (2020);
          URL http://www.quantum-espresso.org", 
     in publications or presentations arising from this work. More details at
     http://www.quantum-espresso.org/quote

     Parallel version (MPI & OpenMP), running on      32 processor cores
     Number of MPI processes:                32
     Threads/MPI process:                     1

     MPI processes distributed on     1 nodes
     R & G space division:  proc/nbgrp/npool/nimage =      32
     166108 MiB available memory on the printing compute node when the environment starts
 
     Reading input from espresso_4036.pwi
Warning: card &CELL ignored
Warning: card / ignored

     Current dimensions of program PWSCF are:
     Max number of different atomic species (ntypx) = 10
     Max number of k-points (npk) =  40000
     Max angular momentum in pseudopotentials (lmaxx) =  4
     file O.pbe-n-kjpaw_psl.0.1.UPF: wavefunction(s)  2P renormalized

     gamma-point specific algorithms are used
     Message from routine setup:
     using ibrav=0 with symmetry is DISCOURAGED, use correct ibrav instead

     Subspace diagonalization in iterative solution of the eigenvalue problem:
     one sub-group per band group will be used
     scalapack distributed-memory algorithm (size of sub-group:  5*  5 procs)

 
     Parallelization info
     --------------------
     sticks:   dense  smooth     PW     G-vecs:    dense   smooth      PW
     Min          59      28      6                 2694      940     110
     Max          60      30      8                 2712      960     126
     Sum        1919     957    237                86567    30539    3811
 
     Using Slab Decomposition
 


     bravais-lattice index     =            0
     lattice parameter (alat)  =       9.9489  a.u.
     unit-cell volume          =    1378.5358 (a.u.)^3
     number of atoms/cell      =           20
     number of atomic types    =            4
     number of electrons       =       162.00
     number of Kohn-Sham states=           97
     kinetic-energy cutoff     =      30.0000  Ry
     charge density cutoff     =     240.0000  Ry
     scf convergence threshold =      1.0E-06
     mixing beta               =       0.7000
     number of iterations used =            8  plain     mixing
     Exchange-correlation= SLA  PW   PBX  PBC
                           (   1   4   3   4   0   0   0)

     celldm(1)=   9.948851  celldm(2)=   0.000000  celldm(3)=   0.000000
     celldm(4)=   0.000000  celldm(5)=   0.000000  celldm(6)=   0.000000

     crystal axes: (cart. coord. in units of alat)
               a(1) = (   1.000000   0.000000   0.000000 )  
               a(2) = (  -0.254657   1.015629   0.000000 )  
               a(3) = (  -0.372128  -0.456882   1.378365 )  

     reciprocal axes: (cart. coord. in units 2 pi/alat)
               b(1) = (  1.000000  0.250738  0.353089 )  
               b(2) = (  0.000000  0.984612  0.326366 )  
               b(3) = (  0.000000  0.000000  0.725497 )  


     PseudoPot. # 1 for Li read from file:
     /home/pragov/projects/rrg-bengioy-ad/pragov/crystal_structure_design/SSSP/li_pbe_v1.4.uspp.F.UPF
     MD5 check sum: e912e257baa3777c20ea3d68f190483c
     Pseudo is Ultrasoft, Zval =  3.0
     Generated by new atomic code, or converted to UPF format
     Using radial grid of  751 points,  5 beta functions with: 
                l(1) =   0
                l(2) =   0
                l(3) =   0
                l(4) =   1
                l(5) =   1
     Q(r) pseudized with 10 coefficients,  rinner =    1.150   1.150   1.150


     PseudoPot. # 2 for Cu read from file:
     /home/pragov/projects/rrg-bengioy-ad/pragov/crystal_structure_design/SSSP/Cu_pbe_v1.2.uspp.F.UPF
     MD5 check sum: 6e991ff952a84172a2a52a1c1e996048
     Pseudo is Ultrasoft + core correction, Zval = 19.0
     Generated by new atomic code, or converted to UPF format
     Using radial grid of  867 points,  6 beta functions with: 
                l(1) =   0
                l(2) =   0
                l(3) =   1
                l(4) =   1
                l(5) =   2
                l(6) =   2
     Q(r) pseudized with  8 coefficients,  rinner =    1.150   1.150   1.150
                                                       1.150   1.150

     PseudoPot. # 3 for Sb read from file:
     /home/pragov/projects/rrg-bengioy-ad/pragov/crystal_structure_design/SSSP/sb_pbe_v1.4.uspp.F.UPF
     MD5 check sum: 9bc50dfb53373b713f5709b9110fe27f
     Pseudo is Ultrasoft + core correction, Zval = 15.0
     Generated by new atomic code, or converted to UPF format
     Using radial grid of  891 points,  6 beta functions with: 
                l(1) =   0
                l(2) =   0
                l(3) =   1
                l(4) =   1
                l(5) =   2
                l(6) =   2
     Q(r) pseudized with  8 coefficients,  rinner =    1.350   1.350   1.350
                                                       1.350   1.350

     PseudoPot. # 4 for O  read from file:
     /home/pragov/projects/rrg-bengioy-ad/pragov/crystal_structure_design/SSSP/O.pbe-n-kjpaw_psl.0.1.UPF
     MD5 check sum: 0234752ac141de4415c5fc33072bef88
     Pseudo is Projector augmented-wave + core cor, Zval =  6.0
     Generated using "atomic" code by A. Dal Corso  v.5.0.99 svn rev. 10869
     Shape of augmentation charge: BESSEL
     Using radial grid of 1095 points,  4 beta functions with: 
                l(1) =   0
                l(2) =   0
                l(3) =   1
                l(4) =   1
     Q(r) pseudized with 0 coefficients 


     atomic species   valence    mass     pseudopotential
        Li             3.00     6.94000     Li( 1.00)
        Cu            19.00    63.54600     Cu( 1.00)
        Sb            15.00   121.76000     Sb( 1.00)
        O              6.00    15.99900     O ( 1.00)

      2 Sym. Ops., with inversion, found


                                    s                        frac. trans.

      isym =  1     identity                                     

 cryst.   s( 1) = (     1          0          0      )
                  (     0          1          0      )
                  (     0          0          1      )

 cart.    s( 1) = (  1.0000000 -0.0000000  0.0000000 )
                  (  0.0000000  1.0000000 -0.0000000 )
                  (  0.0000000  0.0000000  1.0000000 )


      isym =  2     inversion                                    

 cryst.   s( 2) = (    -1          0          0      )
                  (     0         -1          0      )
                  (     0          0         -1      )

 cart.    s( 2) = ( -1.0000000  0.0000000 -0.0000000 )
                  (  0.0000000 -1.0000000  0.0000000 )
                  (  0.0000000  0.0000000 -1.0000000 )


   Cartesian axes

     site n.     atom                  positions (alat units)
         1           Li  tau(   1) = (  -0.1452147   0.7288628   0.5280558  )
         2           Li  tau(   2) = (   0.0427770  -0.0649087   1.1129994  )
         3           Li  tau(   3) = (   0.1866074   0.2793736   0.6891825  )
         4           Li  tau(   4) = (   0.3304378   0.6236559   0.2653656  )
         5           Li  tau(   5) = (   0.5184295  -0.1701156   0.8503092  )
         6           Cu  tau(   6) = (  -0.1273286   0.5078145   0.0000000  )
         7           Cu  tau(   7) = (   0.1477516   0.4914979   1.2383300  )
         8           Cu  tau(   8) = (   0.2254632   0.0672492   0.1400350  )
         9           Sb  tau(   9) = (  -0.3286133   0.3853144   0.9660850  )
        10           Sb  tau(  10) = (   0.7018281   0.1734328   0.4122800  )
        11           O   tau(  11) = (  -0.2596774  -0.3478507   1.1437562  )
        12           O   tau(  12) = (  -0.1579771   0.2546801   1.2778670  )
        13           O   tau(  13) = (  -0.1529461   0.0913462   0.7588313  )
        14           O   tau(  14) = (  -0.0126313   0.4152103   0.3440041  )
        15           O   tau(  15) = (  -0.0260695   0.6027632   0.9084238  )
        16           O   tau(  16) = (   0.3992844  -0.0440160   0.4699411  )
        17           O   tau(  17) = (   0.3858461   0.1435369   1.0343609  )
        18           O   tau(  18) = (   0.5261610   0.4674010   0.6195337  )
        19           O   tau(  19) = (   0.5311920   0.3040670   0.1004980  )
        20           O   tau(  20) = (   0.6328923   0.9065979   0.2346087  )

   Crystallographic axes

     site n.     atom                  positions (cryst. coord.)
         1           Li  tau(   1) = (  0.2239900  0.8899860  0.3831030  )
         2           Li  tau(   2) = (  0.4194900  0.2993350  0.8074780  )
         3           Li  tau(   3) = (  0.5000000  0.5000000  0.5000000  )
         4           Li  tau(   4) = (  0.5805100  0.7006650  0.1925220  )
         5           Li  tau(   5) = (  0.7760100  0.1100140  0.6168970  )
         6           Cu  tau(   6) = ( -0.0000000  0.5000000  0.0000000  )
         7           Cu  tau(   7) = (  0.7082300  0.8880830  0.8984050  )
         8           Cu  tau(   8) = (  0.2917700  0.1119170  0.1015950  )
         9           Sb  tau(   9) = (  0.1091140  0.6946820  0.7008920  )
        10           Sb  tau(  10) = (  0.8908860  0.3053180  0.2991080  )
        11           O   tau(  11) = (  0.0569510  0.0307850  0.8297920  )
        12           O   tau(  12) = (  0.3570820  0.6678130  0.9270890  )
        13           O   tau(  13) = (  0.1378930  0.3375970  0.5505300  )
        14           O   tau(  14) = (  0.2129420  0.5210920  0.2495740  )
        15           O   tau(  15) = (  0.4458210  0.8899660  0.6590590  )
        16           O   tau(  16) = (  0.5541790  0.1100340  0.3409410  )
        17           O   tau(  17) = (  0.7870580  0.4789080  0.7504260  )
        18           O   tau(  18) = (  0.8621070  0.6624030  0.4494700  )
        19           O   tau(  19) = (  0.6429180  0.3321870  0.0729110  )
        20           O   tau(  20) = (  0.9430490  0.9692150  0.1702080  )

     number of k points=     1  Methfessel-Paxton smearing, width (Ry)=  0.0010
                       cart. coord. in units 2pi/alat
        k(    1) = (   0.0000000   0.0000000   0.0000000), wk =   2.0000000

                       cryst. coord.
        k(    1) = (   0.0000000   0.0000000   0.0000000), wk =   2.0000000

     Dense  grid:    43284 G-vectors     FFT dimensions: (  50,  54,  75)

     Smooth grid:    15270 G-vectors     FFT dimensions: (  36,  40,  54)

     Dynamical RAM for                 wfc:       0.09 MB

     Dynamical RAM for     wfc (w. buffer):       0.09 MB

     Dynamical RAM for           str. fact:       0.08 MB

     Dynamical RAM for           local pot:       0.00 MB

     Dynamical RAM for          nlocal pot:       0.19 MB

     Dynamical RAM for                qrad:       4.98 MB

     Dynamical RAM for          rho,v,vnew:       0.25 MB

     Dynamical RAM for               rhoin:       0.08 MB

     Dynamical RAM for            rho*nmix:       0.33 MB

     Dynamical RAM for           G-vectors:       0.08 MB

     Dynamical RAM for          h,s,v(r/c):       0.03 MB

     Dynamical RAM for          <psi|beta>:       0.16 MB

     Dynamical RAM for                 psi:       0.17 MB

     Dynamical RAM for                hpsi:       0.17 MB

     Dynamical RAM for                spsi:       0.17 MB

     Dynamical RAM for      wfcinit/wfcrot:       0.56 MB

     Dynamical RAM for           addusdens:       4.05 MB

     Dynamical RAM for          addusforce:       4.47 MB

     Dynamical RAM for         addusstress:       4.15 MB

     Estimated static dynamical RAM per process >       6.16 MB

     Estimated max dynamical RAM per process >      10.96 MB

     Estimated total dynamical RAM >     350.86 MB

     Check: negative core charge=   -0.000014

     Initial potential from superposition of free atoms

     starting charge     154.7462, renormalised to     162.0000
     Starting wfcs are  122 randomized atomic wfcs
     Checking if some PAW data can be deallocated... 
       PAW data deallocated on   20 nodes for type:  4

     total cpu time spent up to now is        1.2 secs

     Self-consistent Calculation

     iteration #  1     ecut=    30.00 Ry     beta= 0.70
     Davidson diagonalization with overlap

---- Real-time Memory Report at c_bands before calling an iterative solver
           137 MiB given to the printing process from OS
             0 MiB allocation reported by mallinfo(arena+hblkhd)
        165274 MiB available memory on the node where the printing process lives
------------------
     ethr =  1.00E-02,  avg # of iterations =  3.0

     total cpu time spent up to now is        1.3 secs

     total energy              =   -2047.91120160 Ry
     estimated scf accuracy    <      29.64803097 Ry

     iteration #  2     ecut=    30.00 Ry     beta= 0.70
     Davidson diagonalization with overlap

---- Real-time Memory Report at c_bands before calling an iterative solver
           146 MiB given to the printing process from OS
             0 MiB allocation reported by mallinfo(arena+hblkhd)
        165090 MiB available memory on the node where the printing process lives
------------------
     ethr =  1.00E-02,  avg # of iterations =  3.0

     total cpu time spent up to now is        1.4 secs

     total energy              =   -2045.91734419 Ry
     estimated scf accuracy    <     183.69936407 Ry

     iteration #  3     ecut=    30.00 Ry     beta= 0.70
     Davidson diagonalization with overlap

---- Real-time Memory Report at c_bands before calling an iterative solver
           147 MiB given to the printing process from OS
             0 MiB allocation reported by mallinfo(arena+hblkhd)
        165076 MiB available memory on the node where the printing process lives
------------------
     ethr =  1.00E-02,  avg # of iterations =  3.0

     total cpu time spent up to now is        1.6 secs

     total energy              =   -2066.19000896 Ry
     estimated scf accuracy    <      45.14737151 Ry

     iteration #  4     ecut=    30.00 Ry     beta= 0.70
     Davidson diagonalization with overlap

---- Real-time Memory Report at c_bands before calling an iterative solver
           148 MiB given to the printing process from OS
             0 MiB allocation reported by mallinfo(arena+hblkhd)
        165071 MiB available memory on the node where the printing process lives
------------------
     ethr =  1.00E-02,  avg # of iterations =  2.0

     total cpu time spent up to now is        1.7 secs

     total energy              =   -2070.15942025 Ry
     estimated scf accuracy    <       7.70732106 Ry

     iteration #  5     ecut=    30.00 Ry     beta= 0.70
     Davidson diagonalization with overlap

---- Real-time Memory Report at c_bands before calling an iterative solver
           148 MiB given to the printing process from OS
             0 MiB allocation reported by mallinfo(arena+hblkhd)
        165076 MiB available memory on the node where the printing process lives
------------------
     ethr =  4.76E-03,  avg # of iterations =  1.0

     total cpu time spent up to now is        1.8 secs

     total energy              =   -2070.09706247 Ry
     estimated scf accuracy    <       3.29013442 Ry

     iteration #  6     ecut=    30.00 Ry     beta= 0.70
     Davidson diagonalization with overlap

---- Real-time Memory Report at c_bands before calling an iterative solver
           149 MiB given to the printing process from OS
             0 MiB allocation reported by mallinfo(arena+hblkhd)
        165075 MiB available memory on the node where the printing process lives
------------------
     ethr =  2.03E-03,  avg # of iterations =  1.0

     total cpu time spent up to now is        1.9 secs

     total energy              =   -2069.92852694 Ry
     estimated scf accuracy    <       1.66396114 Ry

     iteration #  7     ecut=    30.00 Ry     beta= 0.70
     Davidson diagonalization with overlap

---- Real-time Memory Report at c_bands before calling an iterative solver
           149 MiB given to the printing process from OS
             0 MiB allocation reported by mallinfo(arena+hblkhd)
        165074 MiB available memory on the node where the printing process lives
------------------
     ethr =  1.03E-03,  avg # of iterations =  2.0

     total cpu time spent up to now is        2.0 secs

     total energy              =   -2069.83599749 Ry
     estimated scf accuracy    <       1.26636735 Ry

     iteration #  8     ecut=    30.00 Ry     beta= 0.70
     Davidson diagonalization with overlap

---- Real-time Memory Report at c_bands before calling an iterative solver
           149 MiB given to the printing process from OS
             0 MiB allocation reported by mallinfo(arena+hblkhd)
        165072 MiB available memory on the node where the printing process lives
------------------
     ethr =  7.82E-04,  avg # of iterations =  2.0

     total cpu time spent up to now is        2.1 secs

     total energy              =   -2069.85980301 Ry
     estimated scf accuracy    <       1.98591565 Ry

     iteration #  9     ecut=    30.00 Ry     beta= 0.70
     Davidson diagonalization with overlap

---- Real-time Memory Report at c_bands before calling an iterative solver
           149 MiB given to the printing process from OS
             0 MiB allocation reported by mallinfo(arena+hblkhd)
        165070 MiB available memory on the node where the printing process lives
------------------
     ethr =  7.82E-04,  avg # of iterations =  2.0

     total cpu time spent up to now is        2.3 secs

     total energy              =   -2069.88617800 Ry
     estimated scf accuracy    <       0.58526541 Ry

     iteration # 10     ecut=    30.00 Ry     beta= 0.70
     Davidson diagonalization with overlap

---- Real-time Memory Report at c_bands before calling an iterative solver
           150 MiB given to the printing process from OS
             0 MiB allocation reported by mallinfo(arena+hblkhd)
        165070 MiB available memory on the node where the printing process lives
------------------
     ethr =  3.61E-04,  avg # of iterations =  2.0

     total cpu time spent up to now is        2.4 secs

     total energy              =   -2069.92308245 Ry
     estimated scf accuracy    <       0.66357705 Ry

     iteration # 11     ecut=    30.00 Ry     beta= 0.70
     Davidson diagonalization with overlap

---- Real-time Memory Report at c_bands before calling an iterative solver
           150 MiB given to the printing process from OS
             0 MiB allocation reported by mallinfo(arena+hblkhd)
        165065 MiB available memory on the node where the printing process lives
------------------
     ethr =  3.61E-04,  avg # of iterations =  1.0

     total cpu time spent up to now is        2.5 secs

     total energy              =   -2069.92667973 Ry
     estimated scf accuracy    <       0.83563392 Ry

     iteration # 12     ecut=    30.00 Ry     beta= 0.70
     Davidson diagonalization with overlap

---- Real-time Memory Report at c_bands before calling an iterative solver
           150 MiB given to the printing process from OS
             0 MiB allocation reported by mallinfo(arena+hblkhd)
        165064 MiB available memory on the node where the printing process lives
------------------
     ethr =  3.61E-04,  avg # of iterations =  1.0

     total cpu time spent up to now is        2.6 secs

     total energy              =   -2069.94009331 Ry
     estimated scf accuracy    <       0.05959650 Ry

     iteration # 13     ecut=    30.00 Ry     beta= 0.70
     Davidson diagonalization with overlap

---- Real-time Memory Report at c_bands before calling an iterative solver
           150 MiB given to the printing process from OS
             0 MiB allocation reported by mallinfo(arena+hblkhd)
        165064 MiB available memory on the node where the printing process lives
------------------
     ethr =  3.68E-05,  avg # of iterations = 12.0

     total cpu time spent up to now is        2.8 secs

     total energy              =   -2069.94186265 Ry
     estimated scf accuracy    <       0.01009814 Ry

     iteration # 14     ecut=    30.00 Ry     beta= 0.70
     Davidson diagonalization with overlap

---- Real-time Memory Report at c_bands before calling an iterative solver
           150 MiB given to the printing process from OS
             0 MiB allocation reported by mallinfo(arena+hblkhd)
        165064 MiB available memory on the node where the printing process lives
------------------
     c_bands:  1 eigenvalues not converged
     ethr =  6.23E-06,  avg # of iterations = 20.0

     total cpu time spent up to now is        3.0 secs

     total energy              =   -2069.94218141 Ry
     estimated scf accuracy    <       0.00512950 Ry

     iteration # 15     ecut=    30.00 Ry     beta= 0.70
     Davidson diagonalization with overlap

---- Real-time Memory Report at c_bands before calling an iterative solver
           151 MiB given to the printing process from OS
             0 MiB allocation reported by mallinfo(arena+hblkhd)
        165064 MiB available memory on the node where the printing process lives
------------------
     ethr =  3.17E-06,  avg # of iterations =  2.0

     total cpu time spent up to now is        3.1 secs

     total energy              =   -2069.94236269 Ry
     estimated scf accuracy    <       0.00952145 Ry

     iteration # 16     ecut=    30.00 Ry     beta= 0.70
     Davidson diagonalization with overlap

---- Real-time Memory Report at c_bands before calling an iterative solver
           151 MiB given to the printing process from OS
             0 MiB allocation reported by mallinfo(arena+hblkhd)
        165064 MiB available memory on the node where the printing process lives
------------------
     ethr =  3.17E-06,  avg # of iterations =  1.0

     total cpu time spent up to now is        3.2 secs

     total energy              =   -2069.94252537 Ry
     estimated scf accuracy    <       0.00018480 Ry

     iteration # 17     ecut=    30.00 Ry     beta= 0.70
     Davidson diagonalization with overlap

---- Real-time Memory Report at c_bands before calling an iterative solver
           151 MiB given to the printing process from OS
             0 MiB allocation reported by mallinfo(arena+hblkhd)
        165064 MiB available memory on the node where the printing process lives
------------------
     ethr =  1.14E-07,  avg # of iterations =  1.0

     total cpu time spent up to now is        3.4 secs

     total energy              =   -2069.94253494 Ry
     estimated scf accuracy    <       0.00018879 Ry

     iteration # 18     ecut=    30.00 Ry     beta= 0.70
     Davidson diagonalization with overlap

---- Real-time Memory Report at c_bands before calling an iterative solver
           151 MiB given to the printing process from OS
             0 MiB allocation reported by mallinfo(arena+hblkhd)
        165064 MiB available memory on the node where the printing process lives
------------------
     ethr =  1.14E-07,  avg # of iterations =  1.0

     total cpu time spent up to now is        3.5 secs

     total energy              =   -2069.94253888 Ry
     estimated scf accuracy    <       0.00000949 Ry

     iteration # 19     ecut=    30.00 Ry     beta= 0.70
     Davidson diagonalization with overlap

---- Real-time Memory Report at c_bands before calling an iterative solver
           151 MiB given to the printing process from OS
             0 MiB allocation reported by mallinfo(arena+hblkhd)
        165064 MiB available memory on the node where the printing process lives
------------------
     ethr =  5.86E-09,  avg # of iterations =  1.0

     total cpu time spent up to now is        3.6 secs

     total energy              =   -2069.94253920 Ry
     estimated scf accuracy    <       0.00000314 Ry

     iteration # 20     ecut=    30.00 Ry     beta= 0.70
     Davidson diagonalization with overlap

---- Real-time Memory Report at c_bands before calling an iterative solver
           151 MiB given to the printing process from OS
             0 MiB allocation reported by mallinfo(arena+hblkhd)
        165064 MiB available memory on the node where the printing process lives
------------------
     ethr =  1.94E-09,  avg # of iterations =  1.0

     total cpu time spent up to now is        3.7 secs

     End of self-consistent calculation

          k = 0.0000 0.0000 0.0000 (  1906 PWs)   bands (ev):

  -103.0772-102.4947-102.4933 -60.6524 -60.4998 -60.2314 -60.0768 -60.0741
   -59.9820 -59.9815 -59.6101 -59.6081 -35.8622 -35.7302 -35.7267 -35.6576
   -35.6487 -21.1312 -21.0915 -21.0419 -21.0407 -20.9548 -20.8995 -20.8978
   -20.8897 -20.8827 -20.8705 -11.3950 -10.3767 -10.0039  -9.7620  -9.4346
    -9.4174  -9.2257  -8.8830  -8.7748  -8.7034  -0.4629  -0.0800   2.3715
     2.7714   2.8072   3.0479   3.0956   3.3417   3.4322   3.7543   3.9051
     4.3727   4.5501   4.5928   4.8658   4.9658   5.0822   5.3079   5.3333
     5.5200   5.6911   5.7942   5.9524   5.9584   6.0755   6.2620   6.3386
     6.3618   6.4755   6.7688   7.0968   7.1696   7.3402   7.5710   7.6215
     7.7198   7.8020   7.9651   8.0701   8.0730   8.4053   8.4961   8.5569
     9.2889   9.4963  10.1773  12.1669  13.4988  13.6986  15.1454  15.2658
    15.6832  15.7567  16.0825  16.4021  16.5253  17.4233  17.6039  17.7930
    17.9233

     occupation numbers 
     1.0000   1.0000   1.0000   1.0000   1.0000   1.0000   1.0000   1.0000
     1.0000   1.0000   1.0000   1.0000   1.0000   1.0000   1.0000   1.0000
     1.0000   1.0000   1.0000   1.0000   1.0000   1.0000   1.0000   1.0000
     1.0000   1.0000   1.0000   1.0000   1.0000   1.0000   1.0000   1.0000
     1.0000   1.0000   1.0000   1.0000   1.0000   1.0000   1.0000   1.0000
     1.0000   1.0000   1.0000   1.0000   1.0000   1.0000   1.0000   1.0000
     1.0000   1.0000   1.0000   1.0000   1.0000   1.0000   1.0000   1.0000
     1.0000   1.0000   1.0000   1.0000   1.0000   1.0000   1.0000   1.0000
     1.0000   1.0000   1.0000   1.0000   1.0000   1.0000   1.0000   1.0000
     1.0000   1.0000   1.0000   1.0000   1.0000   1.0000   1.0000   1.0000
     1.0000  -0.0000  -0.0000  -0.0000  -0.0000  -0.0000  -0.0000  -0.0000
    -0.0000  -0.0000  -0.0000  -0.0000  -0.0000  -0.0000  -0.0000  -0.0000
    -0.0000

     the Fermi energy is     9.4140 ev

!    total energy              =   -2069.94253895 Ry
     estimated scf accuracy    <       0.00000044 Ry
     smearing contrib. (-TS)   =       0.00000000 Ry
     internal energy E=F+TS    =   -2069.94253895 Ry

     The total energy is F=E-TS. E is the sum of the following terms:
     one-electron contribution =   -1496.80920301 Ry
     hartree contribution      =     831.69161521 Ry
     xc contribution           =    -296.87717327 Ry
     ewald contribution        =   -1012.69809676 Ry
     one-center paw contrib.   =     -95.24968111 Ry
      -> PAW hartree energy AE =       0.00000000 Ry
      -> PAW hartree energy PS =       0.00000000 Ry
      -> PAW xc energy AE      =       0.00000000 Ry
      -> PAW xc energy PS      =       0.00000000 Ry
      -> total E_H with PAW    =     831.69161521 Ry
      -> total E_XC with PAW   =    -296.87717327 Ry

     convergence has been achieved in  20 iterations

     Forces acting on atoms (cartesian axes, Ry/au):

     atom    1 type  1   force =     0.00239110    0.00031837   -0.00255512
     atom    2 type  1   force =     0.00051202   -0.00186929    0.00116237
     atom    3 type  1   force =     0.00000000    0.00000000    0.00000000
     atom    4 type  1   force =    -0.00051202    0.00186929   -0.00116237
     atom    5 type  1   force =    -0.00239110   -0.00031837    0.00255512
     atom    6 type  2   force =     0.00000000    0.00000000    0.00000000
     atom    7 type  2   force =    -0.02210058   -0.00401254   -0.01140292
     atom    8 type  2   force =     0.02210058    0.00401254    0.01140292
     atom    9 type  3   force =     0.00570724    0.01371213    0.00623960
     atom   10 type  3   force =    -0.00570724   -0.01371213   -0.00623960
     atom   11 type  4   force =     0.00850924   -0.01113763    0.01505148
     atom   12 type  4   force =    -0.00105599   -0.00994394    0.02046197
     atom   13 type  4   force =     0.00551407   -0.00255369    0.00413075
     atom   14 type  4   force =     0.00602813    0.01101693   -0.00291794
     atom   15 type  4   force =     0.00717886    0.00157712   -0.01067110
     atom   16 type  4   force =    -0.00717886   -0.00157712    0.01067110
     atom   17 type  4   force =    -0.00602813   -0.01101693    0.00291794
     atom   18 type  4   force =    -0.00551407    0.00255369   -0.00413075
     atom   19 type  4   force =     0.00105599    0.00994394   -0.02046197
     atom   20 type  4   force =    -0.00850924    0.01113763   -0.01505148
     The non-local contrib.  to forces
     atom    1 type  1   force =    -0.04202567    0.02900384    0.04086720
     atom    2 type  1   force =     0.00672793   -0.00304525   -0.03851250
     atom    3 type  1   force =     0.00000000    0.00000000    0.00000000
     atom    4 type  1   force =    -0.00672793    0.00304525    0.03851250
     atom    5 type  1   force =     0.04202567   -0.02900384   -0.04086720
     atom    6 type  2   force =     0.00000000    0.00000000    0.00000000
     atom    7 type  2   force =    -0.00521902   -0.03251351    0.08844853
     atom    8 type  2   force =     0.00521902    0.03251351   -0.08844853
     atom    9 type  3   force =    -0.01455195   -0.07308952   -0.14611493
     atom   10 type  3   force =     0.01455195    0.07308952    0.14611493
     atom   11 type  4   force =     0.33455350   -0.80650955   -0.23492768
     atom   12 type  4   force =    -0.28363576    0.31177010   -0.76824687
     atom   13 type  4   force =    -0.55286302    0.67170169   -0.45670538
     atom   14 type  4   force =    -0.83291772   -0.39691683   -0.31448388
     atom   15 type  4   force =    -0.53915122   -0.62278148    0.48167652
     atom   16 type  4   force =     0.53915122    0.62278148   -0.48167652
     atom   17 type  4   force =     0.83291772    0.39691683    0.31448388
     atom   18 type  4   force =     0.55286302   -0.67170169    0.45670538
     atom   19 type  4   force =     0.28363576   -0.31177010    0.76824687
     atom   20 type  4   force =    -0.33455350    0.80650955    0.23492768
     The ionic contribution  to forces
     atom    1 type  1   force =    -0.01291884    0.68001584    4.20419030
     atom    2 type  1   force =    -0.22016274    0.04686423   -5.09472179
     atom    3 type  1   force =     0.00000000    0.00000000    0.00000000
     atom    4 type  1   force =     0.22016274   -0.04686423    5.09472179
     atom    5 type  1   force =     0.01291884   -0.68001584   -4.20419030
     atom    6 type  2   force =     0.00000000   -0.00000000    0.00000000
     atom    7 type  2   force =    -6.53026746   -2.25149092  -17.15903097
     atom    8 type  2   force =     6.53026746    2.25149092   17.15903097
     atom    9 type  3   force =     1.03366877    2.91553724  -22.53420780
     atom   10 type  3   force =    -1.03366877   -2.91553724   22.53420779
     atom   11 type  4   force =     2.37129989   10.63906181  -14.19761664
     atom   12 type  4   force =     4.52806268   -7.47032971    1.95120388
     atom   13 type  4   force =     6.65326814   -9.28406145    1.61546592
     atom   14 type  4   force =     8.07641748    6.86564135   15.43161065
     atom   15 type  4   force =     2.39728765    8.88083685  -14.80744109
     atom   16 type  4   force =    -2.39728765   -8.88083685   14.80744109
     atom   17 type  4   force =    -8.07641748   -6.86564135  -15.43161065
     atom   18 type  4   force =    -6.65326814    9.28406145   -1.61546592
     atom   19 type  4   force =    -4.52806268    7.47032971   -1.95120388
     atom   20 type  4   force =    -2.37129989  -10.63906181   14.19761664
     The local contribution  to forces
     atom    1 type  1   force =     0.05732267   -0.70865517   -4.24767992
     atom    2 type  1   force =     0.21392018   -0.04570824    5.13444704
     atom    3 type  1   force =    -0.00000111   -0.00000911   -0.00004976
     atom    4 type  1   force =    -0.21394399    0.04572013   -5.13443091
     atom    5 type  1   force =    -0.05732430    0.70868262    4.24759230
     atom    6 type  2   force =     0.00019858    0.00015966    0.00027738
     atom    7 type  2   force =     6.51320805    2.27990406   17.05994185
     atom    8 type  2   force =    -6.51330935   -2.28017833  -17.05937744
     atom    9 type  3   force =    -1.01265396   -2.82926431   22.68585643
     atom   10 type  3   force =     1.01266912    2.82920811  -22.68591410
     atom   11 type  4   force =    -2.69385312   -9.85199130   14.44555508
     atom   12 type  4   force =    -4.24812209    7.15177885   -1.17018722
     atom   13 type  4   force =    -6.10024950    8.61614615   -1.15934287
     atom   14 type  4   force =    -7.24589088   -6.46169921  -15.12404072
     atom   15 type  4   force =    -1.85619995   -8.26295444   14.32064629
     atom   16 type  4   force =     1.85600193    8.26302335  -14.32092090
     atom   17 type  4   force =     7.24595117    6.46166133   15.12400892
     atom   18 type  4   force =     6.10027348   -8.61617104    1.15921050
     atom   19 type  4   force =     4.24778384   -7.15199334    1.17036453
     atom   20 type  4   force =     2.69428245    9.85216267  -14.44538569
     The core correction contribution to forces
     atom    1 type  1   force =     0.00000000    0.00000000    0.00000000
     atom    2 type  1   force =     0.00000000    0.00000000    0.00000000
     atom    3 type  1   force =     0.00000000    0.00000000    0.00000000
     atom    4 type  1   force =     0.00000000    0.00000000    0.00000000
     atom    5 type  1   force =     0.00000000    0.00000000    0.00000000
     atom    6 type  2   force =     0.00000009    0.00000002   -0.00000001
     atom    7 type  2   force =     0.00007892    0.00001520   -0.00025294
     atom    8 type  2   force =    -0.00007896   -0.00001518    0.00025304
     atom    9 type  3   force =    -0.00063220    0.00072305    0.00092130
     atom   10 type  3   force =     0.00063384   -0.00072422   -0.00091929
     atom   11 type  4   force =    -0.00344276    0.00822266    0.00253459
     atom   12 type  4   force =     0.00269170   -0.00305127    0.00785133
     atom   13 type  4   force =     0.00544342   -0.00637733    0.00467579
     atom   14 type  4   force =     0.00859497    0.00388730    0.00398591
     atom   15 type  4   force =     0.00520754    0.00647478   -0.00550408
     atom   16 type  4   force =    -0.00520822   -0.00647420    0.00550402
     atom   17 type  4   force =    -0.00859508   -0.00388718   -0.00398586
     atom   18 type  4   force =    -0.00544351    0.00637672   -0.00467591
     atom   19 type  4   force =    -0.00269305    0.00304989   -0.00785129
     atom   20 type  4   force =     0.00344397   -0.00822118   -0.00253460
     The Hubbard contrib.    to forces
     atom    1 type  1   force =     0.00000000    0.00000000    0.00000000
     atom    2 type  1   force =     0.00000000    0.00000000    0.00000000
     atom    3 type  1   force =     0.00000000    0.00000000    0.00000000
     atom    4 type  1   force =     0.00000000    0.00000000    0.00000000
     atom    5 type  1   force =     0.00000000    0.00000000    0.00000000
     atom    6 type  2   force =     0.00000000    0.00000000    0.00000000
     atom    7 type  2   force =     0.00000000    0.00000000    0.00000000
     atom    8 type  2   force =     0.00000000    0.00000000    0.00000000
     atom    9 type  3   force =     0.00000000    0.00000000    0.00000000
     atom   10 type  3   force =     0.00000000    0.00000000    0.00000000
     atom   11 type  4   force =     0.00000000    0.00000000    0.00000000
     atom   12 type  4   force =     0.00000000    0.00000000    0.00000000
     atom   13 type  4   force =     0.00000000    0.00000000    0.00000000
     atom   14 type  4   force =     0.00000000    0.00000000    0.00000000
     atom   15 type  4   force =     0.00000000    0.00000000    0.00000000
     atom   16 type  4   force =     0.00000000    0.00000000    0.00000000
     atom   17 type  4   force =     0.00000000    0.00000000    0.00000000
     atom   18 type  4   force =     0.00000000    0.00000000    0.00000000
     atom   19 type  4   force =     0.00000000    0.00000000    0.00000000
     atom   20 type  4   force =     0.00000000    0.00000000    0.00000000
     The SCF correction term to forces
     atom    1 type  1   force =     0.00001754   -0.00004076    0.00005864
     atom    2 type  1   force =     0.00002384    0.00001752   -0.00004520
     atom    3 type  1   force =    -0.00000072    0.00000308    0.00003843
     atom    4 type  1   force =    -0.00000565   -0.00003433    0.00003943
     atom    5 type  1   force =    -0.00000670    0.00002407    0.00001167
     atom    6 type  2   force =    -0.00036730   -0.00031492   -0.00026745
     atom    7 type  2   force =     0.00022763    0.00020686   -0.00053942
     atom    8 type  2   force =     0.00013110    0.00033584   -0.00008516
     atom    9 type  3   force =    -0.00015431   -0.00018592   -0.00024055
     atom   10 type  3   force =     0.00007573    0.00026012    0.00024593
     atom   11 type  4   force =    -0.00000446    0.00011791   -0.00048639
     atom   12 type  4   force =    -0.00008881   -0.00014024   -0.00017034
     atom   13 type  4   force =    -0.00008612    0.00002199    0.00003926
     atom   14 type  4   force =    -0.00017498    0.00010169    0.00001281
     atom   15 type  4   force =     0.00001242    0.00001521   -0.00005313
     atom   16 type  4   force =     0.00014144   -0.00005711    0.00031903
     atom   17 type  4   force =     0.00011628   -0.00006918    0.00002433
     atom   18 type  4   force =     0.00005995   -0.00002701    0.00009716
     atom   19 type  4   force =     0.00035582    0.00029942   -0.00002940
     atom   20 type  4   force =    -0.00033847   -0.00021242    0.00033196

     Total force =     0.066953     Total SCF correction =     0.001448


     Computing stress (Cartesian axis) and pressure

          total   stress  (Ry/bohr**3)                   (kbar)     P=     -599.84
  -0.00400451   0.00017148   0.00015235         -589.08       25.23       22.41
   0.00017148  -0.00424664   0.00009073           25.23     -624.70       13.35
   0.00015235   0.00009073  -0.00398180           22.41       13.35     -585.74

     kinetic stress (kbar)  27354.45   -213.36   -169.18
                             -213.36  27634.27    159.12
                             -169.18    159.12  27202.20

     local   stress (kbar) -38887.96  -6636.36  -2998.82
                            -6636.36 -16363.87   -656.37
                            -2998.82   -656.37  -6876.69

     nonloc. stress (kbar)   7996.54    -28.76     -4.62
                              -28.76   7996.50     27.55
                               -4.62     27.55   7997.00

     hartree stress (kbar)  38141.37   2508.86   1222.99
                             2508.86  28630.03    655.38
                             1222.99    655.38  21979.33

     exc-cor stress (kbar)  -3372.93      4.42      0.87
                                4.42  -3379.25     -2.57
                                0.87     -2.57  -3372.70

     corecor stress (kbar)  -5470.64     -0.02      0.46
                               -0.02  -5470.83      0.11
                                0.46      0.11  -5470.21

     ewald   stress (kbar) -26349.91   4390.44   1970.69
                             4390.44 -39671.55   -169.87
                             1970.69   -169.87 -42044.67

     hubbard stress (kbar)      0.00      0.00      0.00
                                0.00      0.00      0.00
                                0.00      0.00      0.00

     DFT-D   stress (kbar)      0.00      0.00      0.00
                                0.00      0.00      0.00
                                0.00      0.00      0.00

     XDM     stress (kbar)      0.00      0.00      0.00
                                0.00      0.00      0.00
                                0.00      0.00      0.00

     dft-nl  stress (kbar)      0.00      0.00      0.00
                                0.00      0.00      0.00
                                0.00      0.00      0.00

     TS-vdW  stress (kbar)      0.00      0.00      0.00
                                0.00      0.00      0.00
                                0.00      0.00      0.00


                                0.00      0.00      0.00
                                0.00      0.00      0.00


                                0.00      0.00      0.00


     Writing all to output data dir calculations/myprefix.save/
 
     init_run     :      0.77s CPU      0.81s WALL (       1 calls)
     electrons    :      2.45s CPU      2.54s WALL (       1 calls)
     forces       :      0.14s CPU      0.14s WALL (       1 calls)
     stress       :      0.29s CPU      0.30s WALL (       1 calls)

     Called by init_run:
     wfcinit      :      0.03s CPU      0.04s WALL (       1 calls)
     wfcinit:atom :      0.00s CPU      0.00s WALL (       1 calls)
     wfcinit:wfcr :      0.03s CPU      0.04s WALL (       1 calls)
     potinit      :      0.40s CPU      0.40s WALL (       1 calls)
     hinit0       :      0.31s CPU      0.33s WALL (       1 calls)

     Called by electrons:
     c_bands      :      1.08s CPU      1.12s WALL (      20 calls)
     sum_band     :      0.36s CPU      0.37s WALL (      20 calls)
     v_of_rho     :      0.08s CPU      0.09s WALL (      21 calls)
     v_h          :      0.00s CPU      0.01s WALL (      21 calls)
     v_xc         :      0.09s CPU      0.09s WALL (      23 calls)
     newd         :      0.23s CPU      0.23s WALL (      21 calls)
     PAW_pot      :      0.70s CPU      0.70s WALL (      21 calls)
     mix_rho      :      0.03s CPU      0.03s WALL (      20 calls)

     Called by c_bands:
     init_us_2    :      0.00s CPU      0.01s WALL (      41 calls)
     init_us_2:cp :      0.00s CPU      0.00s WALL (      41 calls)
     regterg      :      1.06s CPU      1.10s WALL (      20 calls)

     Called by sum_band:
     sum_band:wei :      0.00s CPU      0.00s WALL (      20 calls)
     sum_band:loo :      0.09s CPU      0.10s WALL (      20 calls)
     sum_band:buf :      0.00s CPU      0.00s WALL (      20 calls)
     sum_band:ini :      0.00s CPU      0.00s WALL (      20 calls)
     sum_band:cal :      0.01s CPU      0.01s WALL (      20 calls)
     sum_band:bec :      0.00s CPU      0.00s WALL (      20 calls)
     addusdens    :      0.24s CPU      0.24s WALL (      20 calls)
     addusd:skk   :      0.00s CPU      0.00s WALL (      80 calls)
     addusd:dgemm :      0.08s CPU      0.08s WALL (      80 calls)
     addusd:qvan2 :      0.15s CPU      0.15s WALL (      80 calls)

     Called by *egterg:
     rdiaghg      :      0.59s CPU      0.61s WALL (      82 calls)
     regterg:over :      0.06s CPU      0.06s WALL (      62 calls)
     regterg:upda :      0.02s CPU      0.02s WALL (      62 calls)
     regterg:last :      0.03s CPU      0.04s WALL (      33 calls)
     rdiaghg:chol :      0.03s CPU      0.03s WALL (      82 calls)
     rdiaghg:inve :      0.00s CPU      0.00s WALL (      82 calls)
     rdiaghg:para :      0.04s CPU      0.04s WALL (     164 calls)
     h_psi        :      0.36s CPU      0.39s WALL (      83 calls)
     s_psi        :      0.01s CPU      0.01s WALL (      83 calls)
     g_psi        :      0.00s CPU      0.00s WALL (      62 calls)

     Called by h_psi:
     h_psi:calbec :      0.03s CPU      0.03s WALL (      83 calls)
     vloc_psi     :      0.31s CPU      0.34s WALL (      83 calls)
     add_vuspsi   :      0.01s CPU      0.01s WALL (      83 calls)

     General routines
     calbec       :      0.05s CPU      0.05s WALL (     108 calls)
     fft          :      0.24s CPU      0.25s WALL (     249 calls)
     ffts         :      0.27s CPU      0.27s WALL (      41 calls)
     fftw         :      0.36s CPU      0.39s WALL (    5466 calls)
     interpolate  :      0.27s CPU      0.27s WALL (      21 calls)
 
     Parallel routines

     PAW routines
     PAW_pot      :      0.70s CPU      0.70s WALL (      21 calls)
     PAW_symme    :      0.04s CPU      0.04s WALL (      41 calls)
 
     PWSCF        :      3.95s CPU      4.45s WALL

 
   This run was terminated on:   8:52:20   6Mar2023            

=------------------------------------------------------------------------------=
   JOB DONE.
=------------------------------------------------------------------------------=
