
     Program PWSCF v.7.0 starts on  6Mar2023 at 11:11:58 

     This program is part of the open-source Quantum ESPRESSO suite
     for quantum simulation of materials; please cite
         "P. Giannozzi et al., J. Phys.:Condens. Matter 21 395502 (2009);
         "P. Giannozzi et al., J. Phys.:Condens. Matter 29 465901 (2017);
         "P. Giannozzi et al., J. Chem. Phys. 152 154105 (2020);
          URL http://www.quantum-espresso.org", 
     in publications or presentations arising from this work. More details at
     http://www.quantum-espresso.org/quote

     Parallel version (MPI & OpenMP), running on      32 processor cores
     Number of MPI processes:                32
     Threads/MPI process:                     1

     MPI processes distributed on     1 nodes
     R & G space division:  proc/nbgrp/npool/nimage =      32
     166056 MiB available memory on the printing compute node when the environment starts
 
     Reading input from espresso_4410.pwi
Warning: card &CELL ignored
Warning: card / ignored

     Current dimensions of program PWSCF are:
     Max number of different atomic species (ntypx) = 10
     Max number of k-points (npk) =  40000
     Max angular momentum in pseudopotentials (lmaxx) =  4
     file O.pbe-n-kjpaw_psl.0.1.UPF: wavefunction(s)  2P renormalized

     gamma-point specific algorithms are used
     Message from routine setup:
     using ibrav=0 with symmetry is DISCOURAGED, use correct ibrav instead

     Subspace diagonalization in iterative solution of the eigenvalue problem:
     one sub-group per band group will be used
     scalapack distributed-memory algorithm (size of sub-group:  5*  5 procs)

 
     Parallelization info
     --------------------
     sticks:   dense  smooth     PW     G-vecs:    dense   smooth      PW
     Min         115      57     13                 1980      698      86
     Max         118      60     16                 1984      702      88
     Sum        3725    1863    457                63417    22413    2805
 
     Using Slab Decomposition
 


     bravais-lattice index     =            0
     lattice parameter (alat)  =      19.5556  a.u.
     unit-cell volume          =    1010.1845 (a.u.)^3
     number of atoms/cell      =           11
     number of atomic types    =            5
     number of electrons       =       109.00
     number of Kohn-Sham states=           66
     kinetic-energy cutoff     =      30.0000  Ry
     charge density cutoff     =     240.0000  Ry
     scf convergence threshold =      1.0E-06
     mixing beta               =       0.7000
     number of iterations used =            8  plain     mixing
     Exchange-correlation= SLA  PW   PBX  PBC
                           (   1   4   3   4   0   0   0)

     celldm(1)=  19.555557  celldm(2)=   0.000000  celldm(3)=   0.000000
     celldm(4)=   0.000000  celldm(5)=   0.000000  celldm(6)=   0.000000

     crystal axes: (cart. coord. in units of alat)
               a(1) = (   1.000000   0.000000   0.000000 )  
               a(2) = (   0.859926   0.510419   0.000000 )  
               a(3) = (  -0.929963  -0.255209   0.264645 )  

     reciprocal axes: (cart. coord. in units 2 pi/alat)
               b(1) = (  1.000000 -1.684747  1.889324 )  
               b(2) = (  0.000000  1.959176  1.889324 )  
               b(3) = (  0.000000  0.000000  3.778647 )  


     PseudoPot. # 1 for Sr read from file:
     /home/pragov/projects/rrg-bengioy-ad/pragov/crystal_structure_design/SSSP/Sr_pbe_v1.uspp.F.UPF
     MD5 check sum: 6b418c05fbe9db5448babca5e47b7a5b
     Pseudo is Ultrasoft + core correction, Zval = 10.0
     Generated by new atomic code, or converted to UPF format
     Using radial grid of  883 points,  6 beta functions with: 
                l(1) =   0
                l(2) =   0
                l(3) =   1
                l(4) =   1
                l(5) =   2
                l(6) =   2
     Q(r) pseudized with  6 coefficients,  rinner =    1.400   1.400   1.400
                                                       1.400   1.400

     PseudoPot. # 2 for La read from file:
     /home/pragov/projects/rrg-bengioy-ad/pragov/crystal_structure_design/SSSP/La.GGA-PBE-paw-v1.0.UPF
     MD5 check sum: 436541e95c1ad8901025bd0b0ed42ae2
     Pseudo is Projector augmented-wave + core cor, Zval = 11.0
     Generated using ATOMPAW code
     Shape of augmentation charge: BESSEL
     Using radial grid of 1101 points,  8 beta functions with: 
                l(1) =   0
                l(2) =   0
                l(3) =   1
                l(4) =   1
                l(5) =   2
                l(6) =   2
                l(7) =   3
                l(8) =   3
     Q(r) pseudized with 0 coefficients 


     PseudoPot. # 3 for Nd read from file:
     /home/pragov/projects/rrg-bengioy-ad/pragov/crystal_structure_design/SSSP/Nd.GGA-PBE-paw-v1.0.UPF
     MD5 check sum: 1d1e94942b6eb1cde76049b71bb7dcb0
     Pseudo is Projector augmented-wave + core cor, Zval = 14.0
     Generated using ATOMPAW code
     Shape of augmentation charge: BESSEL
     Using radial grid of 1105 points,  8 beta functions with: 
                l(1) =   0
                l(2) =   0
                l(3) =   1
                l(4) =   1
                l(5) =   2
                l(6) =   2
                l(7) =   3
                l(8) =   3
     Q(r) pseudized with 0 coefficients 


     PseudoPot. # 4 for Cu read from file:
     /home/pragov/projects/rrg-bengioy-ad/pragov/crystal_structure_design/SSSP/Cu_pbe_v1.2.uspp.F.UPF
     MD5 check sum: 6e991ff952a84172a2a52a1c1e996048
     Pseudo is Ultrasoft + core correction, Zval = 19.0
     Generated by new atomic code, or converted to UPF format
     Using radial grid of  867 points,  6 beta functions with: 
                l(1) =   0
                l(2) =   0
                l(3) =   1
                l(4) =   1
                l(5) =   2
                l(6) =   2
     Q(r) pseudized with  8 coefficients,  rinner =    1.150   1.150   1.150
                                                       1.150   1.150

     PseudoPot. # 5 for O  read from file:
     /home/pragov/projects/rrg-bengioy-ad/pragov/crystal_structure_design/SSSP/O.pbe-n-kjpaw_psl.0.1.UPF
     MD5 check sum: 0234752ac141de4415c5fc33072bef88
     Pseudo is Projector augmented-wave + core cor, Zval =  6.0
     Generated using "atomic" code by A. Dal Corso  v.5.0.99 svn rev. 10869
     Shape of augmentation charge: BESSEL
     Using radial grid of 1095 points,  4 beta functions with: 
                l(1) =   0
                l(2) =   0
                l(3) =   1
                l(4) =   1
     Q(r) pseudized with 0 coefficients 


     atomic species   valence    mass     pseudopotential
        Sr            10.00    87.62000     Sr( 1.00)
        La            11.00   138.90547     La( 1.00)
        Nd            14.00   144.24200     Nd( 1.00)
        Cu            19.00    63.54600     Cu( 1.00)
        O              6.00    15.99900     O ( 1.00)

      2 Sym. Ops. (no inversion) found


                                    s                        frac. trans.

      isym =  1     identity                                     

 cryst.   s( 1) = (     1          0          0      )
                  (     0          1          0      )
                  (     0          0          1      )

 cart.    s( 1) = (  1.0000000 -0.0000000  0.0000000 )
                  (  0.0000000  1.0000000  0.0000000 )
                  (  0.0000000  0.0000000  1.0000000 )


      isym =  2     inv. 180 deg rotation - cart. axis [0,0,1]   

 cryst.   s( 2) = (     1          0          0      )
                  (     0          1          0      )
                  (    -1         -1         -1      )

 cart.    s( 2) = (  1.0000000 -0.0000000  0.0000000 )
                  (  0.0000000  1.0000000  0.0000000 )
                  (  0.0000000  0.0000000 -1.0000000 )


   Cartesian axes

     site n.     atom                  positions (alat units)
         1           Sr  tau(   1) = (   1.5268133   0.4190026   0.0000000  )
         2           La  tau(   2) = (   0.3388358   0.0929865   0.0000000  )
         3           Nd  tau(   3) = (   1.8588287   0.5101174   0.0000000  )
         4           Cu  tau(   4) = (   0.7619373   0.2090981   0.0000000  )
         5           Cu  tau(   5) = (   1.0945479   0.3003762   0.0000000  )
         6           O   tau(   6) = (   0.5451053   0.1495930   0.0000000  )
         7           O   tau(   7) = (   1.3000400   0.3567693   0.0000000  )
         8           O   tau(   8) = (   0.8226172   0.0885357   0.1323225  )
         9           O   tau(   9) = (   0.7525802   0.3437450   0.1323225  )
        10           O   tau(  10) = (   0.1141439   0.1685392   0.1323225  )
        11           O   tau(  11) = (   0.1841808  -0.0866701   0.1323225  )

   Crystallographic axes

     site n.     atom                  positions (cryst. coord.)
         1           Sr  tau(   1) = (  0.8209000  0.8209000  0.0000000  )
         2           La  tau(   2) = (  0.1821770  0.1821770  0.0000000  )
         3           Nd  tau(   3) = (  0.9994100  0.9994100  0.0000000  )
         4           Cu  tau(   4) = (  0.4096600  0.4096600  0.0000000  )
         5           Cu  tau(   5) = (  0.5884900  0.5884900  0.0000000  )
         6           O   tau(   6) = (  0.2930790  0.2930790  0.0000000  )
         7           O   tau(   7) = (  0.6989740  0.6989740  0.0000000  )
         8           O   tau(   8) = (  0.9234570  0.4234570  0.5000000  )
         9           O   tau(   9) = (  0.4234570  0.9234570  0.5000000  )
        10           O   tau(  10) = (  0.0801980  0.5801980  0.5000000  )
        11           O   tau(  11) = (  0.5801980  0.0801980  0.5000000  )

     number of k points=     1  Methfessel-Paxton smearing, width (Ry)=  0.0010
                       cart. coord. in units 2pi/alat
        k(    1) = (   0.0000000   0.0000000   0.0000000), wk =   2.0000000

                       cryst. coord.
        k(    1) = (   0.0000000   0.0000000   0.0000000), wk =   2.0000000

     Dense  grid:    31709 G-vectors     FFT dimensions: ( 100, 100, 100)

     Smooth grid:    11207 G-vectors     FFT dimensions: (  72,  72,  72)

     Dynamical RAM for                 wfc:       0.04 MB

     Dynamical RAM for     wfc (w. buffer):       0.04 MB

     Dynamical RAM for           str. fact:       0.08 MB

     Dynamical RAM for           local pot:       0.00 MB

     Dynamical RAM for          nlocal pot:       0.11 MB

     Dynamical RAM for                qrad:      14.93 MB

     Dynamical RAM for          rho,v,vnew:       0.96 MB

     Dynamical RAM for               rhoin:       0.32 MB

     Dynamical RAM for            rho*nmix:       0.24 MB

     Dynamical RAM for           G-vectors:       0.06 MB

     Dynamical RAM for          h,s,v(r/c):       0.02 MB

     Dynamical RAM for          <psi|beta>:       0.08 MB

     Dynamical RAM for                 psi:       0.09 MB

     Dynamical RAM for                hpsi:       0.09 MB

     Dynamical RAM for                spsi:       0.09 MB

     Dynamical RAM for      wfcinit/wfcrot:       0.54 MB

     Dynamical RAM for           addusdens:       8.48 MB

     Dynamical RAM for          addusforce:       8.71 MB

     Dynamical RAM for         addusstress:       8.80 MB

     Estimated static dynamical RAM per process >      18.11 MB

     Estimated max dynamical RAM per process >      27.16 MB

     Estimated total dynamical RAM >     869.01 MB

     Check: negative core charge=   -0.000011

     Initial potential from superposition of free atoms

     starting charge     106.9516, renormalised to     109.0000

     negative rho (up, down):  6.450E-02 0.000E+00
     Starting wfcs are  127 randomized atomic wfcs
     Checking if some PAW data can be deallocated... 
       PAW data deallocated on   29 nodes for type:  2
       PAW data deallocated on   29 nodes for type:  3
       PAW data deallocated on   15 nodes for type:  5

     total cpu time spent up to now is        2.4 secs

     Self-consistent Calculation

     iteration #  1     ecut=    30.00 Ry     beta= 0.70
     Davidson diagonalization with overlap

---- Real-time Memory Report at c_bands before calling an iterative solver
           171 MiB given to the printing process from OS
             0 MiB allocation reported by mallinfo(arena+hblkhd)
        164062 MiB available memory on the node where the printing process lives
------------------
     ethr =  1.00E-02,  avg # of iterations =  2.0

     negative rho (up, down):  6.427E-02 0.000E+00

     total cpu time spent up to now is        2.9 secs

     total energy              =   -2115.38930018 Ry
     estimated scf accuracy    <       9.62753119 Ry

     iteration #  2     ecut=    30.00 Ry     beta= 0.70
     Davidson diagonalization with overlap

---- Real-time Memory Report at c_bands before calling an iterative solver
           182 MiB given to the printing process from OS
             0 MiB allocation reported by mallinfo(arena+hblkhd)
        163902 MiB available memory on the node where the printing process lives
------------------
     ethr =  8.83E-03,  avg # of iterations =  5.0

     negative rho (up, down):  6.451E-02 0.000E+00

     total cpu time spent up to now is        3.3 secs

     total energy              =   -2108.02216741 Ry
     estimated scf accuracy    <     466.96327232 Ry

     iteration #  3     ecut=    30.00 Ry     beta= 0.70
     Davidson diagonalization with overlap

---- Real-time Memory Report at c_bands before calling an iterative solver
           183 MiB given to the printing process from OS
             0 MiB allocation reported by mallinfo(arena+hblkhd)
        163826 MiB available memory on the node where the printing process lives
------------------
     ethr =  8.83E-03,  avg # of iterations =  9.0

     negative rho (up, down):  6.479E-02 0.000E+00

     total cpu time spent up to now is        3.8 secs

     total energy              =   -2114.16607686 Ry
     estimated scf accuracy    <     126.26411209 Ry

     iteration #  4     ecut=    30.00 Ry     beta= 0.70
     Davidson diagonalization with overlap

---- Real-time Memory Report at c_bands before calling an iterative solver
           184 MiB given to the printing process from OS
             0 MiB allocation reported by mallinfo(arena+hblkhd)
        163819 MiB available memory on the node where the printing process lives
------------------
     ethr =  8.83E-03,  avg # of iterations =  8.0

     negative rho (up, down):  6.558E-02 0.000E+00

     total cpu time spent up to now is        4.3 secs

     total energy              =   -2122.81836550 Ry
     estimated scf accuracy    <       5.80730979 Ry

     iteration #  5     ecut=    30.00 Ry     beta= 0.70
     Davidson diagonalization with overlap

---- Real-time Memory Report at c_bands before calling an iterative solver
           185 MiB given to the printing process from OS
             0 MiB allocation reported by mallinfo(arena+hblkhd)
        163819 MiB available memory on the node where the printing process lives
------------------
     ethr =  5.33E-03,  avg # of iterations =  2.0

     negative rho (up, down):  6.590E-02 0.000E+00

     total cpu time spent up to now is        4.7 secs

     total energy              =   -2123.11501872 Ry
     estimated scf accuracy    <       0.94889566 Ry

     iteration #  6     ecut=    30.00 Ry     beta= 0.70
     Davidson diagonalization with overlap

---- Real-time Memory Report at c_bands before calling an iterative solver
           185 MiB given to the printing process from OS
             0 MiB allocation reported by mallinfo(arena+hblkhd)
        163815 MiB available memory on the node where the printing process lives
------------------
     ethr =  8.71E-04,  avg # of iterations =  2.0

     negative rho (up, down):  6.635E-02 0.000E+00

     total cpu time spent up to now is        5.1 secs

     total energy              =   -2123.06507019 Ry
     estimated scf accuracy    <       1.21295283 Ry

     iteration #  7     ecut=    30.00 Ry     beta= 0.70
     Davidson diagonalization with overlap

---- Real-time Memory Report at c_bands before calling an iterative solver
           186 MiB given to the printing process from OS
             0 MiB allocation reported by mallinfo(arena+hblkhd)
        163815 MiB available memory on the node where the printing process lives
------------------
     ethr =  8.71E-04,  avg # of iterations =  1.0

     negative rho (up, down):  6.635E-02 0.000E+00

     total cpu time spent up to now is        5.5 secs

     total energy              =   -2123.23252952 Ry
     estimated scf accuracy    <      32.95215999 Ry

     iteration #  8     ecut=    30.00 Ry     beta= 0.70
     Davidson diagonalization with overlap

---- Real-time Memory Report at c_bands before calling an iterative solver
           186 MiB given to the printing process from OS
             0 MiB allocation reported by mallinfo(arena+hblkhd)
        163809 MiB available memory on the node where the printing process lives
------------------
     ethr =  8.71E-04,  avg # of iterations =  1.0

     negative rho (up, down):  6.636E-02 0.000E+00

     total cpu time spent up to now is        5.9 secs

     total energy              =   -2123.22232980 Ry
     estimated scf accuracy    <      14.07601588 Ry

     iteration #  9     ecut=    30.00 Ry     beta= 0.70
     Davidson diagonalization with overlap

---- Real-time Memory Report at c_bands before calling an iterative solver
           187 MiB given to the printing process from OS
             0 MiB allocation reported by mallinfo(arena+hblkhd)
        163804 MiB available memory on the node where the printing process lives
------------------
     ethr =  8.71E-04,  avg # of iterations =  1.0

     negative rho (up, down):  6.639E-02 0.000E+00

     total cpu time spent up to now is        6.4 secs

     total energy              =   -2123.31803084 Ry
     estimated scf accuracy    <      23.33421723 Ry

     iteration # 10     ecut=    30.00 Ry     beta= 0.70
     Davidson diagonalization with overlap

---- Real-time Memory Report at c_bands before calling an iterative solver
           187 MiB given to the printing process from OS
             0 MiB allocation reported by mallinfo(arena+hblkhd)
        163805 MiB available memory on the node where the printing process lives
------------------
     ethr =  8.71E-04,  avg # of iterations =  1.0

     negative rho (up, down):  6.659E-02 0.000E+00

     total cpu time spent up to now is        6.8 secs

     total energy              =   -2123.37610144 Ry
     estimated scf accuracy    <      20.32191189 Ry

     iteration # 11     ecut=    30.00 Ry     beta= 0.70
     Davidson diagonalization with overlap

---- Real-time Memory Report at c_bands before calling an iterative solver
           187 MiB given to the printing process from OS
             0 MiB allocation reported by mallinfo(arena+hblkhd)
        163804 MiB available memory on the node where the printing process lives
------------------
     ethr =  8.71E-04,  avg # of iterations =  1.0

     negative rho (up, down):  6.661E-02 0.000E+00

     total cpu time spent up to now is        7.2 secs

     total energy              =   -2122.69366785 Ry
     estimated scf accuracy    <      57.74839714 Ry

     iteration # 12     ecut=    30.00 Ry     beta= 0.70
     Davidson diagonalization with overlap

---- Real-time Memory Report at c_bands before calling an iterative solver
           187 MiB given to the printing process from OS
             0 MiB allocation reported by mallinfo(arena+hblkhd)
        163804 MiB available memory on the node where the printing process lives
------------------
     ethr =  8.71E-04,  avg # of iterations =  2.0

     negative rho (up, down):  6.676E-02 0.000E+00

     total cpu time spent up to now is        7.6 secs

     total energy              =   -2123.11853259 Ry
     estimated scf accuracy    <       0.79954813 Ry

     iteration # 13     ecut=    30.00 Ry     beta= 0.70
     Davidson diagonalization with overlap

---- Real-time Memory Report at c_bands before calling an iterative solver
           187 MiB given to the printing process from OS
             0 MiB allocation reported by mallinfo(arena+hblkhd)
        163804 MiB available memory on the node where the printing process lives
------------------
     ethr =  7.34E-04,  avg # of iterations =  2.0

     negative rho (up, down):  6.684E-02 0.000E+00

     total cpu time spent up to now is        8.0 secs

     total energy              =   -2123.11805306 Ry
     estimated scf accuracy    <      10.47651666 Ry

     iteration # 14     ecut=    30.00 Ry     beta= 0.70
     Davidson diagonalization with overlap

---- Real-time Memory Report at c_bands before calling an iterative solver
           187 MiB given to the printing process from OS
             0 MiB allocation reported by mallinfo(arena+hblkhd)
        163805 MiB available memory on the node where the printing process lives
------------------
     ethr =  7.34E-04,  avg # of iterations =  1.0

     negative rho (up, down):  6.688E-02 0.000E+00

     total cpu time spent up to now is        8.4 secs

     total energy              =   -2123.15567223 Ry
     estimated scf accuracy    <       0.20293292 Ry

     iteration # 15     ecut=    30.00 Ry     beta= 0.70
     Davidson diagonalization with overlap

---- Real-time Memory Report at c_bands before calling an iterative solver
           188 MiB given to the printing process from OS
             0 MiB allocation reported by mallinfo(arena+hblkhd)
        163805 MiB available memory on the node where the printing process lives
------------------
     ethr =  1.86E-04,  avg # of iterations =  2.0

     negative rho (up, down):  6.695E-02 0.000E+00

     total cpu time spent up to now is        8.8 secs

     total energy              =   -2123.14990688 Ry
     estimated scf accuracy    <       4.57972820 Ry

     iteration # 16     ecut=    30.00 Ry     beta= 0.70
     Davidson diagonalization with overlap

---- Real-time Memory Report at c_bands before calling an iterative solver
           188 MiB given to the printing process from OS
             0 MiB allocation reported by mallinfo(arena+hblkhd)
        163808 MiB available memory on the node where the printing process lives
------------------
     ethr =  1.86E-04,  avg # of iterations =  1.0

     negative rho (up, down):  6.699E-02 0.000E+00

     total cpu time spent up to now is        9.2 secs

     total energy              =   -2123.14150531 Ry
     estimated scf accuracy    <       0.11209758 Ry

     iteration # 17     ecut=    30.00 Ry     beta= 0.70
     Davidson diagonalization with overlap

---- Real-time Memory Report at c_bands before calling an iterative solver
           188 MiB given to the printing process from OS
             0 MiB allocation reported by mallinfo(arena+hblkhd)
        163808 MiB available memory on the node where the printing process lives
------------------
     ethr =  1.03E-04,  avg # of iterations =  8.0

     negative rho (up, down):  6.707E-02 0.000E+00

     total cpu time spent up to now is        9.9 secs

     total energy              =   -2123.10810410 Ry
     estimated scf accuracy    <       1.20106199 Ry

     iteration # 18     ecut=    30.00 Ry     beta= 0.70
     Davidson diagonalization with overlap

---- Real-time Memory Report at c_bands before calling an iterative solver
           188 MiB given to the printing process from OS
             0 MiB allocation reported by mallinfo(arena+hblkhd)
        163803 MiB available memory on the node where the printing process lives
------------------
     ethr =  1.03E-04,  avg # of iterations =  2.0

     negative rho (up, down):  6.697E-02 0.000E+00

     total cpu time spent up to now is       10.4 secs

     total energy              =   -2123.08703493 Ry
     estimated scf accuracy    <       2.12483394 Ry

     iteration # 19     ecut=    30.00 Ry     beta= 0.70
     Davidson diagonalization with overlap

---- Real-time Memory Report at c_bands before calling an iterative solver
           188 MiB given to the printing process from OS
             0 MiB allocation reported by mallinfo(arena+hblkhd)
        163804 MiB available memory on the node where the printing process lives
------------------
     ethr =  1.03E-04,  avg # of iterations =  2.0

     negative rho (up, down):  6.699E-02 0.000E+00

     total cpu time spent up to now is       10.8 secs

     total energy              =   -2123.16057926 Ry
     estimated scf accuracy    <       0.22187816 Ry

     iteration # 20     ecut=    30.00 Ry     beta= 0.70
     Davidson diagonalization with overlap

---- Real-time Memory Report at c_bands before calling an iterative solver
           188 MiB given to the printing process from OS
             0 MiB allocation reported by mallinfo(arena+hblkhd)
        163804 MiB available memory on the node where the printing process lives
------------------
     ethr =  1.03E-04,  avg # of iterations =  1.0

     negative rho (up, down):  6.700E-02 0.000E+00

     total cpu time spent up to now is       11.2 secs

     total energy              =   -2123.16214020 Ry
     estimated scf accuracy    <       0.35443893 Ry

     iteration # 21     ecut=    30.00 Ry     beta= 0.70
     Davidson diagonalization with overlap

---- Real-time Memory Report at c_bands before calling an iterative solver
           188 MiB given to the printing process from OS
             0 MiB allocation reported by mallinfo(arena+hblkhd)
        163804 MiB available memory on the node where the printing process lives
------------------
     ethr =  1.03E-04,  avg # of iterations =  1.0

     negative rho (up, down):  6.702E-02 0.000E+00

     total cpu time spent up to now is       11.6 secs

     total energy              =   -2123.16137878 Ry
     estimated scf accuracy    <       0.26222007 Ry

     iteration # 22     ecut=    30.00 Ry     beta= 0.70
     Davidson diagonalization with overlap

---- Real-time Memory Report at c_bands before calling an iterative solver
           188 MiB given to the printing process from OS
             0 MiB allocation reported by mallinfo(arena+hblkhd)
        163805 MiB available memory on the node where the printing process lives
------------------
     ethr =  1.03E-04,  avg # of iterations =  1.0

     negative rho (up, down):  6.702E-02 0.000E+00

     total cpu time spent up to now is       12.0 secs

     total energy              =   -2123.15668579 Ry
     estimated scf accuracy    <       0.23070587 Ry

     iteration # 23     ecut=    30.00 Ry     beta= 0.70
     Davidson diagonalization with overlap

---- Real-time Memory Report at c_bands before calling an iterative solver
           188 MiB given to the printing process from OS
             0 MiB allocation reported by mallinfo(arena+hblkhd)
        163805 MiB available memory on the node where the printing process lives
------------------
     ethr =  1.03E-04,  avg # of iterations =  1.0

     negative rho (up, down):  6.702E-02 0.000E+00

     total cpu time spent up to now is       12.4 secs

     total energy              =   -2123.15922954 Ry
     estimated scf accuracy    <       0.32734450 Ry

     iteration # 24     ecut=    30.00 Ry     beta= 0.70
     Davidson diagonalization with overlap

---- Real-time Memory Report at c_bands before calling an iterative solver
           188 MiB given to the printing process from OS
             0 MiB allocation reported by mallinfo(arena+hblkhd)
        163835 MiB available memory on the node where the printing process lives
------------------
     ethr =  1.03E-04,  avg # of iterations =  1.0

     negative rho (up, down):  6.702E-02 0.000E+00

     total cpu time spent up to now is       12.9 secs

     total energy              =   -2123.15176115 Ry
     estimated scf accuracy    <       0.10121767 Ry

     iteration # 25     ecut=    30.00 Ry     beta= 0.70
     Davidson diagonalization with overlap

---- Real-time Memory Report at c_bands before calling an iterative solver
           188 MiB given to the printing process from OS
             0 MiB allocation reported by mallinfo(arena+hblkhd)
        163805 MiB available memory on the node where the printing process lives
------------------
     ethr =  9.29E-05,  avg # of iterations =  2.0

     negative rho (up, down):  6.702E-02 0.000E+00

     total cpu time spent up to now is       13.3 secs

     total energy              =   -2123.12244513 Ry
     estimated scf accuracy    <       5.23458194 Ry

     iteration # 26     ecut=    30.00 Ry     beta= 0.70
     Davidson diagonalization with overlap

---- Real-time Memory Report at c_bands before calling an iterative solver
           188 MiB given to the printing process from OS
             0 MiB allocation reported by mallinfo(arena+hblkhd)
        163805 MiB available memory on the node where the printing process lives
------------------
     ethr =  9.29E-05,  avg # of iterations =  1.0

     negative rho (up, down):  6.702E-02 0.000E+00

     total cpu time spent up to now is       13.7 secs

     total energy              =   -2123.14928488 Ry
     estimated scf accuracy    <       0.09283102 Ry

     iteration # 27     ecut=    30.00 Ry     beta= 0.70
     Davidson diagonalization with overlap

---- Real-time Memory Report at c_bands before calling an iterative solver
           188 MiB given to the printing process from OS
             0 MiB allocation reported by mallinfo(arena+hblkhd)
        163806 MiB available memory on the node where the printing process lives
------------------
     ethr =  8.52E-05,  avg # of iterations =  1.0

     negative rho (up, down):  6.701E-02 0.000E+00

     total cpu time spent up to now is       14.1 secs

     total energy              =   -2123.14394617 Ry
     estimated scf accuracy    <       0.16062817 Ry

     iteration # 28     ecut=    30.00 Ry     beta= 0.70
     Davidson diagonalization with overlap

---- Real-time Memory Report at c_bands before calling an iterative solver
           188 MiB given to the printing process from OS
             0 MiB allocation reported by mallinfo(arena+hblkhd)
        163806 MiB available memory on the node where the printing process lives
------------------
     ethr =  8.52E-05,  avg # of iterations =  3.0

     negative rho (up, down):  6.702E-02 0.000E+00

     total cpu time spent up to now is       14.5 secs

     total energy              =   -2123.02679493 Ry
     estimated scf accuracy    <      17.81670043 Ry

     iteration # 29     ecut=    30.00 Ry     beta= 0.70
     Davidson diagonalization with overlap

---- Real-time Memory Report at c_bands before calling an iterative solver
           188 MiB given to the printing process from OS
             0 MiB allocation reported by mallinfo(arena+hblkhd)
        163806 MiB available memory on the node where the printing process lives
------------------
     ethr =  8.52E-05,  avg # of iterations =  3.0

     negative rho (up, down):  6.702E-02 0.000E+00

     total cpu time spent up to now is       14.9 secs

     total energy              =   -2123.15493790 Ry
     estimated scf accuracy    <       0.13793682 Ry

     iteration # 30     ecut=    30.00 Ry     beta= 0.70
     Davidson diagonalization with overlap

---- Real-time Memory Report at c_bands before calling an iterative solver
           188 MiB given to the printing process from OS
             0 MiB allocation reported by mallinfo(arena+hblkhd)
        163807 MiB available memory on the node where the printing process lives
------------------
     ethr =  8.52E-05,  avg # of iterations =  1.0

     negative rho (up, down):  6.702E-02 0.000E+00

     total cpu time spent up to now is       15.3 secs

     total energy              =   -2123.15621072 Ry
     estimated scf accuracy    <       0.05045161 Ry

     iteration # 31     ecut=    30.00 Ry     beta= 0.70
     Davidson diagonalization with overlap

---- Real-time Memory Report at c_bands before calling an iterative solver
           188 MiB given to the printing process from OS
             0 MiB allocation reported by mallinfo(arena+hblkhd)
        163807 MiB available memory on the node where the printing process lives
------------------
     ethr =  4.63E-05,  avg # of iterations =  1.0

     negative rho (up, down):  6.702E-02 0.000E+00

     total cpu time spent up to now is       15.7 secs

     total energy              =   -2123.15602708 Ry
     estimated scf accuracy    <       0.06418422 Ry

     iteration # 32     ecut=    30.00 Ry     beta= 0.70
     Davidson diagonalization with overlap

---- Real-time Memory Report at c_bands before calling an iterative solver
           188 MiB given to the printing process from OS
             0 MiB allocation reported by mallinfo(arena+hblkhd)
        163807 MiB available memory on the node where the printing process lives
------------------
     ethr =  4.63E-05,  avg # of iterations =  1.0

     negative rho (up, down):  6.702E-02 0.000E+00

     total cpu time spent up to now is       16.2 secs

     total energy              =   -2123.15509241 Ry
     estimated scf accuracy    <       0.05962392 Ry

     iteration # 33     ecut=    30.00 Ry     beta= 0.70
     Davidson diagonalization with overlap

---- Real-time Memory Report at c_bands before calling an iterative solver
           188 MiB given to the printing process from OS
             0 MiB allocation reported by mallinfo(arena+hblkhd)
        163808 MiB available memory on the node where the printing process lives
------------------
     ethr =  4.63E-05,  avg # of iterations =  1.0

     negative rho (up, down):  6.702E-02 0.000E+00

     total cpu time spent up to now is       16.6 secs

     total energy              =   -2123.15612349 Ry
     estimated scf accuracy    <       0.06031690 Ry

     iteration # 34     ecut=    30.00 Ry     beta= 0.70
     Davidson diagonalization with overlap

---- Real-time Memory Report at c_bands before calling an iterative solver
           188 MiB given to the printing process from OS
             0 MiB allocation reported by mallinfo(arena+hblkhd)
        163808 MiB available memory on the node where the printing process lives
------------------
     ethr =  4.63E-05,  avg # of iterations =  1.0

     negative rho (up, down):  6.701E-02 0.000E+00

     total cpu time spent up to now is       17.0 secs

     total energy              =   -2123.15384537 Ry
     estimated scf accuracy    <       0.03459675 Ry

     iteration # 35     ecut=    30.00 Ry     beta= 0.70
     Davidson diagonalization with overlap

---- Real-time Memory Report at c_bands before calling an iterative solver
           188 MiB given to the printing process from OS
             0 MiB allocation reported by mallinfo(arena+hblkhd)
        163808 MiB available memory on the node where the printing process lives
------------------
     ethr =  3.17E-05,  avg # of iterations =  3.0

     negative rho (up, down):  6.702E-02 0.000E+00

     total cpu time spent up to now is       17.4 secs

     total energy              =   -2123.10683397 Ry
     estimated scf accuracy    <      14.21773812 Ry

     iteration # 36     ecut=    30.00 Ry     beta= 0.70
     Davidson diagonalization with overlap

---- Real-time Memory Report at c_bands before calling an iterative solver
           189 MiB given to the printing process from OS
             0 MiB allocation reported by mallinfo(arena+hblkhd)
        163808 MiB available memory on the node where the printing process lives
------------------
     ethr =  3.17E-05,  avg # of iterations =  2.0

     negative rho (up, down):  6.702E-02 0.000E+00

     total cpu time spent up to now is       17.8 secs

     total energy              =   -2123.15587724 Ry
     estimated scf accuracy    <       0.02800269 Ry

     iteration # 37     ecut=    30.00 Ry     beta= 0.70
     Davidson diagonalization with overlap

---- Real-time Memory Report at c_bands before calling an iterative solver
           189 MiB given to the printing process from OS
             0 MiB allocation reported by mallinfo(arena+hblkhd)
        163808 MiB available memory on the node where the printing process lives
------------------
     ethr =  2.57E-05,  avg # of iterations =  1.0

     negative rho (up, down):  6.703E-02 0.000E+00

     total cpu time spent up to now is       18.2 secs

     total energy              =   -2123.15451657 Ry
     estimated scf accuracy    <       0.02464256 Ry

     iteration # 38     ecut=    30.00 Ry     beta= 0.70
     Davidson diagonalization with overlap

---- Real-time Memory Report at c_bands before calling an iterative solver
           189 MiB given to the printing process from OS
             0 MiB allocation reported by mallinfo(arena+hblkhd)
        163808 MiB available memory on the node where the printing process lives
------------------
     ethr =  2.26E-05,  avg # of iterations =  2.0

     negative rho (up, down):  6.701E-02 0.000E+00

     total cpu time spent up to now is       18.6 secs

     total energy              =   -2123.14715176 Ry
     estimated scf accuracy    <       4.67496142 Ry

     iteration # 39     ecut=    30.00 Ry     beta= 0.70
     Davidson diagonalization with overlap

---- Real-time Memory Report at c_bands before calling an iterative solver
           189 MiB given to the printing process from OS
             0 MiB allocation reported by mallinfo(arena+hblkhd)
        163808 MiB available memory on the node where the printing process lives
------------------
     ethr =  2.26E-05,  avg # of iterations =  1.0

     negative rho (up, down):  6.702E-02 0.000E+00

     total cpu time spent up to now is       19.1 secs

     total energy              =   -2123.15539106 Ry
     estimated scf accuracy    <       0.08116200 Ry

     iteration # 40     ecut=    30.00 Ry     beta= 0.70
     Davidson diagonalization with overlap

---- Real-time Memory Report at c_bands before calling an iterative solver
           189 MiB given to the printing process from OS
             0 MiB allocation reported by mallinfo(arena+hblkhd)
        163808 MiB available memory on the node where the printing process lives
------------------
     ethr =  2.26E-05,  avg # of iterations =  1.0

     negative rho (up, down):  6.702E-02 0.000E+00

     total cpu time spent up to now is       19.5 secs

     total energy              =   -2123.15480465 Ry
     estimated scf accuracy    <       0.01993199 Ry

     iteration # 41     ecut=    30.00 Ry     beta= 0.70
     Davidson diagonalization with overlap

---- Real-time Memory Report at c_bands before calling an iterative solver
           189 MiB given to the printing process from OS
             0 MiB allocation reported by mallinfo(arena+hblkhd)
        163808 MiB available memory on the node where the printing process lives
------------------
     ethr =  1.83E-05,  avg # of iterations =  1.0

     negative rho (up, down):  6.702E-02 0.000E+00

     total cpu time spent up to now is       19.9 secs

     total energy              =   -2123.15613555 Ry
     estimated scf accuracy    <       0.03702670 Ry

     iteration # 42     ecut=    30.00 Ry     beta= 0.70
     Davidson diagonalization with overlap

---- Real-time Memory Report at c_bands before calling an iterative solver
           189 MiB given to the printing process from OS
             0 MiB allocation reported by mallinfo(arena+hblkhd)
        163808 MiB available memory on the node where the printing process lives
------------------
     ethr =  1.83E-05,  avg # of iterations =  1.0

     negative rho (up, down):  6.702E-02 0.000E+00

     total cpu time spent up to now is       20.3 secs

     total energy              =   -2123.15623650 Ry
     estimated scf accuracy    <       0.03045515 Ry

     iteration # 43     ecut=    30.00 Ry     beta= 0.70
     Davidson diagonalization with overlap

---- Real-time Memory Report at c_bands before calling an iterative solver
           189 MiB given to the printing process from OS
             0 MiB allocation reported by mallinfo(arena+hblkhd)
        163808 MiB available memory on the node where the printing process lives
------------------
     ethr =  1.83E-05,  avg # of iterations =  1.0

     negative rho (up, down):  6.702E-02 0.000E+00

     total cpu time spent up to now is       20.7 secs

     total energy              =   -2123.15569595 Ry
     estimated scf accuracy    <       0.01200303 Ry

     iteration # 44     ecut=    30.00 Ry     beta= 0.70
     Davidson diagonalization with overlap

---- Real-time Memory Report at c_bands before calling an iterative solver
           189 MiB given to the printing process from OS
             0 MiB allocation reported by mallinfo(arena+hblkhd)
        163808 MiB available memory on the node where the printing process lives
------------------
     ethr =  1.10E-05,  avg # of iterations =  1.0

     negative rho (up, down):  6.702E-02 0.000E+00

     total cpu time spent up to now is       21.1 secs

     total energy              =   -2123.15365327 Ry
     estimated scf accuracy    <       0.03396596 Ry

     iteration # 45     ecut=    30.00 Ry     beta= 0.70
     Davidson diagonalization with overlap

---- Real-time Memory Report at c_bands before calling an iterative solver
           189 MiB given to the printing process from OS
             0 MiB allocation reported by mallinfo(arena+hblkhd)
        163837 MiB available memory on the node where the printing process lives
------------------
     ethr =  1.10E-05,  avg # of iterations =  8.0

     negative rho (up, down):  6.702E-02 0.000E+00

     total cpu time spent up to now is       21.6 secs

     total energy              =   -2123.08631409 Ry
     estimated scf accuracy    <      17.27023540 Ry

     iteration # 46     ecut=    30.00 Ry     beta= 0.70
     Davidson diagonalization with overlap

---- Real-time Memory Report at c_bands before calling an iterative solver
           189 MiB given to the printing process from OS
             0 MiB allocation reported by mallinfo(arena+hblkhd)
        163809 MiB available memory on the node where the printing process lives
------------------
     ethr =  1.10E-05,  avg # of iterations =  7.0

     negative rho (up, down):  6.702E-02 0.000E+00

     total cpu time spent up to now is       22.0 secs

     total energy              =   -2123.15412229 Ry
     estimated scf accuracy    <       0.03887388 Ry

     iteration # 47     ecut=    30.00 Ry     beta= 0.70
     Davidson diagonalization with overlap

---- Real-time Memory Report at c_bands before calling an iterative solver
           189 MiB given to the printing process from OS
             0 MiB allocation reported by mallinfo(arena+hblkhd)
        163809 MiB available memory on the node where the printing process lives
------------------
     ethr =  1.10E-05,  avg # of iterations =  1.0

     negative rho (up, down):  6.702E-02 0.000E+00

     total cpu time spent up to now is       22.4 secs

     total energy              =   -2123.15585460 Ry
     estimated scf accuracy    <       0.02983170 Ry

     iteration # 48     ecut=    30.00 Ry     beta= 0.70
     Davidson diagonalization with overlap

---- Real-time Memory Report at c_bands before calling an iterative solver
           189 MiB given to the printing process from OS
             0 MiB allocation reported by mallinfo(arena+hblkhd)
        163809 MiB available memory on the node where the printing process lives
------------------
     ethr =  1.10E-05,  avg # of iterations =  1.0

     negative rho (up, down):  6.702E-02 0.000E+00

     total cpu time spent up to now is       22.8 secs

     total energy              =   -2123.14317195 Ry
     estimated scf accuracy    <       5.49657473 Ry

     iteration # 49     ecut=    30.00 Ry     beta= 0.70
     Davidson diagonalization with overlap

---- Real-time Memory Report at c_bands before calling an iterative solver
           189 MiB given to the printing process from OS
             0 MiB allocation reported by mallinfo(arena+hblkhd)
        163809 MiB available memory on the node where the printing process lives
------------------
     ethr =  1.10E-05,  avg # of iterations =  1.0

     negative rho (up, down):  6.702E-02 0.000E+00

     total cpu time spent up to now is       23.3 secs

     total energy              =   -2123.15535288 Ry
     estimated scf accuracy    <       0.06148407 Ry

     iteration # 50     ecut=    30.00 Ry     beta= 0.70
     Davidson diagonalization with overlap

---- Real-time Memory Report at c_bands before calling an iterative solver
           189 MiB given to the printing process from OS
             0 MiB allocation reported by mallinfo(arena+hblkhd)
        163809 MiB available memory on the node where the printing process lives
------------------
     ethr =  1.10E-05,  avg # of iterations =  1.0

     negative rho (up, down):  6.702E-02 0.000E+00

     total cpu time spent up to now is       23.7 secs

     total energy              =   -2123.14492952 Ry
     estimated scf accuracy    <       4.13122938 Ry

     iteration # 51     ecut=    30.00 Ry     beta= 0.70
     Davidson diagonalization with overlap

---- Real-time Memory Report at c_bands before calling an iterative solver
           189 MiB given to the printing process from OS
             0 MiB allocation reported by mallinfo(arena+hblkhd)
        163809 MiB available memory on the node where the printing process lives
------------------
     ethr =  1.10E-05,  avg # of iterations =  1.0

     negative rho (up, down):  6.702E-02 0.000E+00

     total cpu time spent up to now is       24.1 secs

     total energy              =   -2123.15591294 Ry
     estimated scf accuracy    <       0.02726483 Ry

     iteration # 52     ecut=    30.00 Ry     beta= 0.70
     Davidson diagonalization with overlap

---- Real-time Memory Report at c_bands before calling an iterative solver
           189 MiB given to the printing process from OS
             0 MiB allocation reported by mallinfo(arena+hblkhd)
        163809 MiB available memory on the node where the printing process lives
------------------
     ethr =  1.10E-05,  avg # of iterations =  1.0

     negative rho (up, down):  6.703E-02 0.000E+00

     total cpu time spent up to now is       24.5 secs

     total energy              =   -2123.15604899 Ry
     estimated scf accuracy    <       0.01900171 Ry

     iteration # 53     ecut=    30.00 Ry     beta= 0.70
     Davidson diagonalization with overlap

---- Real-time Memory Report at c_bands before calling an iterative solver
           189 MiB given to the printing process from OS
             0 MiB allocation reported by mallinfo(arena+hblkhd)
        163809 MiB available memory on the node where the printing process lives
------------------
     ethr =  1.10E-05,  avg # of iterations =  1.0

     negative rho (up, down):  6.703E-02 0.000E+00

     total cpu time spent up to now is       24.9 secs

     total energy              =   -2123.15576516 Ry
     estimated scf accuracy    <       0.01772601 Ry

     iteration # 54     ecut=    30.00 Ry     beta= 0.70
     Davidson diagonalization with overlap

---- Real-time Memory Report at c_bands before calling an iterative solver
           189 MiB given to the printing process from OS
             0 MiB allocation reported by mallinfo(arena+hblkhd)
        163810 MiB available memory on the node where the printing process lives
------------------
     ethr =  1.10E-05,  avg # of iterations =  1.0

     negative rho (up, down):  6.702E-02 0.000E+00

     total cpu time spent up to now is       25.4 secs

     total energy              =   -2123.15438978 Ry
     estimated scf accuracy    <       0.02990459 Ry

     iteration # 55     ecut=    30.00 Ry     beta= 0.70
     Davidson diagonalization with overlap

---- Real-time Memory Report at c_bands before calling an iterative solver
           189 MiB given to the printing process from OS
             0 MiB allocation reported by mallinfo(arena+hblkhd)
        163810 MiB available memory on the node where the printing process lives
------------------
     ethr =  1.10E-05,  avg # of iterations =  2.0

     negative rho (up, down):  6.702E-02 0.000E+00

     total cpu time spent up to now is       25.8 secs

     total energy              =   -2123.13993105 Ry
     estimated scf accuracy    <       9.20190317 Ry

     iteration # 56     ecut=    30.00 Ry     beta= 0.70
     Davidson diagonalization with overlap

---- Real-time Memory Report at c_bands before calling an iterative solver
           189 MiB given to the printing process from OS
             0 MiB allocation reported by mallinfo(arena+hblkhd)
        163810 MiB available memory on the node where the printing process lives
------------------
     ethr =  1.10E-05,  avg # of iterations =  2.0

     negative rho (up, down):  6.703E-02 0.000E+00

     total cpu time spent up to now is       26.2 secs

     total energy              =   -2123.15507955 Ry
     estimated scf accuracy    <       0.02917744 Ry

     iteration # 57     ecut=    30.00 Ry     beta= 0.70
     Davidson diagonalization with overlap

---- Real-time Memory Report at c_bands before calling an iterative solver
           189 MiB given to the printing process from OS
             0 MiB allocation reported by mallinfo(arena+hblkhd)
        163810 MiB available memory on the node where the printing process lives
------------------
     ethr =  1.10E-05,  avg # of iterations =  1.0

     negative rho (up, down):  6.703E-02 0.000E+00

     total cpu time spent up to now is       26.6 secs

     total energy              =   -2123.15501422 Ry
     estimated scf accuracy    <       0.05177162 Ry

     iteration # 58     ecut=    30.00 Ry     beta= 0.70
     Davidson diagonalization with overlap

---- Real-time Memory Report at c_bands before calling an iterative solver
           189 MiB given to the printing process from OS
             0 MiB allocation reported by mallinfo(arena+hblkhd)
        163810 MiB available memory on the node where the printing process lives
------------------
     ethr =  1.10E-05,  avg # of iterations =  1.0

     negative rho (up, down):  6.702E-02 0.000E+00

     total cpu time spent up to now is       27.0 secs

     total energy              =   -2123.14584028 Ry
     estimated scf accuracy    <       3.81453995 Ry

     iteration # 59     ecut=    30.00 Ry     beta= 0.70
     Davidson diagonalization with overlap

---- Real-time Memory Report at c_bands before calling an iterative solver
           189 MiB given to the printing process from OS
             0 MiB allocation reported by mallinfo(arena+hblkhd)
        163810 MiB available memory on the node where the printing process lives
------------------
     ethr =  1.10E-05,  avg # of iterations =  1.0

     negative rho (up, down):  6.702E-02 0.000E+00

     total cpu time spent up to now is       27.4 secs

     total energy              =   -2123.15567816 Ry
     estimated scf accuracy    <       0.04504287 Ry

     iteration # 60     ecut=    30.00 Ry     beta= 0.70
     Davidson diagonalization with overlap

---- Real-time Memory Report at c_bands before calling an iterative solver
           189 MiB given to the printing process from OS
             0 MiB allocation reported by mallinfo(arena+hblkhd)
        163810 MiB available memory on the node where the printing process lives
------------------
     ethr =  1.10E-05,  avg # of iterations =  1.0

     negative rho (up, down):  6.702E-02 0.000E+00

     total cpu time spent up to now is       27.8 secs

     total energy              =   -2123.15464685 Ry
     estimated scf accuracy    <       0.12522581 Ry

     iteration # 61     ecut=    30.00 Ry     beta= 0.70
     Davidson diagonalization with overlap

---- Real-time Memory Report at c_bands before calling an iterative solver
           189 MiB given to the printing process from OS
             0 MiB allocation reported by mallinfo(arena+hblkhd)
        163810 MiB available memory on the node where the printing process lives
------------------
     ethr =  1.10E-05,  avg # of iterations =  1.0

     negative rho (up, down):  6.703E-02 0.000E+00

     total cpu time spent up to now is       28.2 secs

     total energy              =   -2123.15587961 Ry
     estimated scf accuracy    <       0.05324134 Ry

     iteration # 62     ecut=    30.00 Ry     beta= 0.70
     Davidson diagonalization with overlap

---- Real-time Memory Report at c_bands before calling an iterative solver
           189 MiB given to the printing process from OS
             0 MiB allocation reported by mallinfo(arena+hblkhd)
        163811 MiB available memory on the node where the printing process lives
------------------
     ethr =  1.10E-05,  avg # of iterations =  1.0

     negative rho (up, down):  6.703E-02 0.000E+00

     total cpu time spent up to now is       28.6 secs

     total energy              =   -2123.15398590 Ry
     estimated scf accuracy    <       0.04033078 Ry

     iteration # 63     ecut=    30.00 Ry     beta= 0.70
     Davidson diagonalization with overlap

---- Real-time Memory Report at c_bands before calling an iterative solver
           189 MiB given to the printing process from OS
             0 MiB allocation reported by mallinfo(arena+hblkhd)
        163811 MiB available memory on the node where the printing process lives
------------------
     ethr =  1.10E-05,  avg # of iterations =  1.0

     negative rho (up, down):  6.703E-02 0.000E+00

     total cpu time spent up to now is       29.0 secs

     total energy              =   -2123.15574961 Ry
     estimated scf accuracy    <       0.01678236 Ry

     iteration # 64     ecut=    30.00 Ry     beta= 0.70
     Davidson diagonalization with overlap

---- Real-time Memory Report at c_bands before calling an iterative solver
           189 MiB given to the printing process from OS
             0 MiB allocation reported by mallinfo(arena+hblkhd)
        163811 MiB available memory on the node where the printing process lives
------------------
     ethr =  1.10E-05,  avg # of iterations =  1.0

     negative rho (up, down):  6.702E-02 0.000E+00

     total cpu time spent up to now is       29.5 secs

     total energy              =   -2123.15359044 Ry
     estimated scf accuracy    <       0.03363261 Ry

     iteration # 65     ecut=    30.00 Ry     beta= 0.70
     Davidson diagonalization with overlap

---- Real-time Memory Report at c_bands before calling an iterative solver
           189 MiB given to the printing process from OS
             0 MiB allocation reported by mallinfo(arena+hblkhd)
        163811 MiB available memory on the node where the printing process lives
------------------
     ethr =  1.10E-05,  avg # of iterations =  4.0

     negative rho (up, down):  6.702E-02 0.000E+00

     total cpu time spent up to now is       29.9 secs

     total energy              =   -2123.11948666 Ry
     estimated scf accuracy    <      15.40255346 Ry

     iteration # 66     ecut=    30.00 Ry     beta= 0.70
     Davidson diagonalization with overlap

---- Real-time Memory Report at c_bands before calling an iterative solver
           189 MiB given to the printing process from OS
             0 MiB allocation reported by mallinfo(arena+hblkhd)
        163811 MiB available memory on the node where the printing process lives
------------------
     ethr =  1.10E-05,  avg # of iterations =  4.0

     negative rho (up, down):  6.702E-02 0.000E+00

     total cpu time spent up to now is       30.3 secs

     total energy              =   -2123.15038873 Ry
     estimated scf accuracy    <       4.27168801 Ry

     iteration # 67     ecut=    30.00 Ry     beta= 0.70
     Davidson diagonalization with overlap

---- Real-time Memory Report at c_bands before calling an iterative solver
           189 MiB given to the printing process from OS
             0 MiB allocation reported by mallinfo(arena+hblkhd)
        163811 MiB available memory on the node where the printing process lives
------------------
     ethr =  1.10E-05,  avg # of iterations =  1.0

     negative rho (up, down):  6.702E-02 0.000E+00

     total cpu time spent up to now is       30.7 secs

     total energy              =   -2123.15431009 Ry
     estimated scf accuracy    <       0.11113341 Ry

     iteration # 68     ecut=    30.00 Ry     beta= 0.70
     Davidson diagonalization with overlap

---- Real-time Memory Report at c_bands before calling an iterative solver
           189 MiB given to the printing process from OS
             0 MiB allocation reported by mallinfo(arena+hblkhd)
        163832 MiB available memory on the node where the printing process lives
------------------
     ethr =  1.10E-05,  avg # of iterations =  1.0

     negative rho (up, down):  6.702E-02 0.000E+00

     total cpu time spent up to now is       31.1 secs

     total energy              =   -2123.15045700 Ry
     estimated scf accuracy    <       1.99508332 Ry

     iteration # 69     ecut=    30.00 Ry     beta= 0.70
     Davidson diagonalization with overlap

---- Real-time Memory Report at c_bands before calling an iterative solver
           189 MiB given to the printing process from OS
             0 MiB allocation reported by mallinfo(arena+hblkhd)
        163812 MiB available memory on the node where the printing process lives
------------------
     ethr =  1.10E-05,  avg # of iterations =  1.0

     negative rho (up, down):  6.702E-02 0.000E+00

     total cpu time spent up to now is       31.5 secs

     total energy              =   -2123.15569350 Ry
     estimated scf accuracy    <       0.04299698 Ry

     iteration # 70     ecut=    30.00 Ry     beta= 0.70
     Davidson diagonalization with overlap

---- Real-time Memory Report at c_bands before calling an iterative solver
           189 MiB given to the printing process from OS
             0 MiB allocation reported by mallinfo(arena+hblkhd)
        163812 MiB available memory on the node where the printing process lives
------------------
     ethr =  1.10E-05,  avg # of iterations =  1.0

     negative rho (up, down):  6.702E-02 0.000E+00

     total cpu time spent up to now is       32.0 secs

     total energy              =   -2123.15453857 Ry
     estimated scf accuracy    <       0.52253934 Ry

     iteration # 71     ecut=    30.00 Ry     beta= 0.70
     Davidson diagonalization with overlap

---- Real-time Memory Report at c_bands before calling an iterative solver
           189 MiB given to the printing process from OS
             0 MiB allocation reported by mallinfo(arena+hblkhd)
        163811 MiB available memory on the node where the printing process lives
------------------
     ethr =  1.10E-05,  avg # of iterations =  1.0

     negative rho (up, down):  6.703E-02 0.000E+00

     total cpu time spent up to now is       32.4 secs

     total energy              =   -2123.15596957 Ry
     estimated scf accuracy    <       0.05432869 Ry

     iteration # 72     ecut=    30.00 Ry     beta= 0.70
     Davidson diagonalization with overlap

---- Real-time Memory Report at c_bands before calling an iterative solver
           189 MiB given to the printing process from OS
             0 MiB allocation reported by mallinfo(arena+hblkhd)
        163811 MiB available memory on the node where the printing process lives
------------------
     ethr =  1.10E-05,  avg # of iterations =  1.0

     negative rho (up, down):  6.703E-02 0.000E+00

     total cpu time spent up to now is       32.8 secs

     total energy              =   -2123.15568596 Ry
     estimated scf accuracy    <       0.13534633 Ry

     iteration # 73     ecut=    30.00 Ry     beta= 0.70
     Davidson diagonalization with overlap

---- Real-time Memory Report at c_bands before calling an iterative solver
           189 MiB given to the printing process from OS
             0 MiB allocation reported by mallinfo(arena+hblkhd)
        163812 MiB available memory on the node where the printing process lives
------------------
     ethr =  1.10E-05,  avg # of iterations =  1.0

     negative rho (up, down):  6.703E-02 0.000E+00

     total cpu time spent up to now is       33.2 secs

     total energy              =   -2123.15577501 Ry
     estimated scf accuracy    <       0.12825190 Ry

     iteration # 74     ecut=    30.00 Ry     beta= 0.70
     Davidson diagonalization with overlap

---- Real-time Memory Report at c_bands before calling an iterative solver
           189 MiB given to the printing process from OS
             0 MiB allocation reported by mallinfo(arena+hblkhd)
        163812 MiB available memory on the node where the printing process lives
------------------
     ethr =  1.10E-05,  avg # of iterations =  1.0

     negative rho (up, down):  6.703E-02 0.000E+00

     total cpu time spent up to now is       33.6 secs

     total energy              =   -2123.15552032 Ry
     estimated scf accuracy    <       0.09532205 Ry

     iteration # 75     ecut=    30.00 Ry     beta= 0.70
     Davidson diagonalization with overlap

---- Real-time Memory Report at c_bands before calling an iterative solver
           189 MiB given to the printing process from OS
             0 MiB allocation reported by mallinfo(arena+hblkhd)
        163812 MiB available memory on the node where the printing process lives
------------------
     ethr =  1.10E-05,  avg # of iterations =  1.0

     negative rho (up, down):  6.703E-02 0.000E+00

     total cpu time spent up to now is       34.0 secs

     total energy              =   -2123.15567920 Ry
     estimated scf accuracy    <       0.03890471 Ry

     iteration # 76     ecut=    30.00 Ry     beta= 0.70
     Davidson diagonalization with overlap

---- Real-time Memory Report at c_bands before calling an iterative solver
           189 MiB given to the printing process from OS
             0 MiB allocation reported by mallinfo(arena+hblkhd)
        163811 MiB available memory on the node where the printing process lives
------------------
     ethr =  1.10E-05,  avg # of iterations =  1.0

     negative rho (up, down):  6.703E-02 0.000E+00

     total cpu time spent up to now is       34.4 secs

     total energy              =   -2123.15542729 Ry
     estimated scf accuracy    <       0.01475432 Ry

     iteration # 77     ecut=    30.00 Ry     beta= 0.70
     Davidson diagonalization with overlap

---- Real-time Memory Report at c_bands before calling an iterative solver
           189 MiB given to the printing process from OS
             0 MiB allocation reported by mallinfo(arena+hblkhd)
        163812 MiB available memory on the node where the printing process lives
------------------
     ethr =  1.10E-05,  avg # of iterations =  1.0

     negative rho (up, down):  6.702E-02 0.000E+00

     total cpu time spent up to now is       34.8 secs

     total energy              =   -2123.15042175 Ry
     estimated scf accuracy    <       2.68869059 Ry

     iteration # 78     ecut=    30.00 Ry     beta= 0.70
     Davidson diagonalization with overlap

---- Real-time Memory Report at c_bands before calling an iterative solver
           189 MiB given to the printing process from OS
             0 MiB allocation reported by mallinfo(arena+hblkhd)
        163811 MiB available memory on the node where the printing process lives
------------------
     ethr =  1.10E-05,  avg # of iterations =  1.0

     negative rho (up, down):  6.703E-02 0.000E+00

     total cpu time spent up to now is       35.2 secs

     total energy              =   -2123.15571552 Ry
     estimated scf accuracy    <       0.01957446 Ry

     iteration # 79     ecut=    30.00 Ry     beta= 0.70
     Davidson diagonalization with overlap

---- Real-time Memory Report at c_bands before calling an iterative solver
           189 MiB given to the printing process from OS
             0 MiB allocation reported by mallinfo(arena+hblkhd)
        163812 MiB available memory on the node where the printing process lives
------------------
     ethr =  1.10E-05,  avg # of iterations =  1.0

     negative rho (up, down):  6.703E-02 0.000E+00

     total cpu time spent up to now is       35.7 secs

     total energy              =   -2123.15578014 Ry
     estimated scf accuracy    <       0.02861857 Ry

     iteration # 80     ecut=    30.00 Ry     beta= 0.70
     Davidson diagonalization with overlap

---- Real-time Memory Report at c_bands before calling an iterative solver
           189 MiB given to the printing process from OS
             0 MiB allocation reported by mallinfo(arena+hblkhd)
        163812 MiB available memory on the node where the printing process lives
------------------
     ethr =  1.10E-05,  avg # of iterations =  1.0

     negative rho (up, down):  6.703E-02 0.000E+00

     total cpu time spent up to now is       36.1 secs

     total energy              =   -2123.15601194 Ry
     estimated scf accuracy    <       0.03359137 Ry

     iteration # 81     ecut=    30.00 Ry     beta= 0.70
     Davidson diagonalization with overlap

---- Real-time Memory Report at c_bands before calling an iterative solver
           189 MiB given to the printing process from OS
             0 MiB allocation reported by mallinfo(arena+hblkhd)
        163812 MiB available memory on the node where the printing process lives
------------------
     ethr =  1.10E-05,  avg # of iterations =  1.0

     negative rho (up, down):  6.703E-02 0.000E+00

     total cpu time spent up to now is       36.5 secs

     total energy              =   -2123.15588788 Ry
     estimated scf accuracy    <       0.05730140 Ry

     iteration # 82     ecut=    30.00 Ry     beta= 0.70
     Davidson diagonalization with overlap

---- Real-time Memory Report at c_bands before calling an iterative solver
           189 MiB given to the printing process from OS
             0 MiB allocation reported by mallinfo(arena+hblkhd)
        163812 MiB available memory on the node where the printing process lives
------------------
     ethr =  1.10E-05,  avg # of iterations =  1.0

     negative rho (up, down):  6.703E-02 0.000E+00

     total cpu time spent up to now is       36.9 secs

     total energy              =   -2123.15598447 Ry
     estimated scf accuracy    <       0.01276230 Ry

     iteration # 83     ecut=    30.00 Ry     beta= 0.70
     Davidson diagonalization with overlap

---- Real-time Memory Report at c_bands before calling an iterative solver
           189 MiB given to the printing process from OS
             0 MiB allocation reported by mallinfo(arena+hblkhd)
        163812 MiB available memory on the node where the printing process lives
------------------
     ethr =  1.10E-05,  avg # of iterations =  1.0

     negative rho (up, down):  6.703E-02 0.000E+00

     total cpu time spent up to now is       37.3 secs

     total energy              =   -2123.15598741 Ry
     estimated scf accuracy    <       0.02303010 Ry

     iteration # 84     ecut=    30.00 Ry     beta= 0.70
     Davidson diagonalization with overlap

---- Real-time Memory Report at c_bands before calling an iterative solver
           189 MiB given to the printing process from OS
             0 MiB allocation reported by mallinfo(arena+hblkhd)
        163812 MiB available memory on the node where the printing process lives
------------------
     ethr =  1.10E-05,  avg # of iterations =  1.0

     negative rho (up, down):  6.703E-02 0.000E+00

     total cpu time spent up to now is       37.7 secs

     total energy              =   -2123.15407882 Ry
     estimated scf accuracy    <       0.01815288 Ry

     iteration # 85     ecut=    30.00 Ry     beta= 0.70
     Davidson diagonalization with overlap

---- Real-time Memory Report at c_bands before calling an iterative solver
           189 MiB given to the printing process from OS
             0 MiB allocation reported by mallinfo(arena+hblkhd)
        163811 MiB available memory on the node where the printing process lives
------------------
     ethr =  1.10E-05,  avg # of iterations =  2.0

     negative rho (up, down):  6.702E-02 0.000E+00

     total cpu time spent up to now is       38.1 secs

     total energy              =   -2123.13887722 Ry
     estimated scf accuracy    <      10.99977642 Ry

     iteration # 86     ecut=    30.00 Ry     beta= 0.70
     Davidson diagonalization with overlap

---- Real-time Memory Report at c_bands before calling an iterative solver
           189 MiB given to the printing process from OS
             0 MiB allocation reported by mallinfo(arena+hblkhd)
        163811 MiB available memory on the node where the printing process lives
------------------
     ethr =  1.10E-05,  avg # of iterations =  2.0

     negative rho (up, down):  6.703E-02 0.000E+00

     total cpu time spent up to now is       38.5 secs

     total energy              =   -2123.15422343 Ry
     estimated scf accuracy    <       0.41883966 Ry

     iteration # 87     ecut=    30.00 Ry     beta= 0.70
     Davidson diagonalization with overlap

---- Real-time Memory Report at c_bands before calling an iterative solver
           189 MiB given to the printing process from OS
             0 MiB allocation reported by mallinfo(arena+hblkhd)
        163812 MiB available memory on the node where the printing process lives
------------------
     ethr =  1.10E-05,  avg # of iterations =  1.0

     negative rho (up, down):  6.702E-02 0.000E+00

     total cpu time spent up to now is       38.9 secs

     total energy              =   -2123.15493195 Ry
     estimated scf accuracy    <       0.49582693 Ry

     iteration # 88     ecut=    30.00 Ry     beta= 0.70
     Davidson diagonalization with overlap

---- Real-time Memory Report at c_bands before calling an iterative solver
           189 MiB given to the printing process from OS
             0 MiB allocation reported by mallinfo(arena+hblkhd)
        163811 MiB available memory on the node where the printing process lives
------------------
     ethr =  1.10E-05,  avg # of iterations =  1.0

     negative rho (up, down):  6.703E-02 0.000E+00

     total cpu time spent up to now is       39.4 secs

     total energy              =   -2123.15585871 Ry
     estimated scf accuracy    <       0.00995956 Ry

     iteration # 89     ecut=    30.00 Ry     beta= 0.70
     Davidson diagonalization with overlap

---- Real-time Memory Report at c_bands before calling an iterative solver
           189 MiB given to the printing process from OS
             0 MiB allocation reported by mallinfo(arena+hblkhd)
        163840 MiB available memory on the node where the printing process lives
------------------
     ethr =  9.14E-06,  avg # of iterations =  1.0

     negative rho (up, down):  6.703E-02 0.000E+00

     total cpu time spent up to now is       39.9 secs

     total energy              =   -2123.15587291 Ry
     estimated scf accuracy    <       0.00735330 Ry

     iteration # 90     ecut=    30.00 Ry     beta= 0.70
     Davidson diagonalization with overlap

---- Real-time Memory Report at c_bands before calling an iterative solver
           189 MiB given to the printing process from OS
             0 MiB allocation reported by mallinfo(arena+hblkhd)
        163812 MiB available memory on the node where the printing process lives
------------------
     ethr =  6.75E-06,  avg # of iterations =  1.0

     negative rho (up, down):  6.703E-02 0.000E+00

     total cpu time spent up to now is       40.3 secs

     total energy              =   -2123.15598155 Ry
     estimated scf accuracy    <       0.00079638 Ry

     iteration # 91     ecut=    30.00 Ry     beta= 0.70
     Davidson diagonalization with overlap

---- Real-time Memory Report at c_bands before calling an iterative solver
           189 MiB given to the printing process from OS
             0 MiB allocation reported by mallinfo(arena+hblkhd)
        163812 MiB available memory on the node where the printing process lives
------------------
     ethr =  7.31E-07,  avg # of iterations =  1.0

     negative rho (up, down):  6.703E-02 0.000E+00

     total cpu time spent up to now is       40.8 secs

     total energy              =   -2123.15597526 Ry
     estimated scf accuracy    <       0.00474867 Ry

     iteration # 92     ecut=    30.00 Ry     beta= 0.70
     Davidson diagonalization with overlap

---- Real-time Memory Report at c_bands before calling an iterative solver
           189 MiB given to the printing process from OS
             0 MiB allocation reported by mallinfo(arena+hblkhd)
        163812 MiB available memory on the node where the printing process lives
------------------
     ethr =  7.31E-07,  avg # of iterations =  1.0

     negative rho (up, down):  6.703E-02 0.000E+00

     total cpu time spent up to now is       41.2 secs

     total energy              =   -2123.15598337 Ry
     estimated scf accuracy    <       0.00040597 Ry

     iteration # 93     ecut=    30.00 Ry     beta= 0.70
     Davidson diagonalization with overlap

---- Real-time Memory Report at c_bands before calling an iterative solver
           189 MiB given to the printing process from OS
             0 MiB allocation reported by mallinfo(arena+hblkhd)
        163812 MiB available memory on the node where the printing process lives
------------------
     ethr =  3.72E-07,  avg # of iterations =  1.0

     negative rho (up, down):  6.703E-02 0.000E+00

     total cpu time spent up to now is       41.6 secs

     total energy              =   -2123.15597264 Ry
     estimated scf accuracy    <       0.00054562 Ry

     iteration # 94     ecut=    30.00 Ry     beta= 0.70
     Davidson diagonalization with overlap

---- Real-time Memory Report at c_bands before calling an iterative solver
           189 MiB given to the printing process from OS
             0 MiB allocation reported by mallinfo(arena+hblkhd)
        163812 MiB available memory on the node where the printing process lives
------------------
     ethr =  3.72E-07,  avg # of iterations =  1.0

     negative rho (up, down):  6.703E-02 0.000E+00

     total cpu time spent up to now is       42.0 secs

     total energy              =   -2123.15594006 Ry
     estimated scf accuracy    <       0.00503739 Ry

     iteration # 95     ecut=    30.00 Ry     beta= 0.70
     Davidson diagonalization with overlap

---- Real-time Memory Report at c_bands before calling an iterative solver
           189 MiB given to the printing process from OS
             0 MiB allocation reported by mallinfo(arena+hblkhd)
        163812 MiB available memory on the node where the printing process lives
------------------
     ethr =  3.72E-07,  avg # of iterations =  1.0

     negative rho (up, down):  6.703E-02 0.000E+00

     total cpu time spent up to now is       42.4 secs

     total energy              =   -2123.15598250 Ry
     estimated scf accuracy    <       0.01051232 Ry

     iteration # 96     ecut=    30.00 Ry     beta= 0.70
     Davidson diagonalization with overlap

---- Real-time Memory Report at c_bands before calling an iterative solver
           189 MiB given to the printing process from OS
             0 MiB allocation reported by mallinfo(arena+hblkhd)
        163813 MiB available memory on the node where the printing process lives
------------------
     ethr =  3.72E-07,  avg # of iterations =  1.0

     negative rho (up, down):  6.703E-02 0.000E+00

     total cpu time spent up to now is       42.8 secs

     total energy              =   -2123.15597074 Ry
     estimated scf accuracy    <       0.00036266 Ry

     iteration # 97     ecut=    30.00 Ry     beta= 0.70
     Davidson diagonalization with overlap

---- Real-time Memory Report at c_bands before calling an iterative solver
           189 MiB given to the printing process from OS
             0 MiB allocation reported by mallinfo(arena+hblkhd)
        163812 MiB available memory on the node where the printing process lives
------------------
     ethr =  3.33E-07,  avg # of iterations =  1.0

     negative rho (up, down):  6.703E-02 0.000E+00

     total cpu time spent up to now is       43.2 secs

     total energy              =   -2123.15598330 Ry
     estimated scf accuracy    <       0.00451256 Ry

     iteration # 98     ecut=    30.00 Ry     beta= 0.70
     Davidson diagonalization with overlap

---- Real-time Memory Report at c_bands before calling an iterative solver
           189 MiB given to the printing process from OS
             0 MiB allocation reported by mallinfo(arena+hblkhd)
        163813 MiB available memory on the node where the printing process lives
------------------
     ethr =  3.33E-07,  avg # of iterations =  1.0

     negative rho (up, down):  6.703E-02 0.000E+00

     total cpu time spent up to now is       43.6 secs

     total energy              =   -2123.15597973 Ry
     estimated scf accuracy    <       0.00037848 Ry

     iteration # 99     ecut=    30.00 Ry     beta= 0.70
     Davidson diagonalization with overlap

---- Real-time Memory Report at c_bands before calling an iterative solver
           189 MiB given to the printing process from OS
             0 MiB allocation reported by mallinfo(arena+hblkhd)
        163813 MiB available memory on the node where the printing process lives
------------------
     ethr =  3.33E-07,  avg # of iterations =  1.0

     negative rho (up, down):  6.703E-02 0.000E+00

     total cpu time spent up to now is       44.0 secs

     total energy              =   -2123.15595651 Ry
     estimated scf accuracy    <       0.00706155 Ry

     iteration #100     ecut=    30.00 Ry     beta= 0.70
     Davidson diagonalization with overlap

---- Real-time Memory Report at c_bands before calling an iterative solver
           189 MiB given to the printing process from OS
             0 MiB allocation reported by mallinfo(arena+hblkhd)
        163813 MiB available memory on the node where the printing process lives
------------------
     ethr =  3.33E-07,  avg # of iterations =  1.0

     negative rho (up, down):  6.703E-02 0.000E+00

     total cpu time spent up to now is       44.4 secs

     total energy              =   -2123.15597947 Ry
     estimated scf accuracy    <       0.00349375 Ry

     End of self-consistent calculation

     convergence NOT achieved after 100 iterations: stopping

     Writing config to output data dir calculations/myprefix.save/
     Message from routine punch:
     wavefunctions written to file
 
     init_run     :      1.63s CPU      1.69s WALL (       1 calls)
     electrons    :     41.61s CPU     42.06s WALL (       1 calls)

     Called by init_run:
     wfcinit      :      0.04s CPU      0.06s WALL (       1 calls)
     wfcinit:atom :      0.00s CPU      0.00s WALL (       1 calls)
     wfcinit:wfcr :      0.04s CPU      0.06s WALL (       1 calls)
     potinit      :      0.89s CPU      0.90s WALL (       1 calls)
     hinit0       :      0.66s CPU      0.68s WALL (       1 calls)

     Called by electrons:
     c_bands      :      4.43s CPU      4.56s WALL (     100 calls)
     sum_band     :      4.33s CPU      4.41s WALL (     100 calls)
     v_of_rho     :      1.86s CPU      1.91s WALL (     101 calls)
     v_h          :      0.08s CPU      0.09s WALL (     101 calls)
     v_xc         :      1.78s CPU      1.83s WALL (     101 calls)
     newd         :      3.33s CPU      3.37s WALL (     101 calls)
     PAW_pot      :     27.33s CPU     27.44s WALL (     101 calls)
     mix_rho      :      0.29s CPU      0.30s WALL (     100 calls)

     Called by c_bands:
     init_us_2    :      0.02s CPU      0.02s WALL (     201 calls)
     init_us_2:cp :      0.02s CPU      0.02s WALL (     201 calls)
     regterg      :      4.36s CPU      4.47s WALL (     100 calls)

     Called by sum_band:
     sum_band:wei :      0.01s CPU      0.02s WALL (     100 calls)
     sum_band:loo :      0.73s CPU      0.77s WALL (     100 calls)
     sum_band:buf :      0.00s CPU      0.00s WALL (     100 calls)
     sum_band:ini :      0.01s CPU      0.01s WALL (     100 calls)
     sum_band:cal :      0.04s CPU      0.04s WALL (     100 calls)
     sum_band:bec :      0.01s CPU      0.01s WALL (     100 calls)
     addusdens    :      3.40s CPU      3.43s WALL (     100 calls)
     addusd:skk   :      0.01s CPU      0.01s WALL (     500 calls)
     addusd:dgemm :      0.87s CPU      0.88s WALL (     500 calls)
     addusd:qvan2 :      2.44s CPU      2.46s WALL (     500 calls)

     Called by *egterg:
     rdiaghg      :      1.37s CPU      1.39s WALL (     266 calls)
     regterg:over :      0.14s CPU      0.15s WALL (     166 calls)
     regterg:upda :      0.05s CPU      0.05s WALL (     166 calls)
     regterg:last :      0.07s CPU      0.07s WALL (     130 calls)
     rdiaghg:chol :      0.07s CPU      0.07s WALL (     266 calls)
     rdiaghg:inve :      0.01s CPU      0.01s WALL (     266 calls)
     rdiaghg:para :      0.09s CPU      0.09s WALL (     532 calls)
     h_psi        :      2.68s CPU      2.77s WALL (     267 calls)
     s_psi        :      0.01s CPU      0.01s WALL (     267 calls)
     g_psi        :      0.00s CPU      0.00s WALL (     166 calls)

     Called by h_psi:
     h_psi:calbec :      0.09s CPU      0.10s WALL (     267 calls)
     vloc_psi     :      2.56s CPU      2.65s WALL (     267 calls)
     add_vuspsi   :      0.02s CPU      0.02s WALL (     267 calls)

     General routines
     calbec       :      0.14s CPU      0.14s WALL (     367 calls)
     fft          :      1.35s CPU      1.37s WALL (    1111 calls)
     ffts         :      0.58s CPU      0.58s WALL (     201 calls)
     fftw         :      2.86s CPU      2.96s WALL (   17300 calls)
     interpolate  :      0.73s CPU      0.74s WALL (     101 calls)
     davcio       :      0.00s CPU      0.00s WALL (      19 calls)
 
     Parallel routines

     PAW routines
     PAW_pot      :     27.33s CPU     27.44s WALL (     101 calls)
     PAW_symme    :      0.06s CPU      0.06s WALL (     201 calls)
 
     PWSCF        :     43.89s CPU     44.64s WALL

 
   This run was terminated on:  11:12:43   6Mar2023            

=------------------------------------------------------------------------------=
   JOB DONE.
=------------------------------------------------------------------------------=
