
     Program PWSCF v.7.0 starts on  3Mar2023 at 14:52: 1 

     This program is part of the open-source Quantum ESPRESSO suite
     for quantum simulation of materials; please cite
         "P. Giannozzi et al., J. Phys.:Condens. Matter 21 395502 (2009);
         "P. Giannozzi et al., J. Phys.:Condens. Matter 29 465901 (2017);
         "P. Giannozzi et al., J. Chem. Phys. 152 154105 (2020);
          URL http://www.quantum-espresso.org", 
     in publications or presentations arising from this work. More details at
     http://www.quantum-espresso.org/quote

     Parallel version (MPI & OpenMP), running on      32 processor cores
     Number of MPI processes:                32
     Threads/MPI process:                     1

     MPI processes distributed on     1 nodes
     R & G space division:  proc/nbgrp/npool/nimage =      32
     174217 MiB available memory on the printing compute node when the environment starts
 
     Reading input from espresso_665.pwi
Warning: card &CELL ignored
Warning: card / ignored

     Current dimensions of program PWSCF are:
     Max number of different atomic species (ntypx) = 10
     Max number of k-points (npk) =  40000
     Max angular momentum in pseudopotentials (lmaxx) =  4
     file Al.pbe-n-kjpaw_psl.1.0.0.UPF: wavefunction(s)  3S 3P renormalized
     file O.pbe-n-kjpaw_psl.0.1.UPF: wavefunction(s)  2P renormalized

     gamma-point specific algorithms are used
     Message from routine setup:
     using ibrav=0 with symmetry is DISCOURAGED, use correct ibrav instead

     Subspace diagonalization in iterative solution of the eigenvalue problem:
     one sub-group per band group will be used
     scalapack distributed-memory algorithm (size of sub-group:  5*  5 procs)

 
     Parallelization info
     --------------------
     sticks:   dense  smooth     PW     G-vecs:    dense   smooth      PW
     Min          15       6      0                 1193      394       0
     Max          16       8      2                 1240      452      78
     Sum         511     253     61                39193    13857    1721
 
     Using Slab Decomposition
 


     bravais-lattice index     =            0
     lattice parameter (alat)  =       5.5442  a.u.
     unit-cell volume          =     622.6200 (a.u.)^3
     number of atoms/cell      =            8
     number of atomic types    =            3
     number of electrons       =        68.00
     number of Kohn-Sham states=           41
     kinetic-energy cutoff     =      30.0000  Ry
     charge density cutoff     =     240.0000  Ry
     scf convergence threshold =      1.0E-06
     mixing beta               =       0.7000
     number of iterations used =            8  plain     mixing
     Exchange-correlation= SLA  PW   PBX  PBC
                           (   1   4   3   4   0   0   0)

     celldm(1)=   5.544187  celldm(2)=   0.000000  celldm(3)=   0.000000
     celldm(4)=   0.000000  celldm(5)=   0.000000  celldm(6)=   0.000000

     crystal axes: (cart. coord. in units of alat)
               a(1) = (   1.000000   0.000000   0.000000 )  
               a(2) = (  -0.500000   0.866025   0.000000 )  
               a(3) = (   0.000000   0.000000   4.218701 )  

     reciprocal axes: (cart. coord. in units 2 pi/alat)
               b(1) = (  1.000000  0.577350  0.000000 )  
               b(2) = (  0.000000  1.154700  0.000000 )  
               b(3) = (  0.000000  0.000000  0.237040 )  


     PseudoPot. # 1 for Al read from file:
     /home/pragov/projects/rrg-bengioy-ad/pragov/crystal_structure_design/SSSP/Al.pbe-n-kjpaw_psl.1.0.0.UPF
     MD5 check sum: cfc449ca30b5f3223ec38ddd88ac046d
     Pseudo is Projector augmented-wave + core cor, Zval =  3.0
     Generated using "atomic" code by A. Dal Corso  v.5.1
     Shape of augmentation charge: PSQ
     Using radial grid of 1135 points,  6 beta functions with: 
                l(1) =   0
                l(2) =   0
                l(3) =   1
                l(4) =   1
                l(5) =   2
                l(6) =   2
     Q(r) pseudized with 0 coefficients 


     PseudoPot. # 2 for Au read from file:
     /home/pragov/projects/rrg-bengioy-ad/pragov/crystal_structure_design/SSSP/Au_ONCV_PBE-1.0.oncvpsp.upf
     MD5 check sum: d14007822ba0e19f0206237467fc06c2
     Pseudo is Norm-conserving, Zval = 19.0
     Generated using ONCVPSP code by D. R. Hamann
     Using radial grid of 1278 points,  8 beta functions with: 
                l(1) =   0
                l(2) =   0
                l(3) =   1
                l(4) =   1
                l(5) =   2
                l(6) =   2
                l(7) =   3
                l(8) =   3

     PseudoPot. # 3 for O  read from file:
     /home/pragov/projects/rrg-bengioy-ad/pragov/crystal_structure_design/SSSP/O.pbe-n-kjpaw_psl.0.1.UPF
     MD5 check sum: 0234752ac141de4415c5fc33072bef88
     Pseudo is Projector augmented-wave + core cor, Zval =  6.0
     Generated using "atomic" code by A. Dal Corso  v.5.0.99 svn rev. 10869
     Shape of augmentation charge: BESSEL
     Using radial grid of 1095 points,  4 beta functions with: 
                l(1) =   0
                l(2) =   0
                l(3) =   1
                l(4) =   1
     Q(r) pseudized with 0 coefficients 


     atomic species   valence    mass     pseudopotential
        Al             3.00    26.98154     Al( 1.00)
        Au            19.00   196.96657     Au( 1.00)
        O              6.00    15.99900     O ( 1.00)

     24 Sym. Ops., with inversion, found (12 have fractional translation)


                                    s                        frac. trans.

      isym =  1     identity                                     

 cryst.   s( 1) = (     1          0          0      )
                  (     0          1          0      )
                  (     0          0          1      )

 cart.    s( 1) = (  1.0000000  0.0000000  0.0000000 )
                  (  0.0000000  1.0000000  0.0000000 )
                  (  0.0000000  0.0000000  1.0000000 )


      isym =  2     180 deg rotation - cart. axis [0,0,1]        

 cryst.   s( 2) = (    -1          0          0      )    f =(  0.0000000 )
                  (     0         -1          0      )       (  0.0000000 )
                  (     0          0          1      )       ( -0.5000000 )

 cart.    s( 2) = ( -1.0000000 -0.0000000  0.0000000 )    f =(  0.0000000 )
                  (  0.0000000 -1.0000000  0.0000000 )       (  0.0000000 )
                  (  0.0000000  0.0000000  1.0000000 )       ( -2.1093506 )


      isym =  3     180 deg rotation - cart. axis [0,1,0]        

 cryst.   s( 3) = (    -1          0          0      )    f =(  0.0000000 )
                  (     1          1          0      )       (  0.0000000 )
                  (     0          0         -1      )       (  0.5000000 )

 cart.    s( 3) = ( -1.0000000  0.0000004  0.0000000 )    f =(  0.0000000 )
                  (  0.0000000  1.0000000  0.0000000 )       (  0.0000000 )
                  (  0.0000000  0.0000000 -1.0000000 )       (  2.1093506 )


      isym =  4     180 deg rotation - cart. axis [1,0,0]        

 cryst.   s( 4) = (     1          0          0      )
                  (    -1         -1          0      )
                  (     0          0         -1      )

 cart.    s( 4) = (  1.0000000 -0.0000004  0.0000000 )
                  (  0.0000000 -1.0000000  0.0000000 )
                  (  0.0000000  0.0000000 -1.0000000 )


      isym =  5      60 deg rotation - cryst. axis [0,0,1]       

 cryst.   s( 5) = (     1          1          0      )    f =(  0.0000000 )
                  (    -1          0          0      )       (  0.0000000 )
                  (     0          0          1      )       ( -0.5000000 )

 cart.    s( 5) = (  0.5000002 -0.8660253  0.0000000 )    f =(  0.0000000 )
                  (  0.8660255  0.4999998  0.0000000 )       (  0.0000000 )
                  (  0.0000000  0.0000000  1.0000000 )       ( -2.1093506 )


      isym =  6      60 deg rotation - cryst. axis [0,0,-1]      

 cryst.   s( 6) = (     0         -1          0      )    f =(  0.0000000 )
                  (     1          1          0      )       (  0.0000000 )
                  (     0          0          1      )       ( -0.5000000 )

 cart.    s( 6) = (  0.4999998  0.8660253  0.0000000 )    f =(  0.0000000 )
                  ( -0.8660255  0.5000002  0.0000000 )       (  0.0000000 )
                  (  0.0000000  0.0000000  1.0000000 )       ( -2.1093506 )


      isym =  7     120 deg rotation - cryst. axis [0,0,1]       

 cryst.   s( 7) = (     0          1          0      )
                  (    -1         -1          0      )
                  (     0          0          1      )

 cart.    s( 7) = ( -0.4999998 -0.8660253  0.0000000 )
                  (  0.8660255 -0.5000002  0.0000000 )
                  (  0.0000000  0.0000000  1.0000000 )


      isym =  8     120 deg rotation - cryst. axis [0,0,-1]      

 cryst.   s( 8) = (    -1         -1          0      )
                  (     1          0          0      )
                  (     0          0          1      )

 cart.    s( 8) = ( -0.5000002  0.8660253  0.0000000 )
                  ( -0.8660255 -0.4999998  0.0000000 )
                  (  0.0000000  0.0000000  1.0000000 )


      isym =  9     180 deg rotation - cryst. axis [1,-1,0]      

 cryst.   s( 9) = (     0         -1          0      )    f =(  0.0000000 )
                  (    -1          0          0      )       (  0.0000000 )
                  (     0          0         -1      )       (  0.5000000 )

 cart.    s( 9) = (  0.4999998 -0.8660255  0.0000000 )    f =(  0.0000000 )
                  ( -0.8660255 -0.4999998  0.0000000 )       (  0.0000000 )
                  (  0.0000000  0.0000000 -1.0000000 )       (  2.1093506 )


      isym = 10     180 deg rotation - cryst. axis [2,1,0]       

 cryst.   s(10) = (     1          1          0      )    f =(  0.0000000 )
                  (     0         -1          0      )       (  0.0000000 )
                  (     0          0         -1      )       (  0.5000000 )

 cart.    s(10) = (  0.5000002  0.8660251  0.0000000 )    f =(  0.0000000 )
                  (  0.8660255 -0.5000002  0.0000000 )       (  0.0000000 )
                  (  0.0000000  0.0000000 -1.0000000 )       (  2.1093506 )


      isym = 11     180 deg rotation - cryst. axis [0,1,0]       

 cryst.   s(11) = (    -1         -1          0      )
                  (     0          1          0      )
                  (     0          0         -1      )

 cart.    s(11) = ( -0.5000002 -0.8660251  0.0000000 )
                  ( -0.8660255  0.5000002  0.0000000 )
                  (  0.0000000  0.0000000 -1.0000000 )


      isym = 12     180 deg rotation - cryst. axis [1,1,0]       

 cryst.   s(12) = (     0          1          0      )
                  (     1          0          0      )
                  (     0          0         -1      )

 cart.    s(12) = ( -0.4999998  0.8660255  0.0000000 )
                  (  0.8660255  0.4999998  0.0000000 )
                  (  0.0000000  0.0000000 -1.0000000 )


      isym = 13     inversion                                    

 cryst.   s(13) = (    -1          0          0      )
                  (     0         -1          0      )
                  (     0          0         -1      )

 cart.    s(13) = ( -1.0000000 -0.0000000  0.0000000 )
                  (  0.0000000 -1.0000000  0.0000000 )
                  (  0.0000000  0.0000000 -1.0000000 )


      isym = 14     inv. 180 deg rotation - cart. axis [0,0,1]   

 cryst.   s(14) = (     1          0          0      )    f =(  0.0000000 )
                  (     0          1          0      )       (  0.0000000 )
                  (     0          0         -1      )       (  0.5000000 )

 cart.    s(14) = (  1.0000000  0.0000000  0.0000000 )    f =(  0.0000000 )
                  (  0.0000000  1.0000000  0.0000000 )       (  0.0000000 )
                  (  0.0000000  0.0000000 -1.0000000 )       (  2.1093506 )


      isym = 15     inv. 180 deg rotation - cart. axis [0,1,0]   

 cryst.   s(15) = (     1          0          0      )    f =(  0.0000000 )
                  (    -1         -1          0      )       (  0.0000000 )
                  (     0          0          1      )       ( -0.5000000 )

 cart.    s(15) = (  1.0000000 -0.0000004  0.0000000 )    f =(  0.0000000 )
                  (  0.0000000 -1.0000000  0.0000000 )       (  0.0000000 )
                  (  0.0000000  0.0000000  1.0000000 )       ( -2.1093506 )


      isym = 16     inv. 180 deg rotation - cart. axis [1,0,0]   

 cryst.   s(16) = (    -1          0          0      )
                  (     1          1          0      )
                  (     0          0          1      )

 cart.    s(16) = ( -1.0000000  0.0000004  0.0000000 )
                  (  0.0000000  1.0000000  0.0000000 )
                  (  0.0000000  0.0000000  1.0000000 )


      isym = 17     inv.  60 deg rotation - cryst. axis [0,0,1]  

 cryst.   s(17) = (    -1         -1          0      )    f =(  0.0000000 )
                  (     1          0          0      )       (  0.0000000 )
                  (     0          0         -1      )       (  0.5000000 )

 cart.    s(17) = ( -0.5000002  0.8660253  0.0000000 )    f =(  0.0000000 )
                  ( -0.8660255 -0.4999998  0.0000000 )       (  0.0000000 )
                  (  0.0000000  0.0000000 -1.0000000 )       (  2.1093506 )


      isym = 18     inv.  60 deg rotation - cryst. axis [0,0,-1] 

 cryst.   s(18) = (     0          1          0      )    f =(  0.0000000 )
                  (    -1         -1          0      )       (  0.0000000 )
                  (     0          0         -1      )       (  0.5000000 )

 cart.    s(18) = ( -0.4999998 -0.8660253  0.0000000 )    f =(  0.0000000 )
                  (  0.8660255 -0.5000002  0.0000000 )       (  0.0000000 )
                  (  0.0000000  0.0000000 -1.0000000 )       (  2.1093506 )


      isym = 19     inv. 120 deg rotation - cryst. axis [0,0,1]  

 cryst.   s(19) = (     0         -1          0      )
                  (     1          1          0      )
                  (     0          0         -1      )

 cart.    s(19) = (  0.4999998  0.8660253  0.0000000 )
                  ( -0.8660255  0.5000002  0.0000000 )
                  (  0.0000000  0.0000000 -1.0000000 )


      isym = 20     inv. 120 deg rotation - cryst. axis [0,0,-1] 

 cryst.   s(20) = (     1          1          0      )
                  (    -1          0          0      )
                  (     0          0         -1      )

 cart.    s(20) = (  0.5000002 -0.8660253  0.0000000 )
                  (  0.8660255  0.4999998  0.0000000 )
                  (  0.0000000  0.0000000 -1.0000000 )


      isym = 21     inv. 180 deg rotation - cryst. axis [1,-1,0] 

 cryst.   s(21) = (     0          1          0      )    f =(  0.0000000 )
                  (     1          0          0      )       (  0.0000000 )
                  (     0          0          1      )       ( -0.5000000 )

 cart.    s(21) = ( -0.4999998  0.8660255  0.0000000 )    f =(  0.0000000 )
                  (  0.8660255  0.4999998  0.0000000 )       (  0.0000000 )
                  (  0.0000000  0.0000000  1.0000000 )       ( -2.1093506 )


      isym = 22     inv. 180 deg rotation - cryst. axis [2,1,0]  

 cryst.   s(22) = (    -1         -1          0      )    f =(  0.0000000 )
                  (     0          1          0      )       (  0.0000000 )
                  (     0          0          1      )       ( -0.5000000 )

 cart.    s(22) = ( -0.5000002 -0.8660251  0.0000000 )    f =(  0.0000000 )
                  ( -0.8660255  0.5000002  0.0000000 )       (  0.0000000 )
                  (  0.0000000  0.0000000  1.0000000 )       ( -2.1093506 )


      isym = 23     inv. 180 deg rotation - cryst. axis [0,1,0]  

 cryst.   s(23) = (     1          1          0      )
                  (     0         -1          0      )
                  (     0          0          1      )

 cart.    s(23) = (  0.5000002  0.8660251  0.0000000 )
                  (  0.8660255 -0.5000002  0.0000000 )
                  (  0.0000000  0.0000000  1.0000000 )


      isym = 24     inv. 180 deg rotation - cryst. axis [1,1,0]  

 cryst.   s(24) = (     0         -1          0      )
                  (    -1          0          0      )
                  (     0          0          1      )

 cart.    s(24) = (  0.4999998 -0.8660255  0.0000000 )
                  ( -0.8660255 -0.4999998  0.0000000 )
                  (  0.0000000  0.0000000  1.0000000 )


   Cartesian axes

     site n.     atom                  positions (alat units)
         1           Al  tau(   1) = (   0.0000000   0.0000000   0.0000000  )
         2           Al  tau(   2) = (   0.0000000   0.0000000   2.1093506  )
         3           Au  tau(   3) = (   0.5000006   0.2886749   3.1640258  )
         4           Au  tau(   4) = (  -0.0000004   0.5773506   1.0546753  )
         5           O   tau(   5) = (  -0.0000004   0.5773506   1.7860546  )
         6           O   tau(   6) = (   0.5000006   0.2886749   3.8954052  )
         7           O   tau(   7) = (  -0.0000004   0.5773506   0.3232959  )
         8           O   tau(   8) = (   0.5000006   0.2886749   2.4326465  )

   Crystallographic axes

     site n.     atom                  positions (cryst. coord.)
         1           Al  tau(   1) = (  0.0000000  0.0000000  0.0000000  )
         2           Al  tau(   2) = (  0.0000000  0.0000000  0.5000000  )
         3           Au  tau(   3) = (  0.6666670  0.3333330  0.7500000  )
         4           Au  tau(   4) = (  0.3333330  0.6666670  0.2500000  )
         5           O   tau(   5) = (  0.3333330  0.6666670  0.4233660  )
         6           O   tau(   6) = (  0.6666670  0.3333330  0.9233660  )
         7           O   tau(   7) = (  0.3333330  0.6666670  0.0766340  )
         8           O   tau(   8) = (  0.6666670  0.3333330  0.5766340  )

     number of k points=     1  Methfessel-Paxton smearing, width (Ry)=  0.0010
                       cart. coord. in units 2pi/alat
        k(    1) = (   0.0000000   0.0000000   0.0000000), wk =   2.0000000

                       cryst. coord.
        k(    1) = (   0.0000000   0.0000000   0.0000000), wk =   2.0000000

     Dense  grid:    19597 G-vectors     FFT dimensions: (  27,  27, 120)

     Smooth grid:     6929 G-vectors     FFT dimensions: (  20,  20,  90)

     Dynamical RAM for                 wfc:       0.02 MB

     Dynamical RAM for     wfc (w. buffer):       0.02 MB

     Dynamical RAM for           str. fact:       0.03 MB

     Dynamical RAM for           local pot:       0.00 MB

     Dynamical RAM for          nlocal pot:       0.05 MB

     Dynamical RAM for                qrad:       8.96 MB

     Dynamical RAM for          rho,v,vnew:       0.09 MB

     Dynamical RAM for               rhoin:       0.03 MB

     Dynamical RAM for            rho*nmix:       0.15 MB

     Dynamical RAM for           G-vectors:       0.04 MB

     Dynamical RAM for          h,s,v(r/c):       0.01 MB

     Dynamical RAM for          <psi|beta>:       0.04 MB

     Dynamical RAM for                 psi:       0.03 MB

     Dynamical RAM for                hpsi:       0.03 MB

     Dynamical RAM for                spsi:       0.03 MB

     Dynamical RAM for      wfcinit/wfcrot:       0.08 MB

     Dynamical RAM for           addusdens:       1.90 MB

     Dynamical RAM for          addusforce:       1.98 MB

     Dynamical RAM for         addusstress:       2.11 MB

     Estimated static dynamical RAM per process >       9.37 MB

     Estimated max dynamical RAM per process >      11.63 MB

     Estimated total dynamical RAM >     372.30 MB

     Check: negative core charge=   -0.000009

     Initial potential from superposition of free atoms

     starting charge      67.9952, renormalised to      68.0000
     Starting wfcs are   44 randomized atomic wfcs

Intel MKL ERROR: Parameter 8 was incorrect on entry to DGEMM .

Intel MKL ERROR: Parameter 8 was incorrect on entry to DGEMM .

Intel MKL ERROR: Parameter 8 was incorrect on entry to DGEMM .

Intel MKL ERROR: Parameter 8 was incorrect on entry to DGEMM .

Intel MKL ERROR: Parameter 8 was incorrect on entry to DGEMM .

Intel MKL ERROR: Parameter 8 was incorrect on entry to DGEMM .

Intel MKL ERROR: Parameter 8 was incorrect on entry to DGEMM .

Intel MKL ERROR: Parameter 8 was incorrect on entry to DGEMM .

Intel MKL ERROR: Parameter 8 was incorrect on entry to DGEMM .

Intel MKL ERROR: Parameter 8 was incorrect on entry to DGEMM .

Intel MKL ERROR: Parameter 8 was incorrect on entry to DGEMM .

Intel MKL ERROR: Parameter 8 was incorrect on entry to DGEMM .

Intel MKL ERROR: Parameter 8 was incorrect on entry to DGEMM .

Intel MKL ERROR: Parameter 8 was incorrect on entry to DGEMM .

Intel MKL ERROR: Parameter 8 was incorrect on entry to DGEMM .

Intel MKL ERROR: Parameter 8 was incorrect on entry to DGEMM .

Intel MKL ERROR: Parameter 8 was incorrect on entry to DGEMM .

Intel MKL ERROR: Parameter 8 was incorrect on entry to DGEMM .

Intel MKL ERROR: Parameter 8 was incorrect on entry to DGEMM .

Intel MKL ERROR: Parameter 8 was incorrect on entry to DGEMM .

Intel MKL ERROR: Parameter 8 was incorrect on entry to DGEMM .

Intel MKL ERROR: Parameter 8 was incorrect on entry to DGEMM .

Intel MKL ERROR: Parameter 8 was incorrect on entry to DGEMM .

Intel MKL ERROR: Parameter 8 was incorrect on entry to DGEMM .

Intel MKL ERROR: Parameter 8 was incorrect on entry to DGEMM .

Intel MKL ERROR: Parameter 8 was incorrect on entry to DGEMM .

Intel MKL ERROR: Parameter 8 was incorrect on entry to DGEMM .

Intel MKL ERROR: Parameter 8 was incorrect on entry to DGEMM .

Intel MKL ERROR: Parameter 8 was incorrect on entry to DGEMM .

Intel MKL ERROR: Parameter 8 was incorrect on entry to DGEMM .

Intel MKL ERROR: Parameter 8 was incorrect on entry to DGEMM .

Intel MKL ERROR: Parameter 8 was incorrect on entry to DGEMM .

Intel MKL ERROR: Parameter 8 was incorrect on entry to DGEMM .
     Checking if some PAW data can be deallocated... 

Intel MKL ERROR: Parameter 8 was incorrect on entry to DGEMM .

Intel MKL ERROR: Parameter 8 was incorrect on entry to DGEMM .

Intel MKL ERROR: Parameter 8 was incorrect on entry to DGEMM .

Intel MKL ERROR: Parameter 8 was incorrect on entry to DGEMM .

Intel MKL ERROR: Parameter 8 was incorrect on entry to DGEMM .

Intel MKL ERROR: Parameter 8 was incorrect on entry to DGEMM .

Intel MKL ERROR: Parameter 8 was incorrect on entry to DGEMM .

Intel MKL ERROR: Parameter 8 was incorrect on entry to DGEMM .

Intel MKL ERROR: Parameter 8 was incorrect on entry to DGEMM .

Intel MKL ERROR: Parameter 8 was incorrect on entry to DGEMM .

Intel MKL ERROR: Parameter 8 was incorrect on entry to DGEMM .

Intel MKL ERROR: Parameter 8 was incorrect on entry to DGEMM .

Intel MKL ERROR: Parameter 8 was incorrect on entry to DGEMM .

Intel MKL ERROR: Parameter 8 was incorrect on entry to DGEMM .

Intel MKL ERROR: Parameter 8 was incorrect on entry to DGEMM .

Intel MKL ERROR: Parameter 8 was incorrect on entry to DGEMM .

Intel MKL ERROR: Parameter 8 was incorrect on entry to DGEMM .

Intel MKL ERROR: Parameter 8 was incorrect on entry to DGEMM .

Intel MKL ERROR: Parameter 8 was incorrect on entry to DGEMM .

Intel MKL ERROR: Parameter 8 was incorrect on entry to DGEMM .

Intel MKL ERROR: Parameter 8 was incorrect on entry to DGEMM .

Intel MKL ERROR: Parameter 8 was incorrect on entry to DGEMM .

Intel MKL ERROR: Parameter 8 was incorrect on entry to DGEMM .

Intel MKL ERROR: Parameter 8 was incorrect on entry to DGEMM .

Intel MKL ERROR: Parameter 8 was incorrect on entry to DGEMM .
       PAW data deallocated on   24 nodes for type:  1
       PAW data deallocated on   16 nodes for type:  3

     total cpu time spent up to now is        1.0 secs

     Self-consistent Calculation

     iteration #  1     ecut=    30.00 Ry     beta= 0.70
     Davidson diagonalization with overlap

---- Real-time Memory Report at c_bands before calling an iterative solver
           149 MiB given to the printing process from OS
             0 MiB allocation reported by mallinfo(arena+hblkhd)
        173134 MiB available memory on the node where the printing process lives
------------------

Intel MKL ERROR: Parameter 8 was incorrect on entry to DGEMM .

Intel MKL ERROR: Parameter 8 was incorrect on entry to DGEMM .

Intel MKL ERROR: Parameter 8 was incorrect on entry to DGEMM .

Intel MKL ERROR: Parameter 8 was incorrect on entry to DGEMM .

Intel MKL ERROR: Parameter 8 was incorrect on entry to DGEMM .

Intel MKL ERROR: Parameter 8 was incorrect on entry to DGEMM .

Intel MKL ERROR: Parameter 8 was incorrect on entry to DGEMM .

Intel MKL ERROR: Parameter 8 was incorrect on entry to DGEMM .

Intel MKL ERROR: Parameter 8 was incorrect on entry to DGEMM .

Intel MKL ERROR: Parameter 8 was incorrect on entry to DGEMM .

Intel MKL ERROR: Parameter 8 was incorrect on entry to DGEMM .

Intel MKL ERROR: Parameter 8 was incorrect on entry to DGEMM .

Intel MKL ERROR: Parameter 8 was incorrect on entry to DGEMM .

Intel MKL ERROR: Parameter 8 was incorrect on entry to DGEMM .

Intel MKL ERROR: Parameter 8 was incorrect on entry to DGEMM .

Intel MKL ERROR: Parameter 8 was incorrect on entry to DGEMM .

Intel MKL ERROR: Parameter 8 was incorrect on entry to DGEMM .

Intel MKL ERROR: Parameter 8 was incorrect on entry to DGEMM .

Intel MKL ERROR: Parameter 8 was incorrect on entry to DGEMM .

Intel MKL ERROR: Parameter 8 was incorrect on entry to DGEMM .

Intel MKL ERROR: Parameter 8 was incorrect on entry to DGEMM .

Intel MKL ERROR: Parameter 8 was incorrect on entry to DGEMM .

Intel MKL ERROR: Parameter 8 was incorrect on entry to DGEMM .

Intel MKL ERROR: Parameter 8 was incorrect on entry to DGEMM .

Intel MKL ERROR: Parameter 8 was incorrect on entry to DGEMM .

Intel MKL ERROR: Parameter 8 was incorrect on entry to DGEMM .

Intel MKL ERROR: Parameter 8 was incorrect on entry to DGEMM .

Intel MKL ERROR: Parameter 8 was incorrect on entry to DGEMM .

Intel MKL ERROR: Parameter 8 was incorrect on entry to DGEMM .

Intel MKL ERROR: Parameter 8 was incorrect on entry to DGEMM .

Intel MKL ERROR: Parameter 8 was incorrect on entry to DGEMM .

Intel MKL ERROR: Parameter 8 was incorrect on entry to DGEMM .

Intel MKL ERROR: Parameter 8 was incorrect on entry to DGEMM .

Intel MKL ERROR: Parameter 8 was incorrect on entry to DGEMM .

Intel MKL ERROR: Parameter 8 was incorrect on entry to DGEMM .

Intel MKL ERROR: Parameter 8 was incorrect on entry to DGEMM .

Intel MKL ERROR: Parameter 8 was incorrect on entry to DGEMM .

Intel MKL ERROR: Parameter 8 was incorrect on entry to DGEMM .

Intel MKL ERROR: Parameter 8 was incorrect on entry to DGEMM .

Intel MKL ERROR: Parameter 8 was incorrect on entry to DGEMM .

Intel MKL ERROR: Parameter 8 was incorrect on entry to DGEMM .

Intel MKL ERROR: Parameter 8 was incorrect on entry to DGEMM .

Intel MKL ERROR: Parameter 8 was incorrect on entry to DGEMM .

Intel MKL ERROR: Parameter 8 was incorrect on entry to DGEMM .

Intel MKL ERROR: Parameter 8 was incorrect on entry to DGEMM .

Intel MKL ERROR: Parameter 8 was incorrect on entry to DGEMM .

Intel MKL ERROR: Parameter 8 was incorrect on entry to DGEMM .

Intel MKL ERROR: Parameter 8 was incorrect on entry to DGEMM .

Intel MKL ERROR: Parameter 8 was incorrect on entry to DGEMM .

Intel MKL ERROR: Parameter 8 was incorrect on entry to DGEMM .

Intel MKL ERROR: Parameter 8 was incorrect on entry to DGEMM .

Intel MKL ERROR: Parameter 8 was incorrect on entry to DGEMM .

Intel MKL ERROR: Parameter 8 was incorrect on entry to DGEMM .

Intel MKL ERROR: Parameter 8 was incorrect on entry to DGEMM .

Intel MKL ERROR: Parameter 8 was incorrect on entry to DGEMM .

Intel MKL ERROR: Parameter 8 was incorrect on entry to DGEMM .

Intel MKL ERROR: Parameter 8 was incorrect on entry to DGEMM .

Intel MKL ERROR: Parameter 8 was incorrect on entry to DGEMM .

Intel MKL ERROR: Parameter 8 was incorrect on entry to DGEMM .

Intel MKL ERROR: Parameter 8 was incorrect on entry to DGEMM .

Intel MKL ERROR: Parameter 8 was incorrect on entry to DGEMM .

Intel MKL ERROR: Parameter 8 was incorrect on entry to DGEMM .

Intel MKL ERROR: Parameter 8 was incorrect on entry to DGEMM .

Intel MKL ERROR: Parameter 8 was incorrect on entry to DGEMM .

Intel MKL ERROR: Parameter 8 was incorrect on entry to DGEMM .

Intel MKL ERROR: Parameter 8 was incorrect on entry to DGEMM .

Intel MKL ERROR: Parameter 8 was incorrect on entry to DGEMM .

Intel MKL ERROR: Parameter 8 was incorrect on entry to DGEMM .

Intel MKL ERROR: Parameter 8 was incorrect on entry to DGEMM .

Intel MKL ERROR: Parameter 8 was incorrect on entry to DGEMM .

Intel MKL ERROR: Parameter 8 was incorrect on entry to DGEMM .

Intel MKL ERROR: Parameter 8 was incorrect on entry to DGEMM .

Intel MKL ERROR: Parameter 8 was incorrect on entry to DGEMM .

Intel MKL ERROR: Parameter 8 was incorrect on entry to DGEMM .

Intel MKL ERROR: Parameter 8 was incorrect on entry to DGEMM .

Intel MKL ERROR: Parameter 8 was incorrect on entry to DGEMM .

Intel MKL ERROR: Parameter 8 was incorrect on entry to DGEMM .

Intel MKL ERROR: Parameter 8 was incorrect on entry to DGEMM .

Intel MKL ERROR: Parameter 8 was incorrect on entry to DGEMM .

Intel MKL ERROR: Parameter 8 was incorrect on entry to DGEMM .

Intel MKL ERROR: Parameter 8 was incorrect on entry to DGEMM .

Intel MKL ERROR: Parameter 8 was incorrect on entry to DGEMM .

Intel MKL ERROR: Parameter 8 was incorrect on entry to DGEMM .

Intel MKL ERROR: Parameter 8 was incorrect on entry to DGEMM .

Intel MKL ERROR: Parameter 8 was incorrect on entry to DGEMM .

Intel MKL ERROR: Parameter 8 was incorrect on entry to DGEMM .

Intel MKL ERROR: Parameter 8 was incorrect on entry to DGEMM .

Intel MKL ERROR: Parameter 8 was incorrect on entry to DGEMM .

Intel MKL ERROR: Parameter 8 was incorrect on entry to DGEMM .

Intel MKL ERROR: Parameter 8 was incorrect on entry to DGEMM .

Intel MKL ERROR: Parameter 8 was incorrect on entry to DGEMM .

Intel MKL ERROR: Parameter 8 was incorrect on entry to DGEMM .

Intel MKL ERROR: Parameter 8 was incorrect on entry to DGEMM .

Intel MKL ERROR: Parameter 8 was incorrect on entry to DGEMM .

Intel MKL ERROR: Parameter 8 was incorrect on entry to DGEMM .

Intel MKL ERROR: Parameter 8 was incorrect on entry to DGEMM .

Intel MKL ERROR: Parameter 8 was incorrect on entry to DGEMM .

Intel MKL ERROR: Parameter 8 was incorrect on entry to DGEMM .

Intel MKL ERROR: Parameter 8 was incorrect on entry to DGEMM .

Intel MKL ERROR: Parameter 8 was incorrect on entry to DGEMM .

Intel MKL ERROR: Parameter 8 was incorrect on entry to DGEMM .

Intel MKL ERROR: Parameter 8 was incorrect on entry to DGEMM .

Intel MKL ERROR: Parameter 8 was incorrect on entry to DGEMM .

Intel MKL ERROR: Parameter 8 was incorrect on entry to DGEMM .

Intel MKL ERROR: Parameter 8 was incorrect on entry to DGEMM .

Intel MKL ERROR: Parameter 8 was incorrect on entry to DGEMM .

Intel MKL ERROR: Parameter 8 was incorrect on entry to DGEMM .

Intel MKL ERROR: Parameter 8 was incorrect on entry to DGEMM .

Intel MKL ERROR: Parameter 8 was incorrect on entry to DGEMM .

Intel MKL ERROR: Parameter 8 was incorrect on entry to DGEMM .

Intel MKL ERROR: Parameter 8 was incorrect on entry to DGEMM .

Intel MKL ERROR: Parameter 8 was incorrect on entry to DGEMM .

Intel MKL ERROR: Parameter 8 was incorrect on entry to DGEMM .

Intel MKL ERROR: Parameter 8 was incorrect on entry to DGEMM .

Intel MKL ERROR: Parameter 8 was incorrect on entry to DGEMM .

Intel MKL ERROR: Parameter 8 was incorrect on entry to DGEMM .

Intel MKL ERROR: Parameter 8 was incorrect on entry to DGEMM .

Intel MKL ERROR: Parameter 8 was incorrect on entry to DGEMM .

Intel MKL ERROR: Parameter 8 was incorrect on entry to DGEMM .

Intel MKL ERROR: Parameter 8 was incorrect on entry to DGEMM .

Intel MKL ERROR: Parameter 8 was incorrect on entry to DGEMM .

Intel MKL ERROR: Parameter 8 was incorrect on entry to DGEMM .

Intel MKL ERROR: Parameter 8 was incorrect on entry to DGEMM .

Intel MKL ERROR: Parameter 8 was incorrect on entry to DGEMM .

Intel MKL ERROR: Parameter 8 was incorrect on entry to DGEMM .

Intel MKL ERROR: Parameter 8 was incorrect on entry to DGEMM .

Intel MKL ERROR: Parameter 8 was incorrect on entry to DGEMM .

Intel MKL ERROR: Parameter 8 was incorrect on entry to DGEMM .

Intel MKL ERROR: Parameter 8 was incorrect on entry to DGEMM .

Intel MKL ERROR: Parameter 8 was incorrect on entry to DGEMM .

Intel MKL ERROR: Parameter 8 was incorrect on entry to DGEMM .

Intel MKL ERROR: Parameter 8 was incorrect on entry to DGEMM .

Intel MKL ERROR: Parameter 8 was incorrect on entry to DGEMM .

Intel MKL ERROR: Parameter 8 was incorrect on entry to DGEMM .

Intel MKL ERROR: Parameter 8 was incorrect on entry to DGEMM .

Intel MKL ERROR: Parameter 8 was incorrect on entry to DGEMM .

Intel MKL ERROR: Parameter 8 was incorrect on entry to DGEMM .

Intel MKL ERROR: Parameter 8 was incorrect on entry to DGEMM .

Intel MKL ERROR: Parameter 8 was incorrect on entry to DGEMM .

Intel MKL ERROR: Parameter 8 was incorrect on entry to DGEMM .

Intel MKL ERROR: Parameter 8 was incorrect on entry to DGEMM .

Intel MKL ERROR: Parameter 8 was incorrect on entry to DGEMM .

Intel MKL ERROR: Parameter 8 was incorrect on entry to DGEMM .

Intel MKL ERROR: Parameter 8 was incorrect on entry to DGEMM .

Intel MKL ERROR: Parameter 8 was incorrect on entry to DGEMM .

Intel MKL ERROR: Parameter 8 was incorrect on entry to DGEMM .

Intel MKL ERROR: Parameter 8 was incorrect on entry to DGEMM .

Intel MKL ERROR: Parameter 8 was incorrect on entry to DGEMM .

Intel MKL ERROR: Parameter 8 was incorrect on entry to DGEMM .

Intel MKL ERROR: Parameter 8 was incorrect on entry to DGEMM .

Intel MKL ERROR: Parameter 8 was incorrect on entry to DGEMM .

Intel MKL ERROR: Parameter 8 was incorrect on entry to DGEMM .

Intel MKL ERROR: Parameter 8 was incorrect on entry to DGEMM .

Intel MKL ERROR: Parameter 8 was incorrect on entry to DGEMM .

Intel MKL ERROR: Parameter 8 was incorrect on entry to DGEMM .

Intel MKL ERROR: Parameter 8 was incorrect on entry to DGEMM .

Intel MKL ERROR: Parameter 8 was incorrect on entry to DGEMM .

Intel MKL ERROR: Parameter 8 was incorrect on entry to DGEMM .

Intel MKL ERROR: Parameter 8 was incorrect on entry to DGEMM .

Intel MKL ERROR: Parameter 8 was incorrect on entry to DGEMM .

Intel MKL ERROR: Parameter 8 was incorrect on entry to DGEMM .

Intel MKL ERROR: Parameter 8 was incorrect on entry to DGEMM .

Intel MKL ERROR: Parameter 8 was incorrect on entry to DGEMM .

Intel MKL ERROR: Parameter 8 was incorrect on entry to DGEMM .

Intel MKL ERROR: Parameter 8 was incorrect on entry to DGEMM .

Intel MKL ERROR: Parameter 8 was incorrect on entry to DGEMM .

Intel MKL ERROR: Parameter 8 was incorrect on entry to DGEMM .

Intel MKL ERROR: Parameter 8 was incorrect on entry to DGEMM .

Intel MKL ERROR: Parameter 8 was incorrect on entry to DGEMM .

Intel MKL ERROR: Parameter 8 was incorrect on entry to DGEMM .

Intel MKL ERROR: Parameter 8 was incorrect on entry to DGEMM .

Intel MKL ERROR: Parameter 8 was incorrect on entry to DGEMM .

Intel MKL ERROR: Parameter 8 was incorrect on entry to DGEMM .

Intel MKL ERROR: Parameter 8 was incorrect on entry to DGEMM .

Intel MKL ERROR: Parameter 8 was incorrect on entry to DGEMM .

Intel MKL ERROR: Parameter 8 was incorrect on entry to DGEMM .

Intel MKL ERROR: Parameter 8 was incorrect on entry to DGEMM .

Intel MKL ERROR: Parameter 8 was incorrect on entry to DGEMM .

Intel MKL ERROR: Parameter 8 was incorrect on entry to DGEMM .

Intel MKL ERROR: Parameter 8 was incorrect on entry to DGEMM .

Intel MKL ERROR: Parameter 8 was incorrect on entry to DGEMM .

Intel MKL ERROR: Parameter 8 was incorrect on entry to DGEMM .

Intel MKL ERROR: Parameter 8 was incorrect on entry to DGEMM .

Intel MKL ERROR: Parameter 8 was incorrect on entry to DGEMM .

Intel MKL ERROR: Parameter 8 was incorrect on entry to DGEMM .

Intel MKL ERROR: Parameter 8 was incorrect on entry to DGEMM .

Intel MKL ERROR: Parameter 8 was incorrect on entry to DGEMM .

Intel MKL ERROR: Parameter 8 was incorrect on entry to DGEMM .

Intel MKL ERROR: Parameter 8 was incorrect on entry to DGEMM .

Intel MKL ERROR: Parameter 8 was incorrect on entry to DGEMM .

Intel MKL ERROR: Parameter 8 was incorrect on entry to DGEMM .

Intel MKL ERROR: Parameter 8 was incorrect on entry to DGEMM .

Intel MKL ERROR: Parameter 8 was incorrect on entry to DGEMM .

Intel MKL ERROR: Parameter 8 was incorrect on entry to DGEMM .

Intel MKL ERROR: Parameter 8 was incorrect on entry to DGEMM .

Intel MKL ERROR: Parameter 8 was incorrect on entry to DGEMM .

Intel MKL ERROR: Parameter 8 was incorrect on entry to DGEMM .

Intel MKL ERROR: Parameter 8 was incorrect on entry to DGEMM .

Intel MKL ERROR: Parameter 8 was incorrect on entry to DGEMM .

Intel MKL ERROR: Parameter 8 was incorrect on entry to DGEMM .

Intel MKL ERROR: Parameter 8 was incorrect on entry to DGEMM .

Intel MKL ERROR: Parameter 8 was incorrect on entry to DGEMM .

Intel MKL ERROR: Parameter 8 was incorrect on entry to DGEMM .

Intel MKL ERROR: Parameter 8 was incorrect on entry to DGEMM .

Intel MKL ERROR: Parameter 8 was incorrect on entry to DGEMM .

Intel MKL ERROR: Parameter 8 was incorrect on entry to DGEMM .

Intel MKL ERROR: Parameter 8 was incorrect on entry to DGEMM .

Intel MKL ERROR: Parameter 8 was incorrect on entry to DGEMM .

Intel MKL ERROR: Parameter 8 was incorrect on entry to DGEMM .

Intel MKL ERROR: Parameter 8 was incorrect on entry to DGEMM .

Intel MKL ERROR: Parameter 8 was incorrect on entry to DGEMM .

Intel MKL ERROR: Parameter 8 was incorrect on entry to DGEMM .

Intel MKL ERROR: Parameter 8 was incorrect on entry to DGEMM .

Intel MKL ERROR: Parameter 8 was incorrect on entry to DGEMM .

Intel MKL ERROR: Parameter 8 was incorrect on entry to DGEMM .

Intel MKL ERROR: Parameter 8 was incorrect on entry to DGEMM .

Intel MKL ERROR: Parameter 8 was incorrect on entry to DGEMM .

Intel MKL ERROR: Parameter 8 was incorrect on entry to DGEMM .

Intel MKL ERROR: Parameter 8 was incorrect on entry to DGEMM .

Intel MKL ERROR: Parameter 8 was incorrect on entry to DGEMM .

Intel MKL ERROR: Parameter 8 was incorrect on entry to DGEMM .

Intel MKL ERROR: Parameter 8 was incorrect on entry to DGEMM .

Intel MKL ERROR: Parameter 8 was incorrect on entry to DGEMM .

Intel MKL ERROR: Parameter 8 was incorrect on entry to DGEMM .

Intel MKL ERROR: Parameter 8 was incorrect on entry to DGEMM .

Intel MKL ERROR: Parameter 8 was incorrect on entry to DGEMM .

Intel MKL ERROR: Parameter 6 was incorrect on entry to DGEMV .

Intel MKL ERROR: Parameter 8 was incorrect on entry to DGEMM .

Intel MKL ERROR: Parameter 6 was incorrect on entry to DGEMV .

Intel MKL ERROR: Parameter 8 was incorrect on entry to DGEMM .

Intel MKL ERROR: Parameter 8 was incorrect on entry to DGEMM .

Intel MKL ERROR: Parameter 8 was incorrect on entry to DGEMM .

Intel MKL ERROR: Parameter 8 was incorrect on entry to DGEMM .

Intel MKL ERROR: Parameter 8 was incorrect on entry to DGEMM .

Intel MKL ERROR: Parameter 8 was incorrect on entry to DGEMM .

Intel MKL ERROR: Parameter 8 was incorrect on entry to DGEMM .

Intel MKL ERROR: Parameter 8 was incorrect on entry to DGEMM .

Intel MKL ERROR: Parameter 8 was incorrect on entry to DGEMM .

Intel MKL ERROR: Parameter 8 was incorrect on entry to DGEMM .

Intel MKL ERROR: Parameter 8 was incorrect on entry to DGEMM .

Intel MKL ERROR: Parameter 8 was incorrect on entry to DGEMM .

Intel MKL ERROR: Parameter 8 was incorrect on entry to DGEMM .

Intel MKL ERROR: Parameter 8 was incorrect on entry to DGEMM .

Intel MKL ERROR: Parameter 8 was incorrect on entry to DGEMM .

Intel MKL ERROR: Parameter 8 was incorrect on entry to DGEMM .

Intel MKL ERROR: Parameter 8 was incorrect on entry to DGEMM .

Intel MKL ERROR: Parameter 8 was incorrect on entry to DGEMM .

Intel MKL ERROR: Parameter 8 was incorrect on entry to DGEMM .

Intel MKL ERROR: Parameter 8 was incorrect on entry to DGEMM .

Intel MKL ERROR: Parameter 8 was incorrect on entry to DGEMM .

Intel MKL ERROR: Parameter 8 was incorrect on entry to DGEMM .

Intel MKL ERROR: Parameter 8 was incorrect on entry to DGEMM .

Intel MKL ERROR: Parameter 8 was incorrect on entry to DGEMM .

Intel MKL ERROR: Parameter 8 was incorrect on entry to DGEMM .

Intel MKL ERROR: Parameter 8 was incorrect on entry to DGEMM .

Intel MKL ERROR: Parameter 8 was incorrect on entry to DGEMM .

Intel MKL ERROR: Parameter 8 was incorrect on entry to DGEMM .

Intel MKL ERROR: Parameter 8 was incorrect on entry to DGEMM .

Intel MKL ERROR: Parameter 8 was incorrect on entry to DGEMM .
     ethr =  1.00E-02,  avg # of iterations =  3.0

Intel MKL ERROR: Parameter 8 was incorrect on entry to DGEMM .

     total cpu time spent up to now is        1.1 secs

     total energy              =    -793.54474647 Ry
     estimated scf accuracy    <       2.12245883 Ry

     iteration #  2     ecut=    30.00 Ry     beta= 0.70
     Davidson diagonalization with overlap

---- Real-time Memory Report at c_bands before calling an iterative solver
           153 MiB given to the printing process from OS
             0 MiB allocation reported by mallinfo(arena+hblkhd)
        173067 MiB available memory on the node where the printing process lives
------------------

Intel MKL ERROR: Parameter 8 was incorrect on entry to DGEMM .

Intel MKL ERROR: Parameter 8 was incorrect on entry to DGEMM .

Intel MKL ERROR: Parameter 8 was incorrect on entry to DGEMM .

Intel MKL ERROR: Parameter 8 was incorrect on entry to DGEMM .

Intel MKL ERROR: Parameter 8 was incorrect on entry to DGEMM .

Intel MKL ERROR: Parameter 8 was incorrect on entry to DGEMM .

Intel MKL ERROR: Parameter 8 was incorrect on entry to DGEMM .

Intel MKL ERROR: Parameter 8 was incorrect on entry to DGEMM .

Intel MKL ERROR: Parameter 8 was incorrect on entry to DGEMM .

Intel MKL ERROR: Parameter 8 was incorrect on entry to DGEMM .

Intel MKL ERROR: Parameter 8 was incorrect on entry to DGEMM .

Intel MKL ERROR: Parameter 8 was incorrect on entry to DGEMM .

Intel MKL ERROR: Parameter 8 was incorrect on entry to DGEMM .

Intel MKL ERROR: Parameter 8 was incorrect on entry to DGEMM .

Intel MKL ERROR: Parameter 8 was incorrect on entry to DGEMM .

Intel MKL ERROR: Parameter 8 was incorrect on entry to DGEMM .

Intel MKL ERROR: Parameter 8 was incorrect on entry to DGEMM .

Intel MKL ERROR: Parameter 8 was incorrect on entry to DGEMM .

Intel MKL ERROR: Parameter 8 was incorrect on entry to DGEMM .

Intel MKL ERROR: Parameter 8 was incorrect on entry to DGEMM .

Intel MKL ERROR: Parameter 8 was incorrect on entry to DGEMM .

Intel MKL ERROR: Parameter 8 was incorrect on entry to DGEMM .

Intel MKL ERROR: Parameter 8 was incorrect on entry to DGEMM .

Intel MKL ERROR: Parameter 8 was incorrect on entry to DGEMM .

Intel MKL ERROR: Parameter 8 was incorrect on entry to DGEMM .

Intel MKL ERROR: Parameter 8 was incorrect on entry to DGEMM .

Intel MKL ERROR: Parameter 8 was incorrect on entry to DGEMM .

Intel MKL ERROR: Parameter 8 was incorrect on entry to DGEMM .

Intel MKL ERROR: Parameter 8 was incorrect on entry to DGEMM .

Intel MKL ERROR: Parameter 8 was incorrect on entry to DGEMM .

Intel MKL ERROR: Parameter 8 was incorrect on entry to DGEMM .

Intel MKL ERROR: Parameter 8 was incorrect on entry to DGEMM .

Intel MKL ERROR: Parameter 8 was incorrect on entry to DGEMM .

Intel MKL ERROR: Parameter 8 was incorrect on entry to DGEMM .

Intel MKL ERROR: Parameter 8 was incorrect on entry to DGEMM .

Intel MKL ERROR: Parameter 8 was incorrect on entry to DGEMM .

Intel MKL ERROR: Parameter 8 was incorrect on entry to DGEMM .

Intel MKL ERROR: Parameter 8 was incorrect on entry to DGEMM .

Intel MKL ERROR: Parameter 8 was incorrect on entry to DGEMM .

Intel MKL ERROR: Parameter 8 was incorrect on entry to DGEMM .

Intel MKL ERROR: Parameter 8 was incorrect on entry to DGEMM .

Intel MKL ERROR: Parameter 8 was incorrect on entry to DGEMM .

Intel MKL ERROR: Parameter 8 was incorrect on entry to DGEMM .

Intel MKL ERROR: Parameter 8 was incorrect on entry to DGEMM .

Intel MKL ERROR: Parameter 8 was incorrect on entry to DGEMM .

Intel MKL ERROR: Parameter 8 was incorrect on entry to DGEMM .

Intel MKL ERROR: Parameter 8 was incorrect on entry to DGEMM .

Intel MKL ERROR: Parameter 8 was incorrect on entry to DGEMM .

Intel MKL ERROR: Parameter 8 was incorrect on entry to DGEMM .

Intel MKL ERROR: Parameter 8 was incorrect on entry to DGEMM .

Intel MKL ERROR: Parameter 8 was incorrect on entry to DGEMM .

Intel MKL ERROR: Parameter 8 was incorrect on entry to DGEMM .

Intel MKL ERROR: Parameter 8 was incorrect on entry to DGEMM .

Intel MKL ERROR: Parameter 8 was incorrect on entry to DGEMM .

Intel MKL ERROR: Parameter 8 was incorrect on entry to DGEMM .

Intel MKL ERROR: Parameter 8 was incorrect on entry to DGEMM .

Intel MKL ERROR: Parameter 8 was incorrect on entry to DGEMM .

Intel MKL ERROR: Parameter 8 was incorrect on entry to DGEMM .

Intel MKL ERROR: Parameter 8 was incorrect on entry to DGEMM .

Intel MKL ERROR: Parameter 8 was incorrect on entry to DGEMM .

Intel MKL ERROR: Parameter 8 was incorrect on entry to DGEMM .

Intel MKL ERROR: Parameter 8 was incorrect on entry to DGEMM .

Intel MKL ERROR: Parameter 8 was incorrect on entry to DGEMM .

Intel MKL ERROR: Parameter 8 was incorrect on entry to DGEMM .

Intel MKL ERROR: Parameter 8 was incorrect on entry to DGEMM .

Intel MKL ERROR: Parameter 8 was incorrect on entry to DGEMM .

Intel MKL ERROR: Parameter 8 was incorrect on entry to DGEMM .

Intel MKL ERROR: Parameter 8 was incorrect on entry to DGEMM .

Intel MKL ERROR: Parameter 8 was incorrect on entry to DGEMM .

Intel MKL ERROR: Parameter 8 was incorrect on entry to DGEMM .

Intel MKL ERROR: Parameter 8 was incorrect on entry to DGEMM .

Intel MKL ERROR: Parameter 8 was incorrect on entry to DGEMM .

Intel MKL ERROR: Parameter 8 was incorrect on entry to DGEMM .

Intel MKL ERROR: Parameter 8 was incorrect on entry to DGEMM .

Intel MKL ERROR: Parameter 8 was incorrect on entry to DGEMM .

Intel MKL ERROR: Parameter 8 was incorrect on entry to DGEMM .

Intel MKL ERROR: Parameter 8 was incorrect on entry to DGEMM .

Intel MKL ERROR: Parameter 8 was incorrect on entry to DGEMM .

Intel MKL ERROR: Parameter 8 was incorrect on entry to DGEMM .

Intel MKL ERROR: Parameter 8 was incorrect on entry to DGEMM .

Intel MKL ERROR: Parameter 8 was incorrect on entry to DGEMM .

Intel MKL ERROR: Parameter 8 was incorrect on entry to DGEMM .

Intel MKL ERROR: Parameter 8 was incorrect on entry to DGEMM .

Intel MKL ERROR: Parameter 8 was incorrect on entry to DGEMM .

Intel MKL ERROR: Parameter 8 was incorrect on entry to DGEMM .

Intel MKL ERROR: Parameter 8 was incorrect on entry to DGEMM .

Intel MKL ERROR: Parameter 8 was incorrect on entry to DGEMM .

Intel MKL ERROR: Parameter 8 was incorrect on entry to DGEMM .

Intel MKL ERROR: Parameter 8 was incorrect on entry to DGEMM .

Intel MKL ERROR: Parameter 8 was incorrect on entry to DGEMM .

Intel MKL ERROR: Parameter 8 was incorrect on entry to DGEMM .

Intel MKL ERROR: Parameter 8 was incorrect on entry to DGEMM .

Intel MKL ERROR: Parameter 8 was incorrect on entry to DGEMM .

Intel MKL ERROR: Parameter 8 was incorrect on entry to DGEMM .

Intel MKL ERROR: Parameter 8 was incorrect on entry to DGEMM .

Intel MKL ERROR: Parameter 8 was incorrect on entry to DGEMM .

Intel MKL ERROR: Parameter 8 was incorrect on entry to DGEMM .

Intel MKL ERROR: Parameter 8 was incorrect on entry to DGEMM .

Intel MKL ERROR: Parameter 8 was incorrect on entry to DGEMM .

Intel MKL ERROR: Parameter 8 was incorrect on entry to DGEMM .

Intel MKL ERROR: Parameter 8 was incorrect on entry to DGEMM .

Intel MKL ERROR: Parameter 8 was incorrect on entry to DGEMM .

Intel MKL ERROR: Parameter 8 was incorrect on entry to DGEMM .

Intel MKL ERROR: Parameter 8 was incorrect on entry to DGEMM .

Intel MKL ERROR: Parameter 8 was incorrect on entry to DGEMM .

Intel MKL ERROR: Parameter 8 was incorrect on entry to DGEMM .

Intel MKL ERROR: Parameter 8 was incorrect on entry to DGEMM .

Intel MKL ERROR: Parameter 8 was incorrect on entry to DGEMM .

Intel MKL ERROR: Parameter 8 was incorrect on entry to DGEMM .

Intel MKL ERROR: Parameter 8 was incorrect on entry to DGEMM .

Intel MKL ERROR: Parameter 8 was incorrect on entry to DGEMM .

Intel MKL ERROR: Parameter 8 was incorrect on entry to DGEMM .

Intel MKL ERROR: Parameter 8 was incorrect on entry to DGEMM .

Intel MKL ERROR: Parameter 8 was incorrect on entry to DGEMM .

Intel MKL ERROR: Parameter 8 was incorrect on entry to DGEMM .

Intel MKL ERROR: Parameter 8 was incorrect on entry to DGEMM .

Intel MKL ERROR: Parameter 8 was incorrect on entry to DGEMM .

Intel MKL ERROR: Parameter 8 was incorrect on entry to DGEMM .

Intel MKL ERROR: Parameter 8 was incorrect on entry to DGEMM .

Intel MKL ERROR: Parameter 8 was incorrect on entry to DGEMM .

Intel MKL ERROR: Parameter 8 was incorrect on entry to DGEMM .

Intel MKL ERROR: Parameter 8 was incorrect on entry to DGEMM .

Intel MKL ERROR: Parameter 8 was incorrect on entry to DGEMM .

Intel MKL ERROR: Parameter 8 was incorrect on entry to DGEMM .

Intel MKL ERROR: Parameter 8 was incorrect on entry to DGEMM .

Intel MKL ERROR: Parameter 8 was incorrect on entry to DGEMM .

Intel MKL ERROR: Parameter 8 was incorrect on entry to DGEMM .

Intel MKL ERROR: Parameter 8 was incorrect on entry to DGEMM .

Intel MKL ERROR: Parameter 8 was incorrect on entry to DGEMM .

Intel MKL ERROR: Parameter 8 was incorrect on entry to DGEMM .

Intel MKL ERROR: Parameter 8 was incorrect on entry to DGEMM .

Intel MKL ERROR: Parameter 8 was incorrect on entry to DGEMM .

Intel MKL ERROR: Parameter 8 was incorrect on entry to DGEMM .

Intel MKL ERROR: Parameter 8 was incorrect on entry to DGEMM .

Intel MKL ERROR: Parameter 8 was incorrect on entry to DGEMM .

Intel MKL ERROR: Parameter 8 was incorrect on entry to DGEMM .

Intel MKL ERROR: Parameter 8 was incorrect on entry to DGEMM .

Intel MKL ERROR: Parameter 8 was incorrect on entry to DGEMM .

Intel MKL ERROR: Parameter 8 was incorrect on entry to DGEMM .

Intel MKL ERROR: Parameter 8 was incorrect on entry to DGEMM .

Intel MKL ERROR: Parameter 8 was incorrect on entry to DGEMM .

Intel MKL ERROR: Parameter 8 was incorrect on entry to DGEMM .

Intel MKL ERROR: Parameter 8 was incorrect on entry to DGEMM .

Intel MKL ERROR: Parameter 8 was incorrect on entry to DGEMM .

Intel MKL ERROR: Parameter 8 was incorrect on entry to DGEMM .

Intel MKL ERROR: Parameter 8 was incorrect on entry to DGEMM .

Intel MKL ERROR: Parameter 8 was incorrect on entry to DGEMM .

Intel MKL ERROR: Parameter 8 was incorrect on entry to DGEMM .

Intel MKL ERROR: Parameter 8 was incorrect on entry to DGEMM .

Intel MKL ERROR: Parameter 8 was incorrect on entry to DGEMM .

Intel MKL ERROR: Parameter 8 was incorrect on entry to DGEMM .

Intel MKL ERROR: Parameter 8 was incorrect on entry to DGEMM .

Intel MKL ERROR: Parameter 8 was incorrect on entry to DGEMM .

Intel MKL ERROR: Parameter 8 was incorrect on entry to DGEMM .

Intel MKL ERROR: Parameter 8 was incorrect on entry to DGEMM .

Intel MKL ERROR: Parameter 8 was incorrect on entry to DGEMM .

Intel MKL ERROR: Parameter 8 was incorrect on entry to DGEMM .

Intel MKL ERROR: Parameter 8 was incorrect on entry to DGEMM .

Intel MKL ERROR: Parameter 8 was incorrect on entry to DGEMM .

Intel MKL ERROR: Parameter 8 was incorrect on entry to DGEMM .

Intel MKL ERROR: Parameter 8 was incorrect on entry to DGEMM .

Intel MKL ERROR: Parameter 8 was incorrect on entry to DGEMM .

Intel MKL ERROR: Parameter 8 was incorrect on entry to DGEMM .

Intel MKL ERROR: Parameter 8 was incorrect on entry to DGEMM .

Intel MKL ERROR: Parameter 8 was incorrect on entry to DGEMM .

Intel MKL ERROR: Parameter 8 was incorrect on entry to DGEMM .

Intel MKL ERROR: Parameter 8 was incorrect on entry to DGEMM .

Intel MKL ERROR: Parameter 8 was incorrect on entry to DGEMM .

Intel MKL ERROR: Parameter 8 was incorrect on entry to DGEMM .

Intel MKL ERROR: Parameter 8 was incorrect on entry to DGEMM .

Intel MKL ERROR: Parameter 8 was incorrect on entry to DGEMM .

Intel MKL ERROR: Parameter 8 was incorrect on entry to DGEMM .

Intel MKL ERROR: Parameter 8 was incorrect on entry to DGEMM .

Intel MKL ERROR: Parameter 8 was incorrect on entry to DGEMM .

Intel MKL ERROR: Parameter 8 was incorrect on entry to DGEMM .

Intel MKL ERROR: Parameter 8 was incorrect on entry to DGEMM .

Intel MKL ERROR: Parameter 8 was incorrect on entry to DGEMM .

Intel MKL ERROR: Parameter 8 was incorrect on entry to DGEMM .

Intel MKL ERROR: Parameter 8 was incorrect on entry to DGEMM .

Intel MKL ERROR: Parameter 8 was incorrect on entry to DGEMM .

Intel MKL ERROR: Parameter 8 was incorrect on entry to DGEMM .

Intel MKL ERROR: Parameter 8 was incorrect on entry to DGEMM .

Intel MKL ERROR: Parameter 8 was incorrect on entry to DGEMM .

Intel MKL ERROR: Parameter 8 was incorrect on entry to DGEMM .

Intel MKL ERROR: Parameter 8 was incorrect on entry to DGEMM .

Intel MKL ERROR: Parameter 8 was incorrect on entry to DGEMM .

Intel MKL ERROR: Parameter 8 was incorrect on entry to DGEMM .

Intel MKL ERROR: Parameter 8 was incorrect on entry to DGEMM .

Intel MKL ERROR: Parameter 8 was incorrect on entry to DGEMM .

Intel MKL ERROR: Parameter 8 was incorrect on entry to DGEMM .

Intel MKL ERROR: Parameter 8 was incorrect on entry to DGEMM .

Intel MKL ERROR: Parameter 8 was incorrect on entry to DGEMM .

Intel MKL ERROR: Parameter 8 was incorrect on entry to DGEMM .

Intel MKL ERROR: Parameter 8 was incorrect on entry to DGEMM .

Intel MKL ERROR: Parameter 8 was incorrect on entry to DGEMM .

Intel MKL ERROR: Parameter 8 was incorrect on entry to DGEMM .

Intel MKL ERROR: Parameter 8 was incorrect on entry to DGEMM .

Intel MKL ERROR: Parameter 8 was incorrect on entry to DGEMM .

Intel MKL ERROR: Parameter 8 was incorrect on entry to DGEMM .

Intel MKL ERROR: Parameter 8 was incorrect on entry to DGEMM .

Intel MKL ERROR: Parameter 8 was incorrect on entry to DGEMM .

Intel MKL ERROR: Parameter 8 was incorrect on entry to DGEMM .

Intel MKL ERROR: Parameter 8 was incorrect on entry to DGEMM .

Intel MKL ERROR: Parameter 8 was incorrect on entry to DGEMM .

Intel MKL ERROR: Parameter 8 was incorrect on entry to DGEMM .

Intel MKL ERROR: Parameter 8 was incorrect on entry to DGEMM .

Intel MKL ERROR: Parameter 8 was incorrect on entry to DGEMM .

Intel MKL ERROR: Parameter 8 was incorrect on entry to DGEMM .

Intel MKL ERROR: Parameter 8 was incorrect on entry to DGEMM .

Intel MKL ERROR: Parameter 8 was incorrect on entry to DGEMM .

Intel MKL ERROR: Parameter 8 was incorrect on entry to DGEMM .

Intel MKL ERROR: Parameter 8 was incorrect on entry to DGEMM .

Intel MKL ERROR: Parameter 8 was incorrect on entry to DGEMM .

Intel MKL ERROR: Parameter 8 was incorrect on entry to DGEMM .

Intel MKL ERROR: Parameter 8 was incorrect on entry to DGEMM .

Intel MKL ERROR: Parameter 8 was incorrect on entry to DGEMM .

Intel MKL ERROR: Parameter 8 was incorrect on entry to DGEMM .

Intel MKL ERROR: Parameter 8 was incorrect on entry to DGEMM .

Intel MKL ERROR: Parameter 8 was incorrect on entry to DGEMM .

Intel MKL ERROR: Parameter 8 was incorrect on entry to DGEMM .

Intel MKL ERROR: Parameter 8 was incorrect on entry to DGEMM .

Intel MKL ERROR: Parameter 8 was incorrect on entry to DGEMM .

Intel MKL ERROR: Parameter 8 was incorrect on entry to DGEMM .

Intel MKL ERROR: Parameter 8 was incorrect on entry to DGEMM .

Intel MKL ERROR: Parameter 8 was incorrect on entry to DGEMM .

Intel MKL ERROR: Parameter 8 was incorrect on entry to DGEMM .

Intel MKL ERROR: Parameter 8 was incorrect on entry to DGEMM .

Intel MKL ERROR: Parameter 8 was incorrect on entry to DGEMM .

Intel MKL ERROR: Parameter 8 was incorrect on entry to DGEMM .

Intel MKL ERROR: Parameter 8 was incorrect on entry to DGEMM .

Intel MKL ERROR: Parameter 8 was incorrect on entry to DGEMM .

Intel MKL ERROR: Parameter 8 was incorrect on entry to DGEMM .

Intel MKL ERROR: Parameter 8 was incorrect on entry to DGEMM .

Intel MKL ERROR: Parameter 8 was incorrect on entry to DGEMM .

Intel MKL ERROR: Parameter 8 was incorrect on entry to DGEMM .

Intel MKL ERROR: Parameter 8 was incorrect on entry to DGEMM .

Intel MKL ERROR: Parameter 6 was incorrect on entry to DGEMV .

Intel MKL ERROR: Parameter 8 was incorrect on entry to DGEMM .

Intel MKL ERROR: Parameter 6 was incorrect on entry to DGEMV .

Intel MKL ERROR: Parameter 8 was incorrect on entry to DGEMM .

Intel MKL ERROR: Parameter 8 was incorrect on entry to DGEMM .

Intel MKL ERROR: Parameter 8 was incorrect on entry to DGEMM .

Intel MKL ERROR: Parameter 8 was incorrect on entry to DGEMM .

Intel MKL ERROR: Parameter 8 was incorrect on entry to DGEMM .

Intel MKL ERROR: Parameter 8 was incorrect on entry to DGEMM .

Intel MKL ERROR: Parameter 8 was incorrect on entry to DGEMM .

Intel MKL ERROR: Parameter 8 was incorrect on entry to DGEMM .

Intel MKL ERROR: Parameter 8 was incorrect on entry to DGEMM .

Intel MKL ERROR: Parameter 8 was incorrect on entry to DGEMM .

Intel MKL ERROR: Parameter 8 was incorrect on entry to DGEMM .

Intel MKL ERROR: Parameter 8 was incorrect on entry to DGEMM .

Intel MKL ERROR: Parameter 8 was incorrect on entry to DGEMM .

Intel MKL ERROR: Parameter 8 was incorrect on entry to DGEMM .

Intel MKL ERROR: Parameter 8 was incorrect on entry to DGEMM .

Intel MKL ERROR: Parameter 8 was incorrect on entry to DGEMM .

Intel MKL ERROR: Parameter 8 was incorrect on entry to DGEMM .

Intel MKL ERROR: Parameter 8 was incorrect on entry to DGEMM .

Intel MKL ERROR: Parameter 8 was incorrect on entry to DGEMM .

Intel MKL ERROR: Parameter 8 was incorrect on entry to DGEMM .

Intel MKL ERROR: Parameter 6 was incorrect on entry to DGEMV .

Intel MKL ERROR: Parameter 8 was incorrect on entry to DGEMM .

Intel MKL ERROR: Parameter 6 was incorrect on entry to DGEMV .

Intel MKL ERROR: Parameter 8 was incorrect on entry to DGEMM .

Intel MKL ERROR: Parameter 8 was incorrect on entry to DGEMM .

Intel MKL ERROR: Parameter 8 was incorrect on entry to DGEMM .

Intel MKL ERROR: Parameter 8 was incorrect on entry to DGEMM .

Intel MKL ERROR: Parameter 8 was incorrect on entry to DGEMM .

Intel MKL ERROR: Parameter 8 was incorrect on entry to DGEMM .

Intel MKL ERROR: Parameter 8 was incorrect on entry to DGEMM .

Intel MKL ERROR: Parameter 8 was incorrect on entry to DGEMM .

Intel MKL ERROR: Parameter 8 was incorrect on entry to DGEMM .

Intel MKL ERROR: Parameter 8 was incorrect on entry to DGEMM .

Intel MKL ERROR: Parameter 8 was incorrect on entry to DGEMM .

Intel MKL ERROR: Parameter 8 was incorrect on entry to DGEMM .

Intel MKL ERROR: Parameter 8 was incorrect on entry to DGEMM .

Intel MKL ERROR: Parameter 8 was incorrect on entry to DGEMM .

Intel MKL ERROR: Parameter 8 was incorrect on entry to DGEMM .

Intel MKL ERROR: Parameter 8 was incorrect on entry to DGEMM .

Intel MKL ERROR: Parameter 8 was incorrect on entry to DGEMM .

Intel MKL ERROR: Parameter 8 was incorrect on entry to DGEMM .

Intel MKL ERROR: Parameter 8 was incorrect on entry to DGEMM .

Intel MKL ERROR: Parameter 8 was incorrect on entry to DGEMM .

Intel MKL ERROR: Parameter 6 was incorrect on entry to DGEMV .

Intel MKL ERROR: Parameter 8 was incorrect on entry to DGEMM .

Intel MKL ERROR: Parameter 6 was incorrect on entry to DGEMV .

Intel MKL ERROR: Parameter 8 was incorrect on entry to DGEMM .

Intel MKL ERROR: Parameter 8 was incorrect on entry to DGEMM .

Intel MKL ERROR: Parameter 8 was incorrect on entry to DGEMM .

Intel MKL ERROR: Parameter 8 was incorrect on entry to DGEMM .

Intel MKL ERROR: Parameter 8 was incorrect on entry to DGEMM .

Intel MKL ERROR: Parameter 8 was incorrect on entry to DGEMM .

Intel MKL ERROR: Parameter 8 was incorrect on entry to DGEMM .

Intel MKL ERROR: Parameter 8 was incorrect on entry to DGEMM .

Intel MKL ERROR: Parameter 8 was incorrect on entry to DGEMM .

Intel MKL ERROR: Parameter 8 was incorrect on entry to DGEMM .
     ethr =  3.12E-03,  avg # of iterations =  5.0

Intel MKL ERROR: Parameter 8 was incorrect on entry to DGEMM .

Intel MKL ERROR: Parameter 8 was incorrect on entry to DGEMM .

Intel MKL ERROR: Parameter 8 was incorrect on entry to DGEMM .

Intel MKL ERROR: Parameter 8 was incorrect on entry to DGEMM .

Intel MKL ERROR: Parameter 8 was incorrect on entry to DGEMM .

Intel MKL ERROR: Parameter 8 was incorrect on entry to DGEMM .

Intel MKL ERROR: Parameter 8 was incorrect on entry to DGEMM .

Intel MKL ERROR: Parameter 8 was incorrect on entry to DGEMM .

Intel MKL ERROR: Parameter 8 was incorrect on entry to DGEMM .

Intel MKL ERROR: Parameter 8 was incorrect on entry to DGEMM .

Intel MKL ERROR: Parameter 8 was incorrect on entry to DGEMM .

Intel MKL ERROR: Parameter 8 was incorrect on entry to DGEMM .

Intel MKL ERROR: Parameter 8 was incorrect on entry to DGEMM .

Intel MKL ERROR: Parameter 8 was incorrect on entry to DGEMM .

Intel MKL ERROR: Parameter 8 was incorrect on entry to DGEMM .

Intel MKL ERROR: Parameter 8 was incorrect on entry to DGEMM .

Intel MKL ERROR: Parameter 8 was incorrect on entry to DGEMM .

Intel MKL ERROR: Parameter 8 was incorrect on entry to DGEMM .

Intel MKL ERROR: Parameter 8 was incorrect on entry to DGEMM .

Intel MKL ERROR: Parameter 8 was incorrect on entry to DGEMM .

Intel MKL ERROR: Parameter 8 was incorrect on entry to DGEMM .

     total cpu time spent up to now is        1.2 secs

     total energy              =    -793.91543867 Ry
     estimated scf accuracy    <       1.99249004 Ry

     iteration #  3     ecut=    30.00 Ry     beta= 0.70
     Davidson diagonalization with overlap

---- Real-time Memory Report at c_bands before calling an iterative solver
           154 MiB given to the printing process from OS
             0 MiB allocation reported by mallinfo(arena+hblkhd)
        173063 MiB available memory on the node where the printing process lives
------------------

Intel MKL ERROR: Parameter 8 was incorrect on entry to DGEMM .

Intel MKL ERROR: Parameter 8 was incorrect on entry to DGEMM .

Intel MKL ERROR: Parameter 8 was incorrect on entry to DGEMM .

Intel MKL ERROR: Parameter 8 was incorrect on entry to DGEMM .

Intel MKL ERROR: Parameter 8 was incorrect on entry to DGEMM .

Intel MKL ERROR: Parameter 8 was incorrect on entry to DGEMM .

Intel MKL ERROR: Parameter 8 was incorrect on entry to DGEMM .

Intel MKL ERROR: Parameter 8 was incorrect on entry to DGEMM .

Intel MKL ERROR: Parameter 8 was incorrect on entry to DGEMM .

Intel MKL ERROR: Parameter 8 was incorrect on entry to DGEMM .

Intel MKL ERROR: Parameter 8 was incorrect on entry to DGEMM .

Intel MKL ERROR: Parameter 8 was incorrect on entry to DGEMM .

Intel MKL ERROR: Parameter 8 was incorrect on entry to DGEMM .

Intel MKL ERROR: Parameter 8 was incorrect on entry to DGEMM .

Intel MKL ERROR: Parameter 8 was incorrect on entry to DGEMM .

Intel MKL ERROR: Parameter 8 was incorrect on entry to DGEMM .

Intel MKL ERROR: Parameter 8 was incorrect on entry to DGEMM .

Intel MKL ERROR: Parameter 8 was incorrect on entry to DGEMM .

Intel MKL ERROR: Parameter 8 was incorrect on entry to DGEMM .

Intel MKL ERROR: Parameter 8 was incorrect on entry to DGEMM .

Intel MKL ERROR: Parameter 8 was incorrect on entry to DGEMM .

Intel MKL ERROR: Parameter 8 was incorrect on entry to DGEMM .

Intel MKL ERROR: Parameter 8 was incorrect on entry to DGEMM .

Intel MKL ERROR: Parameter 8 was incorrect on entry to DGEMM .

Intel MKL ERROR: Parameter 8 was incorrect on entry to DGEMM .

Intel MKL ERROR: Parameter 8 was incorrect on entry to DGEMM .

Intel MKL ERROR: Parameter 8 was incorrect on entry to DGEMM .

Intel MKL ERROR: Parameter 8 was incorrect on entry to DGEMM .

Intel MKL ERROR: Parameter 8 was incorrect on entry to DGEMM .

Intel MKL ERROR: Parameter 8 was incorrect on entry to DGEMM .

Intel MKL ERROR: Parameter 8 was incorrect on entry to DGEMM .

Intel MKL ERROR: Parameter 8 was incorrect on entry to DGEMM .

Intel MKL ERROR: Parameter 8 was incorrect on entry to DGEMM .

Intel MKL ERROR: Parameter 8 was incorrect on entry to DGEMM .

Intel MKL ERROR: Parameter 8 was incorrect on entry to DGEMM .

Intel MKL ERROR: Parameter 8 was incorrect on entry to DGEMM .

Intel MKL ERROR: Parameter 8 was incorrect on entry to DGEMM .

Intel MKL ERROR: Parameter 8 was incorrect on entry to DGEMM .

Intel MKL ERROR: Parameter 8 was incorrect on entry to DGEMM .

Intel MKL ERROR: Parameter 8 was incorrect on entry to DGEMM .

Intel MKL ERROR: Parameter 8 was incorrect on entry to DGEMM .

Intel MKL ERROR: Parameter 8 was incorrect on entry to DGEMM .

Intel MKL ERROR: Parameter 8 was incorrect on entry to DGEMM .

Intel MKL ERROR: Parameter 8 was incorrect on entry to DGEMM .

Intel MKL ERROR: Parameter 8 was incorrect on entry to DGEMM .

Intel MKL ERROR: Parameter 8 was incorrect on entry to DGEMM .

Intel MKL ERROR: Parameter 8 was incorrect on entry to DGEMM .

Intel MKL ERROR: Parameter 8 was incorrect on entry to DGEMM .

Intel MKL ERROR: Parameter 8 was incorrect on entry to DGEMM .

Intel MKL ERROR: Parameter 8 was incorrect on entry to DGEMM .

Intel MKL ERROR: Parameter 8 was incorrect on entry to DGEMM .

Intel MKL ERROR: Parameter 8 was incorrect on entry to DGEMM .

Intel MKL ERROR: Parameter 8 was incorrect on entry to DGEMM .

Intel MKL ERROR: Parameter 8 was incorrect on entry to DGEMM .

Intel MKL ERROR: Parameter 8 was incorrect on entry to DGEMM .

Intel MKL ERROR: Parameter 8 was incorrect on entry to DGEMM .

Intel MKL ERROR: Parameter 8 was incorrect on entry to DGEMM .

Intel MKL ERROR: Parameter 8 was incorrect on entry to DGEMM .

Intel MKL ERROR: Parameter 8 was incorrect on entry to DGEMM .

Intel MKL ERROR: Parameter 8 was incorrect on entry to DGEMM .

Intel MKL ERROR: Parameter 8 was incorrect on entry to DGEMM .

Intel MKL ERROR: Parameter 8 was incorrect on entry to DGEMM .

Intel MKL ERROR: Parameter 8 was incorrect on entry to DGEMM .

Intel MKL ERROR: Parameter 8 was incorrect on entry to DGEMM .

Intel MKL ERROR: Parameter 8 was incorrect on entry to DGEMM .

Intel MKL ERROR: Parameter 8 was incorrect on entry to DGEMM .

Intel MKL ERROR: Parameter 8 was incorrect on entry to DGEMM .

Intel MKL ERROR: Parameter 8 was incorrect on entry to DGEMM .

Intel MKL ERROR: Parameter 8 was incorrect on entry to DGEMM .

Intel MKL ERROR: Parameter 8 was incorrect on entry to DGEMM .

Intel MKL ERROR: Parameter 8 was incorrect on entry to DGEMM .

Intel MKL ERROR: Parameter 8 was incorrect on entry to DGEMM .

Intel MKL ERROR: Parameter 8 was incorrect on entry to DGEMM .

Intel MKL ERROR: Parameter 8 was incorrect on entry to DGEMM .

Intel MKL ERROR: Parameter 8 was incorrect on entry to DGEMM .

Intel MKL ERROR: Parameter 8 was incorrect on entry to DGEMM .

Intel MKL ERROR: Parameter 8 was incorrect on entry to DGEMM .

Intel MKL ERROR: Parameter 8 was incorrect on entry to DGEMM .

Intel MKL ERROR: Parameter 8 was incorrect on entry to DGEMM .

Intel MKL ERROR: Parameter 8 was incorrect on entry to DGEMM .

Intel MKL ERROR: Parameter 8 was incorrect on entry to DGEMM .

Intel MKL ERROR: Parameter 8 was incorrect on entry to DGEMM .

Intel MKL ERROR: Parameter 8 was incorrect on entry to DGEMM .

Intel MKL ERROR: Parameter 8 was incorrect on entry to DGEMM .

Intel MKL ERROR: Parameter 8 was incorrect on entry to DGEMM .

Intel MKL ERROR: Parameter 8 was incorrect on entry to DGEMM .

Intel MKL ERROR: Parameter 8 was incorrect on entry to DGEMM .

Intel MKL ERROR: Parameter 8 was incorrect on entry to DGEMM .

Intel MKL ERROR: Parameter 8 was incorrect on entry to DGEMM .

Intel MKL ERROR: Parameter 8 was incorrect on entry to DGEMM .

Intel MKL ERROR: Parameter 8 was incorrect on entry to DGEMM .

Intel MKL ERROR: Parameter 8 was incorrect on entry to DGEMM .

Intel MKL ERROR: Parameter 8 was incorrect on entry to DGEMM .

Intel MKL ERROR: Parameter 8 was incorrect on entry to DGEMM .

Intel MKL ERROR: Parameter 8 was incorrect on entry to DGEMM .

Intel MKL ERROR: Parameter 8 was incorrect on entry to DGEMM .

Intel MKL ERROR: Parameter 8 was incorrect on entry to DGEMM .

Intel MKL ERROR: Parameter 8 was incorrect on entry to DGEMM .

Intel MKL ERROR: Parameter 8 was incorrect on entry to DGEMM .

Intel MKL ERROR: Parameter 8 was incorrect on entry to DGEMM .

Intel MKL ERROR: Parameter 8 was incorrect on entry to DGEMM .

Intel MKL ERROR: Parameter 8 was incorrect on entry to DGEMM .

Intel MKL ERROR: Parameter 8 was incorrect on entry to DGEMM .

Intel MKL ERROR: Parameter 8 was incorrect on entry to DGEMM .

Intel MKL ERROR: Parameter 8 was incorrect on entry to DGEMM .

Intel MKL ERROR: Parameter 8 was incorrect on entry to DGEMM .

Intel MKL ERROR: Parameter 8 was incorrect on entry to DGEMM .

Intel MKL ERROR: Parameter 8 was incorrect on entry to DGEMM .

Intel MKL ERROR: Parameter 8 was incorrect on entry to DGEMM .

Intel MKL ERROR: Parameter 8 was incorrect on entry to DGEMM .

Intel MKL ERROR: Parameter 8 was incorrect on entry to DGEMM .

Intel MKL ERROR: Parameter 8 was incorrect on entry to DGEMM .

Intel MKL ERROR: Parameter 8 was incorrect on entry to DGEMM .

Intel MKL ERROR: Parameter 8 was incorrect on entry to DGEMM .

Intel MKL ERROR: Parameter 8 was incorrect on entry to DGEMM .

Intel MKL ERROR: Parameter 8 was incorrect on entry to DGEMM .

Intel MKL ERROR: Parameter 8 was incorrect on entry to DGEMM .

Intel MKL ERROR: Parameter 8 was incorrect on entry to DGEMM .

Intel MKL ERROR: Parameter 8 was incorrect on entry to DGEMM .

Intel MKL ERROR: Parameter 8 was incorrect on entry to DGEMM .

Intel MKL ERROR: Parameter 8 was incorrect on entry to DGEMM .

Intel MKL ERROR: Parameter 8 was incorrect on entry to DGEMM .

Intel MKL ERROR: Parameter 8 was incorrect on entry to DGEMM .

Intel MKL ERROR: Parameter 8 was incorrect on entry to DGEMM .

Intel MKL ERROR: Parameter 8 was incorrect on entry to DGEMM .

Intel MKL ERROR: Parameter 8 was incorrect on entry to DGEMM .

Intel MKL ERROR: Parameter 8 was incorrect on entry to DGEMM .

Intel MKL ERROR: Parameter 8 was incorrect on entry to DGEMM .

Intel MKL ERROR: Parameter 8 was incorrect on entry to DGEMM .

Intel MKL ERROR: Parameter 8 was incorrect on entry to DGEMM .

Intel MKL ERROR: Parameter 8 was incorrect on entry to DGEMM .

Intel MKL ERROR: Parameter 8 was incorrect on entry to DGEMM .

Intel MKL ERROR: Parameter 8 was incorrect on entry to DGEMM .

Intel MKL ERROR: Parameter 8 was incorrect on entry to DGEMM .

Intel MKL ERROR: Parameter 8 was incorrect on entry to DGEMM .

Intel MKL ERROR: Parameter 8 was incorrect on entry to DGEMM .

Intel MKL ERROR: Parameter 8 was incorrect on entry to DGEMM .

Intel MKL ERROR: Parameter 8 was incorrect on entry to DGEMM .

Intel MKL ERROR: Parameter 8 was incorrect on entry to DGEMM .

Intel MKL ERROR: Parameter 8 was incorrect on entry to DGEMM .

Intel MKL ERROR: Parameter 8 was incorrect on entry to DGEMM .

Intel MKL ERROR: Parameter 8 was incorrect on entry to DGEMM .

Intel MKL ERROR: Parameter 8 was incorrect on entry to DGEMM .

Intel MKL ERROR: Parameter 8 was incorrect on entry to DGEMM .

Intel MKL ERROR: Parameter 8 was incorrect on entry to DGEMM .

Intel MKL ERROR: Parameter 8 was incorrect on entry to DGEMM .

Intel MKL ERROR: Parameter 8 was incorrect on entry to DGEMM .

Intel MKL ERROR: Parameter 8 was incorrect on entry to DGEMM .

Intel MKL ERROR: Parameter 8 was incorrect on entry to DGEMM .

Intel MKL ERROR: Parameter 8 was incorrect on entry to DGEMM .

Intel MKL ERROR: Parameter 8 was incorrect on entry to DGEMM .

Intel MKL ERROR: Parameter 8 was incorrect on entry to DGEMM .

Intel MKL ERROR: Parameter 8 was incorrect on entry to DGEMM .

Intel MKL ERROR: Parameter 8 was incorrect on entry to DGEMM .

Intel MKL ERROR: Parameter 8 was incorrect on entry to DGEMM .

Intel MKL ERROR: Parameter 8 was incorrect on entry to DGEMM .

Intel MKL ERROR: Parameter 8 was incorrect on entry to DGEMM .

Intel MKL ERROR: Parameter 8 was incorrect on entry to DGEMM .

Intel MKL ERROR: Parameter 8 was incorrect on entry to DGEMM .

Intel MKL ERROR: Parameter 8 was incorrect on entry to DGEMM .

Intel MKL ERROR: Parameter 8 was incorrect on entry to DGEMM .

Intel MKL ERROR: Parameter 8 was incorrect on entry to DGEMM .

Intel MKL ERROR: Parameter 8 was incorrect on entry to DGEMM .

Intel MKL ERROR: Parameter 8 was incorrect on entry to DGEMM .

Intel MKL ERROR: Parameter 8 was incorrect on entry to DGEMM .

Intel MKL ERROR: Parameter 8 was incorrect on entry to DGEMM .

Intel MKL ERROR: Parameter 8 was incorrect on entry to DGEMM .

Intel MKL ERROR: Parameter 8 was incorrect on entry to DGEMM .

Intel MKL ERROR: Parameter 8 was incorrect on entry to DGEMM .

Intel MKL ERROR: Parameter 8 was incorrect on entry to DGEMM .

Intel MKL ERROR: Parameter 8 was incorrect on entry to DGEMM .

Intel MKL ERROR: Parameter 8 was incorrect on entry to DGEMM .

Intel MKL ERROR: Parameter 8 was incorrect on entry to DGEMM .

Intel MKL ERROR: Parameter 8 was incorrect on entry to DGEMM .

Intel MKL ERROR: Parameter 8 was incorrect on entry to DGEMM .

Intel MKL ERROR: Parameter 8 was incorrect on entry to DGEMM .

Intel MKL ERROR: Parameter 8 was incorrect on entry to DGEMM .

Intel MKL ERROR: Parameter 8 was incorrect on entry to DGEMM .

Intel MKL ERROR: Parameter 8 was incorrect on entry to DGEMM .

Intel MKL ERROR: Parameter 8 was incorrect on entry to DGEMM .

Intel MKL ERROR: Parameter 8 was incorrect on entry to DGEMM .

Intel MKL ERROR: Parameter 8 was incorrect on entry to DGEMM .

Intel MKL ERROR: Parameter 8 was incorrect on entry to DGEMM .

Intel MKL ERROR: Parameter 8 was incorrect on entry to DGEMM .

Intel MKL ERROR: Parameter 8 was incorrect on entry to DGEMM .

Intel MKL ERROR: Parameter 8 was incorrect on entry to DGEMM .

Intel MKL ERROR: Parameter 8 was incorrect on entry to DGEMM .

Intel MKL ERROR: Parameter 8 was incorrect on entry to DGEMM .

Intel MKL ERROR: Parameter 8 was incorrect on entry to DGEMM .

Intel MKL ERROR: Parameter 8 was incorrect on entry to DGEMM .

Intel MKL ERROR: Parameter 8 was incorrect on entry to DGEMM .

Intel MKL ERROR: Parameter 8 was incorrect on entry to DGEMM .

Intel MKL ERROR: Parameter 8 was incorrect on entry to DGEMM .

Intel MKL ERROR: Parameter 8 was incorrect on entry to DGEMM .

Intel MKL ERROR: Parameter 8 was incorrect on entry to DGEMM .

Intel MKL ERROR: Parameter 8 was incorrect on entry to DGEMM .
     ethr =  2.93E-03,  avg # of iterations =  2.0

Intel MKL ERROR: Parameter 8 was incorrect on entry to DGEMM .

Intel MKL ERROR: Parameter 8 was incorrect on entry to DGEMM .

Intel MKL ERROR: Parameter 8 was incorrect on entry to DGEMM .

Intel MKL ERROR: Parameter 8 was incorrect on entry to DGEMM .

Intel MKL ERROR: Parameter 8 was incorrect on entry to DGEMM .

Intel MKL ERROR: Parameter 8 was incorrect on entry to DGEMM .

Intel MKL ERROR: Parameter 8 was incorrect on entry to DGEMM .

Intel MKL ERROR: Parameter 8 was incorrect on entry to DGEMM .

Intel MKL ERROR: Parameter 8 was incorrect on entry to DGEMM .

Intel MKL ERROR: Parameter 8 was incorrect on entry to DGEMM .

Intel MKL ERROR: Parameter 8 was incorrect on entry to DGEMM .

Intel MKL ERROR: Parameter 8 was incorrect on entry to DGEMM .

Intel MKL ERROR: Parameter 8 was incorrect on entry to DGEMM .

Intel MKL ERROR: Parameter 8 was incorrect on entry to DGEMM .

Intel MKL ERROR: Parameter 8 was incorrect on entry to DGEMM .

Intel MKL ERROR: Parameter 8 was incorrect on entry to DGEMM .

Intel MKL ERROR: Parameter 8 was incorrect on entry to DGEMM .

Intel MKL ERROR: Parameter 8 was incorrect on entry to DGEMM .

Intel MKL ERROR: Parameter 8 was incorrect on entry to DGEMM .

Intel MKL ERROR: Parameter 8 was incorrect on entry to DGEMM .

Intel MKL ERROR: Parameter 8 was incorrect on entry to DGEMM .

     total cpu time spent up to now is        1.3 secs

     total energy              =    -794.34876346 Ry
     estimated scf accuracy    <       0.14116351 Ry

     iteration #  4     ecut=    30.00 Ry     beta= 0.70
     Davidson diagonalization with overlap

---- Real-time Memory Report at c_bands before calling an iterative solver
           155 MiB given to the printing process from OS
             0 MiB allocation reported by mallinfo(arena+hblkhd)
        173058 MiB available memory on the node where the printing process lives
------------------

Intel MKL ERROR: Parameter 8 was incorrect on entry to DGEMM .

Intel MKL ERROR: Parameter 8 was incorrect on entry to DGEMM .

Intel MKL ERROR: Parameter 8 was incorrect on entry to DGEMM .

Intel MKL ERROR: Parameter 8 was incorrect on entry to DGEMM .

Intel MKL ERROR: Parameter 8 was incorrect on entry to DGEMM .

Intel MKL ERROR: Parameter 8 was incorrect on entry to DGEMM .

Intel MKL ERROR: Parameter 8 was incorrect on entry to DGEMM .

Intel MKL ERROR: Parameter 8 was incorrect on entry to DGEMM .

Intel MKL ERROR: Parameter 8 was incorrect on entry to DGEMM .

Intel MKL ERROR: Parameter 8 was incorrect on entry to DGEMM .

Intel MKL ERROR: Parameter 8 was incorrect on entry to DGEMM .

Intel MKL ERROR: Parameter 8 was incorrect on entry to DGEMM .

Intel MKL ERROR: Parameter 8 was incorrect on entry to DGEMM .

Intel MKL ERROR: Parameter 8 was incorrect on entry to DGEMM .

Intel MKL ERROR: Parameter 8 was incorrect on entry to DGEMM .

Intel MKL ERROR: Parameter 8 was incorrect on entry to DGEMM .

Intel MKL ERROR: Parameter 8 was incorrect on entry to DGEMM .

Intel MKL ERROR: Parameter 8 was incorrect on entry to DGEMM .

Intel MKL ERROR: Parameter 8 was incorrect on entry to DGEMM .

Intel MKL ERROR: Parameter 8 was incorrect on entry to DGEMM .

Intel MKL ERROR: Parameter 8 was incorrect on entry to DGEMM .

Intel MKL ERROR: Parameter 8 was incorrect on entry to DGEMM .

Intel MKL ERROR: Parameter 8 was incorrect on entry to DGEMM .

Intel MKL ERROR: Parameter 8 was incorrect on entry to DGEMM .

Intel MKL ERROR: Parameter 8 was incorrect on entry to DGEMM .

Intel MKL ERROR: Parameter 8 was incorrect on entry to DGEMM .

Intel MKL ERROR: Parameter 8 was incorrect on entry to DGEMM .

Intel MKL ERROR: Parameter 8 was incorrect on entry to DGEMM .

Intel MKL ERROR: Parameter 8 was incorrect on entry to DGEMM .

Intel MKL ERROR: Parameter 8 was incorrect on entry to DGEMM .

Intel MKL ERROR: Parameter 8 was incorrect on entry to DGEMM .

Intel MKL ERROR: Parameter 8 was incorrect on entry to DGEMM .

Intel MKL ERROR: Parameter 8 was incorrect on entry to DGEMM .

Intel MKL ERROR: Parameter 8 was incorrect on entry to DGEMM .

Intel MKL ERROR: Parameter 8 was incorrect on entry to DGEMM .

Intel MKL ERROR: Parameter 8 was incorrect on entry to DGEMM .

Intel MKL ERROR: Parameter 8 was incorrect on entry to DGEMM .

Intel MKL ERROR: Parameter 8 was incorrect on entry to DGEMM .

Intel MKL ERROR: Parameter 8 was incorrect on entry to DGEMM .

Intel MKL ERROR: Parameter 8 was incorrect on entry to DGEMM .

Intel MKL ERROR: Parameter 8 was incorrect on entry to DGEMM .

Intel MKL ERROR: Parameter 8 was incorrect on entry to DGEMM .

Intel MKL ERROR: Parameter 8 was incorrect on entry to DGEMM .

Intel MKL ERROR: Parameter 8 was incorrect on entry to DGEMM .

Intel MKL ERROR: Parameter 8 was incorrect on entry to DGEMM .

[...]

Intel MKL ERROR: Parameter 8 was incorrect on entry to DGEMM .

Intel MKL ERROR: Parameter 8 was incorrect on entry to DGEMM .

Intel MKL ERROR: Parameter 8 was incorrect on entry to DGEMM .

Intel MKL ERROR: Parameter 8 was incorrect on entry to DGEMM .

Intel MKL ERROR: Parameter 8 was incorrect on entry to DGEMM .

Intel MKL ERROR: Parameter 8 was incorrect on entry to DGEMM .

Intel MKL ERROR: Parameter 8 was incorrect on entry to DGEMM .

Intel MKL ERROR: Parameter 8 was incorrect on entry to DGEMM .

Intel MKL ERROR: Parameter 8 was incorrect on entry to DGEMM .

Intel MKL ERROR: Parameter 8 was incorrect on entry to DGEMM .

Intel MKL ERROR: Parameter 8 was incorrect on entry to DGEMM .

Intel MKL ERROR: Parameter 8 was incorrect on entry to DGEMM .

Intel MKL ERROR: Parameter 8 was incorrect on entry to DGEMM .

Intel MKL ERROR: Parameter 8 was incorrect on entry to DGEMM .

Intel MKL ERROR: Parameter 8 was incorrect on entry to DGEMM .

Intel MKL ERROR: Parameter 8 was incorrect on entry to DGEMM .

Intel MKL ERROR: Parameter 8 was incorrect on entry to DGEMM .

Intel MKL ERROR: Parameter 8 was incorrect on entry to DGEMM .

Intel MKL ERROR: Parameter 8 was incorrect on entry to DGEMM .

Intel MKL ERROR: Parameter 8 was incorrect on entry to DGEMM .

Intel MKL ERROR: Parameter 8 was incorrect on entry to DGEMM .

Intel MKL ERROR: Parameter 8 was incorrect on entry to DGEMM .

Intel MKL ERROR: Parameter 8 was incorrect on entry to DGEMM .

Intel MKL ERROR: Parameter 8 was incorrect on entry to DGEMM .

Intel MKL ERROR: Parameter 8 was incorrect on entry to DGEMM .

Intel MKL ERROR: Parameter 8 was incorrect on entry to DGEMM .

Intel MKL ERROR: Parameter 8 was incorrect on entry to DGEMM .

Intel MKL ERROR: Parameter 8 was incorrect on entry to DGEMM .

Intel MKL ERROR: Parameter 8 was incorrect on entry to DGEMM .

Intel MKL ERROR: Parameter 8 was incorrect on entry to DGEMM .

Intel MKL ERROR: Parameter 8 was incorrect on entry to DGEMM .

Intel MKL ERROR: Parameter 8 was incorrect on entry to DGEMM .

Intel MKL ERROR: Parameter 8 was incorrect on entry to DGEMM .

Intel MKL ERROR: Parameter 8 was incorrect on entry to DGEMM .

Intel MKL ERROR: Parameter 8 was incorrect on entry to DGEMM .

Intel MKL ERROR: Parameter 8 was incorrect on entry to DGEMM .

Intel MKL ERROR: Parameter 8 was incorrect on entry to DGEMM .

Intel MKL ERROR: Parameter 8 was incorrect on entry to DGEMM .

Intel MKL ERROR: Parameter 8 was incorrect on entry to DGEMM .

Intel MKL ERROR: Parameter 8 was incorrect on entry to DGEMM .

Intel MKL ERROR: Parameter 8 was incorrect on entry to DGEMM .

Intel MKL ERROR: Parameter 8 was incorrect on entry to DGEMM .

Intel MKL ERROR: Parameter 8 was incorrect on entry to DGEMM .

Intel MKL ERROR: Parameter 8 was incorrect on entry to DGEMM .

Intel MKL ERROR: Parameter 8 was incorrect on entry to DGEMM .

Intel MKL ERROR: Parameter 8 was incorrect on entry to DGEMM .

Intel MKL ERROR: Parameter 8 was incorrect on entry to DGEMM .

Intel MKL ERROR: Parameter 8 was incorrect on entry to DGEMM .

Intel MKL ERROR: Parameter 8 was incorrect on entry to DGEMM .

Intel MKL ERROR: Parameter 8 was incorrect on entry to DGEMM .

Intel MKL ERROR: Parameter 8 was incorrect on entry to DGEMM .

Intel MKL ERROR: Parameter 8 was incorrect on entry to DGEMM .

Intel MKL ERROR: Parameter 8 was incorrect on entry to DGEMM .

Intel MKL ERROR: Parameter 8 was incorrect on entry to DGEMM .

Intel MKL ERROR: Parameter 8 was incorrect on entry to DGEMM .

Intel MKL ERROR: Parameter 8 was incorrect on entry to DGEMM .

Intel MKL ERROR: Parameter 8 was incorrect on entry to DGEMM .

Intel MKL ERROR: Parameter 8 was incorrect on entry to DGEMM .

Intel MKL ERROR: Parameter 8 was incorrect on entry to DGEMM .

Intel MKL ERROR: Parameter 8 was incorrect on entry to DGEMM .

Intel MKL ERROR: Parameter 8 was incorrect on entry to DGEMM .

Intel MKL ERROR: Parameter 8 was incorrect on entry to DGEMM .

Intel MKL ERROR: Parameter 8 was incorrect on entry to DGEMM .

Intel MKL ERROR: Parameter 8 was incorrect on entry to DGEMM .

Intel MKL ERROR: Parameter 8 was incorrect on entry to DGEMM .

Intel MKL ERROR: Parameter 8 was incorrect on entry to DGEMM .

Intel MKL ERROR: Parameter 8 was incorrect on entry to DGEMM .

Intel MKL ERROR: Parameter 8 was incorrect on entry to DGEMM .

Intel MKL ERROR: Parameter 8 was incorrect on entry to DGEMM .

Intel MKL ERROR: Parameter 8 was incorrect on entry to DGEMM .

Intel MKL ERROR: Parameter 8 was incorrect on entry to DGEMM .

Intel MKL ERROR: Parameter 8 was incorrect on entry to DGEMM .

Intel MKL ERROR: Parameter 8 was incorrect on entry to DGEMM .

Intel MKL ERROR: Parameter 8 was incorrect on entry to DGEMM .

Intel MKL ERROR: Parameter 8 was incorrect on entry to DGEMM .

Intel MKL ERROR: Parameter 8 was incorrect on entry to DGEMM .

Intel MKL ERROR: Parameter 8 was incorrect on entry to DGEMM .

Intel MKL ERROR: Parameter 8 was incorrect on entry to DGEMM .

Intel MKL ERROR: Parameter 8 was incorrect on entry to DGEMM .

Intel MKL ERROR: Parameter 8 was incorrect on entry to DGEMM .

Intel MKL ERROR: Parameter 8 was incorrect on entry to DGEMM .

Intel MKL ERROR: Parameter 8 was incorrect on entry to DGEMM .

Intel MKL ERROR: Parameter 8 was incorrect on entry to DGEMM .

Intel MKL ERROR: Parameter 8 was incorrect on entry to DGEMM .

Intel MKL ERROR: Parameter 8 was incorrect on entry to DGEMM .

Intel MKL ERROR: Parameter 8 was incorrect on entry to DGEMM .

Intel MKL ERROR: Parameter 8 was incorrect on entry to DGEMM .

Intel MKL ERROR: Parameter 8 was incorrect on entry to DGEMM .

Intel MKL ERROR: Parameter 8 was incorrect on entry to DGEMM .

Intel MKL ERROR: Parameter 8 was incorrect on entry to DGEMM .

Intel MKL ERROR: Parameter 8 was incorrect on entry to DGEMM .

     ethr =  1.80E-08,  avg # of iterations =  2.0
Intel MKL ERROR: Parameter 8 was incorrect on entry to DGEMM .

Intel MKL ERROR: Parameter 8 was incorrect on entry to DGEMM .

Intel MKL ERROR: Parameter 8 was incorrect on entry to DGEMM .

Intel MKL ERROR: Parameter 8 was incorrect on entry to DGEMM .

Intel MKL ERROR: Parameter 8 was incorrect on entry to DGEMM .

Intel MKL ERROR: Parameter 8 was incorrect on entry to DGEMM .

Intel MKL ERROR: Parameter 8 was incorrect on entry to DGEMM .

Intel MKL ERROR: Parameter 8 was incorrect on entry to DGEMM .

Intel MKL ERROR: Parameter 8 was incorrect on entry to DGEMM .

Intel MKL ERROR: Parameter 8 was incorrect on entry to DGEMM .

     total cpu time spent up to now is        1.9 secs

     End of self-consistent calculation

          k = 0.0000 0.0000 0.0000 (   861 PWs)   bands (ev):

   -91.9524 -91.9489 -43.6614 -43.6526 -42.5779 -42.5779 -42.5742 -42.5742
    -8.5092  -8.4158  -6.4268  -6.2455   4.0982   5.5087   6.6085   7.4820
     7.6561   8.6354   8.6354   8.8354   8.8784   8.8784   9.4109   9.4109
     9.8494   9.8494  10.6121  10.6121  10.6228  10.6228  11.5209  11.5209
    11.7528  11.7528  13.2949  15.3470  15.6480  17.4244  18.3012  18.5704
    21.6332

     occupation numbers 
     1.0000   1.0000   1.0000   1.0000   1.0000   1.0000   1.0000   1.0000
     1.0000   1.0000   1.0000   1.0000   1.0000   1.0000   1.0000   1.0000
     1.0000   1.0000   1.0000   1.0000   1.0000   1.0000   1.0000   1.0000
     1.0000   1.0000   1.0000   1.0000   1.0000   1.0000   1.0000   1.0000
     1.0000   1.0000  -0.0000  -0.0000  -0.0000  -0.0000  -0.0000  -0.0000
    -0.0000

     the Fermi energy is    12.8741 ev

!    total energy              =    -794.38876618 Ry
     estimated scf accuracy    <       0.00000046 Ry
     smearing contrib. (-TS)   =       0.00000000 Ry
     internal energy E=F+TS    =    -794.38876618 Ry

     The total energy is F=E-TS. E is the sum of the following terms:
     one-electron contribution =    -323.30106360 Ry
     hartree contribution      =     196.78823762 Ry
     xc contribution           =     -86.78188965 Ry
     ewald contribution        =    -474.00963931 Ry
     one-center paw contrib.   =    -107.08441124 Ry
      -> PAW hartree energy AE =       1.48098851 Ry
      -> PAW hartree energy PS =      -1.47985674 Ry
      -> PAW xc energy AE      =     -36.56081736 Ry
      -> PAW xc energy PS      =       1.96757548 Ry
      -> total E_H with PAW    =     196.78936939 Ry
      -> total E_XC with PAW   =    -121.37513153 Ry

     convergence has been achieved in   9 iterations

Intel MKL ERROR: Parameter 8 was incorrect on entry to DGEMM .

Intel MKL ERROR: Parameter 8 was incorrect on entry to DGEMM .

Intel MKL ERROR: Parameter 8 was incorrect on entry to DGEMM .

Intel MKL ERROR: Parameter 8 was incorrect on entry to DGEMM .

     Forces acting on atoms (cartesian axes, Ry/au):

     atom    1 type  1   force =    -0.00000000   -0.00000000   -0.00000000
     atom    2 type  1   force =     0.00000000   -0.00000000    0.00000000
     atom    3 type  2   force =     0.00000000   -0.00000000    0.00000000
     atom    4 type  2   force =     0.00000000   -0.00000000   -0.00000000
     atom    5 type  3   force =    -0.00000000    0.00000000    0.04888413
     atom    6 type  3   force =     0.00000000    0.00000000    0.04888413
     atom    7 type  3   force =    -0.00000000    0.00000000   -0.04888413
     atom    8 type  3   force =     0.00000000   -0.00000000   -0.04888413
     The non-local contrib.  to forces
     atom    1 type  1   force =     0.00000000    0.00000000    0.00000000
     atom    2 type  1   force =     0.00000000    0.00000000    0.00000000
     atom    3 type  2   force =     0.00000000    0.00000000    0.00000000
     atom    4 type  2   force =    -0.00000000    0.00000000    0.00000000
     atom    5 type  3   force =     0.00000000    0.00000000   -0.20440573
     atom    6 type  3   force =     0.00000000   -0.00000000   -0.20440573
     atom    7 type  3   force =    -0.00000000   -0.00000000    0.20440573
     atom    8 type  3   force =     0.00000000   -0.00000000    0.20440573
     The ionic contribution  to forces
     atom    1 type  1   force =    -0.00000000    0.00000000   -0.00000000
     atom    2 type  1   force =    -0.00000000    0.00000000    0.00000000
     atom    3 type  2   force =    -0.00000023    0.00000013    0.00000000
     atom    4 type  2   force =     0.00000023   -0.00000013    0.00000000
     atom    5 type  3   force =     0.00000470   -0.00000271    7.97798884
     atom    6 type  3   force =    -0.00000470    0.00000271    7.97798884
     atom    7 type  3   force =     0.00000470   -0.00000271   -7.97798884
     atom    8 type  3   force =    -0.00000470    0.00000271   -7.97798884
     The local contribution  to forces
     atom    1 type  1   force =     0.00000034   -0.00000445    0.00019733
     atom    2 type  1   force =     0.00000239   -0.00000107   -0.00039095
     atom    3 type  2   force =    -0.00001620   -0.00000181    0.00016764
     atom    4 type  2   force =    -0.00002268   -0.00000778    0.00252547
     atom    5 type  3   force =     0.00005594    0.00004569   -7.73153681
     atom    6 type  3   force =    -0.00004828   -0.00005046   -7.73067075
     atom    7 type  3   force =    -0.00000649    0.00004170    7.73065233
     atom    8 type  3   force =    -0.00002335   -0.00002106    7.73042117
     The core correction contribution to forces
     atom    1 type  1   force =    -0.00000027   -0.00000063   -0.00000137
     atom    2 type  1   force =     0.00000058   -0.00000011    0.00000242
     atom    3 type  2   force =     0.00000000    0.00000000    0.00000000
     atom    4 type  2   force =     0.00000000    0.00000000    0.00000000
     atom    5 type  3   force =     0.00000080    0.00000035    0.00565355
     atom    6 type  3   force =    -0.00000060   -0.00000069    0.00564478
     atom    7 type  3   force =     0.00000012    0.00000038   -0.00565677
     atom    8 type  3   force =    -0.00000032   -0.00000022   -0.00564261
     The Hubbard contrib.    to forces
     atom    1 type  1   force =     0.00000000    0.00000000    0.00000000
     atom    2 type  1   force =     0.00000000    0.00000000    0.00000000
     atom    3 type  2   force =     0.00000000    0.00000000    0.00000000
     atom    4 type  2   force =     0.00000000    0.00000000    0.00000000
     atom    5 type  3   force =     0.00000000    0.00000000    0.00000000
     atom    6 type  3   force =     0.00000000    0.00000000    0.00000000
     atom    7 type  3   force =     0.00000000    0.00000000    0.00000000
     atom    8 type  3   force =     0.00000000    0.00000000    0.00000000
     The SCF correction term to forces
     atom    1 type  1   force =    -0.00000156    0.00000042   -0.00026559
     atom    2 type  1   force =    -0.00000044    0.00000036    0.00049857
     atom    3 type  2   force =     0.00001051    0.00001700   -0.00034355
     atom    4 type  2   force =     0.00002895    0.00002100   -0.00255518
     atom    5 type  3   force =    -0.00002791   -0.00002937    0.00150514
     atom    6 type  3   force =     0.00003206    0.00002705   -0.00000113
     atom    7 type  3   force =     0.00000844   -0.00002857   -0.00076905
     atom    8 type  3   force =     0.00001382    0.00001312    0.00038561

     Total force =     0.097768     Total SCF correction =     0.003159


     Computing stress (Cartesian axis) and pressure


Intel MKL ERROR: Parameter 8 was incorrect on entry to DGEMM .
          total   stress  (Ry/bohr**3)                   (kbar)     P=     -587.43
  -0.00235029   0.00000000  -0.00000000         -345.74        0.00       -0.00
   0.00000000  -0.00235029  -0.00000000            0.00     -345.74       -0.00
   0.00000000   0.00000000  -0.00727927            0.00        0.00    -1070.82

     kinetic stress (kbar)  39538.58     -0.01      0.00
                               -0.01  39538.57      0.00
                                0.00      0.00  35410.28

     local   stress (kbar) -25147.65      0.01     -0.00
                                0.01 -25147.64      0.00
                               -0.00      0.00   4028.91

     nonloc. stress (kbar)   4847.87     -0.00      0.00
                               -0.00   4847.87      0.00
                                0.00      0.00   4834.93

     hartree stress (kbar)  20208.86      0.00      0.00
                                0.00  20208.86     -0.00
                                0.00     -0.00   6077.00

     exc-cor stress (kbar)  -5485.73     -0.00     -0.00
                               -0.00  -5485.73     -0.00
                               -0.00     -0.00  -5492.45

     corecor stress (kbar)   -863.76      0.00      0.00
                                0.00   -863.76     -0.00
                                0.00     -0.00   -824.10

     ewald   stress (kbar) -33443.91     -0.01      0.00
                               -0.01 -33443.92     -0.00
                                0.00     -0.00 -45105.40

     hubbard stress (kbar)      0.00      0.00      0.00
                                0.00      0.00      0.00
                                0.00      0.00      0.00

     DFT-D   stress (kbar)      0.00      0.00      0.00
                                0.00      0.00      0.00
                                0.00      0.00      0.00

     XDM     stress (kbar)      0.00      0.00      0.00
                                0.00      0.00      0.00
                                0.00      0.00      0.00

     dft-nl  stress (kbar)      0.00      0.00      0.00
                                0.00      0.00      0.00
                                0.00      0.00      0.00

     TS-vdW  stress (kbar)      0.00      0.00      0.00
                                0.00      0.00      0.00
                                0.00      0.00      0.00


                                0.00      0.00      0.00
                                0.00      0.00      0.00


                                0.00      0.00      0.00


     Writing all to output data dir calculations/myprefix.save/
 
     init_run     :      0.69s CPU      0.73s WALL (       1 calls)
     electrons    :      0.87s CPU      0.93s WALL (       1 calls)
     forces       :      0.03s CPU      0.03s WALL (       1 calls)
     stress       :      0.07s CPU      0.07s WALL (       1 calls)

     Called by init_run:
     wfcinit      :      0.01s CPU      0.02s WALL (       1 calls)
     wfcinit:atom :      0.00s CPU      0.00s WALL (       1 calls)
     wfcinit:wfcr :      0.01s CPU      0.02s WALL (       1 calls)
     potinit      :      0.31s CPU      0.32s WALL (       1 calls)
     hinit0       :      0.35s CPU      0.37s WALL (       1 calls)

     Called by electrons:
     c_bands      :      0.22s CPU      0.23s WALL (       9 calls)
     sum_band     :      0.05s CPU      0.05s WALL (       9 calls)
     v_of_rho     :      0.02s CPU      0.02s WALL (      10 calls)
     v_h          :      0.00s CPU      0.00s WALL (      10 calls)
     v_xc         :      0.02s CPU      0.02s WALL (      12 calls)
     newd         :      0.03s CPU      0.04s WALL (      10 calls)
     PAW_pot      :      0.60s CPU      0.61s WALL (      10 calls)
     mix_rho      :      0.01s CPU      0.01s WALL (       9 calls)

     Called by c_bands:
     init_us_2    :      0.00s CPU      0.00s WALL (      19 calls)
     init_us_2:cp :      0.00s CPU      0.00s WALL (      19 calls)
     regterg      :      0.21s CPU      0.23s WALL (       9 calls)

     Called by sum_band:
     sum_band:wei :      0.00s CPU      0.00s WALL (       9 calls)
     sum_band:loo :      0.01s CPU      0.01s WALL (       9 calls)
     sum_band:buf :      0.00s CPU      0.00s WALL (       9 calls)
     sum_band:ini :      0.00s CPU      0.00s WALL (       9 calls)
     sum_band:cal :      0.00s CPU      0.00s WALL (       9 calls)
     sum_band:bec :      0.00s CPU      0.00s WALL (       9 calls)
     addusdens    :      0.03s CPU      0.03s WALL (       9 calls)
     addusd:skk   :      0.00s CPU      0.00s WALL (      18 calls)
     addusd:dgemm :      0.01s CPU      0.01s WALL (      18 calls)
     addusd:qvan2 :      0.02s CPU      0.02s WALL (      18 calls)

     Called by *egterg:
     rdiaghg      :      0.13s CPU      0.14s WALL (      36 calls)
     regterg:over :      0.02s CPU      0.02s WALL (      27 calls)
     regterg:upda :      0.01s CPU      0.01s WALL (      27 calls)
     regterg:last :      0.01s CPU      0.01s WALL (      18 calls)
     rdiaghg:chol :      0.01s CPU      0.01s WALL (      36 calls)
     rdiaghg:inve :      0.00s CPU      0.00s WALL (      36 calls)
     rdiaghg:para :      0.01s CPU      0.01s WALL (      72 calls)
     h_psi        :      0.05s CPU      0.05s WALL (      37 calls)
     s_psi        :      0.00s CPU      0.00s WALL (      37 calls)
     g_psi        :      0.00s CPU      0.00s WALL (      27 calls)

     Called by h_psi:
     h_psi:calbec :      0.01s CPU      0.01s WALL (      37 calls)
     vloc_psi     :      0.04s CPU      0.04s WALL (      37 calls)
     add_vuspsi   :      0.00s CPU      0.00s WALL (      37 calls)

     General routines
     calbec       :      0.01s CPU      0.01s WALL (      51 calls)
     fft          :      0.31s CPU      0.32s WALL (     128 calls)
     ffts         :      0.24s CPU      0.24s WALL (      19 calls)
     fftw         :      0.04s CPU      0.05s WALL (    1155 calls)
     interpolate  :      0.24s CPU      0.24s WALL (      10 calls)
 
     Parallel routines

     PAW routines
     PAW_pot      :      0.60s CPU      0.61s WALL (      10 calls)
     PAW_symme    :      0.01s CPU      0.01s WALL (      19 calls)
 
     PWSCF        :      1.87s CPU      2.26s WALL

 
   This run was terminated on:  14:52: 3   3Mar2023            

=------------------------------------------------------------------------------=
   JOB DONE.
=------------------------------------------------------------------------------=
