
     Program PWSCF v.7.0 starts on  3Mar2023 at 15: 1: 8 

     This program is part of the open-source Quantum ESPRESSO suite
     for quantum simulation of materials; please cite
         "P. Giannozzi et al., J. Phys.:Condens. Matter 21 395502 (2009);
         "P. Giannozzi et al., J. Phys.:Condens. Matter 29 465901 (2017);
         "P. Giannozzi et al., J. Chem. Phys. 152 154105 (2020);
          URL http://www.quantum-espresso.org", 
     in publications or presentations arising from this work. More details at
     http://www.quantum-espresso.org/quote

     Parallel version (MPI & OpenMP), running on      32 processor cores
     Number of MPI processes:                32
     Threads/MPI process:                     1

     MPI processes distributed on     1 nodes
     R & G space division:  proc/nbgrp/npool/nimage =      32
     174192 MiB available memory on the printing compute node when the environment starts
 
     Reading input from espresso_691.pwi
Warning: card &CELL ignored
Warning: card / ignored

     Current dimensions of program PWSCF are:
     Max number of different atomic species (ntypx) = 10
     Max number of k-points (npk) =  40000
     Max angular momentum in pseudopotentials (lmaxx) =  4

     gamma-point specific algorithms are used
     Message from routine setup:
     using ibrav=0 with symmetry is DISCOURAGED, use correct ibrav instead

     Subspace diagonalization in iterative solution of the eigenvalue problem:
     one sub-group per band group will be used
     scalapack distributed-memory algorithm (size of sub-group:  5*  5 procs)

 
     Parallelization info
     --------------------
     sticks:   dense  smooth     PW     G-vecs:    dense   smooth      PW
     Min         158      78     18                 7126     2516     306
     Max         160      80     20                 7132     2526     316
     Sum        5073    2531    627               228159    80677   10005
 
     Using Slab Decomposition
 


     bravais-lattice index     =            0
     lattice parameter (alat)  =      16.7742  a.u.
     unit-cell volume          =    3633.3134 (a.u.)^3
     number of atoms/cell      =           20
     number of atomic types    =            3
     number of electrons       =       300.00
     number of Kohn-Sham states=          180
     kinetic-energy cutoff     =      30.0000  Ry
     charge density cutoff     =     240.0000  Ry
     scf convergence threshold =      1.0E-06
     mixing beta               =       0.7000
     number of iterations used =            8  plain     mixing
     Exchange-correlation= PBE
                           (   1   4   3   4   0   0   0)

     celldm(1)=  16.774191  celldm(2)=   0.000000  celldm(3)=   0.000000
     celldm(4)=   0.000000  celldm(5)=   0.000000  celldm(6)=   0.000000

     crystal axes: (cart. coord. in units of alat)
               a(1) = (   1.000000   0.000000   0.000000 )  
               a(2) = (  -0.333333   0.942809   0.000000 )  
               a(3) = (  -0.333333  -0.471405   0.816497 )  

     reciprocal axes: (cart. coord. in units 2 pi/alat)
               b(1) = (  1.000000  0.353553  0.612372 )  
               b(2) = (  0.000000  1.060660  0.612372 )  
               b(3) = (  0.000000  0.000000  1.224745 )  


     PseudoPot. # 1 for La read from file:
     /home/pragov/projects/rrg-bengioy-ad/pragov/crystal_structure_design/SSSP/La.GGA-PBE-paw-v1.0.UPF
     MD5 check sum: 436541e95c1ad8901025bd0b0ed42ae2
     Pseudo is Projector augmented-wave + core cor, Zval = 11.0
     Generated using ATOMPAW code
     Shape of augmentation charge: BESSEL
     Using radial grid of 1101 points,  8 beta functions with: 
                l(1) =   0
                l(2) =   0
                l(3) =   1
                l(4) =   1
                l(5) =   2
                l(6) =   2
                l(7) =   3
                l(8) =   3
     Q(r) pseudized with 0 coefficients 


     PseudoPot. # 2 for Sb read from file:
     /home/pragov/projects/rrg-bengioy-ad/pragov/crystal_structure_design/SSSP/sb_pbe_v1.4.uspp.F.UPF
     MD5 check sum: 9bc50dfb53373b713f5709b9110fe27f
     Pseudo is Ultrasoft + core correction, Zval = 15.0
     Generated by new atomic code, or converted to UPF format
     Using radial grid of  891 points,  6 beta functions with: 
                l(1) =   0
                l(2) =   0
                l(3) =   1
                l(4) =   1
                l(5) =   2
                l(6) =   2
     Q(r) pseudized with  8 coefficients,  rinner =    1.350   1.350   1.350
                                                       1.350   1.350

     PseudoPot. # 3 for Au read from file:
     /home/pragov/projects/rrg-bengioy-ad/pragov/crystal_structure_design/SSSP/Au_ONCV_PBE-1.0.oncvpsp.upf
     MD5 check sum: d14007822ba0e19f0206237467fc06c2
     Pseudo is Norm-conserving, Zval = 19.0
     Generated using ONCVPSP code by D. R. Hamann
     Using radial grid of 1278 points,  8 beta functions with: 
                l(1) =   0
                l(2) =   0
                l(3) =   1
                l(4) =   1
                l(5) =   2
                l(6) =   2
                l(7) =   3
                l(8) =   3

     atomic species   valence    mass     pseudopotential
        La            11.00   138.90547     La( 1.00)
        Sb            15.00   121.76000     Sb( 1.00)
        Au            19.00   196.96657     Au( 1.00)

      2 Sym. Ops. (no inversion) found ( 1 have fractional translation)


                                    s                        frac. trans.

      isym =  1     identity                                     

 cryst.   s( 1) = (     1          0          0      )
                  (     0          1          0      )
                  (     0          0          1      )

 cart.    s( 1) = (  1.0000000  0.0000000  0.0000000 )
                  (  0.0000000  1.0000000 -0.0000000 )
                  (  0.0000000  0.0000000  1.0000000 )


      isym =  2     inv. 180 deg rotation - cart. axis [0,0,1]   

 cryst.   s( 2) = (     1          0          0      )    f =( -0.5000000 )
                  (     0          1          0      )       (  0.0000000 )
                  (    -1         -1         -1      )       ( -0.0000000 )

 cart.    s( 2) = (  1.0000000  0.0000000 -0.0000000 )    f =( -0.5000000 )
                  (  0.0000000  1.0000000 -0.0000000 )       (  0.0000000 )
                  (  0.0000000  0.0000000 -1.0000000 )       ( -0.0000000 )


   Cartesian axes

     site n.     atom                  positions (alat units)
         1           La  tau(   1) = (   0.7500000   0.1767767   0.1020621  )
         2           La  tau(   2) = (   0.2500000   0.5303301   0.3061862  )
         3           La  tau(   3) = (  -0.0833333  -0.2946278   0.7144345  )
         4           La  tau(   4) = (   0.4166667   0.0589256   0.5103104  )
         5           La  tau(   5) = (  -0.2500000   0.7071068   0.2041241  )
         6           La  tau(   6) = (  -0.0833333   0.2357023   0.6123724  )
         7           Sb  tau(   7) = (   0.5053173   0.4714045   0.0000000  )
         8           Sb  tau(   8) = (   0.2760053  -0.3167763   0.5486726  )
         9           Sb  tau(   9) = (  -0.3906613   0.3978503   0.4082483  )
        10           Sb  tau(  10) = (   0.2760053   0.3903305   0.6760722  )
        11           Sb  tau(  11) = (   0.4426720  -0.0810740   0.1404243  )
        12           Sb  tau(  12) = (   0.0053173   0.4714045   0.0000000  )
        13           Sb  tau(  13) = (   0.7760053  -0.0735542   0.4082483  )
        14           Sb  tau(  14) = (   0.1093387   0.1546282   0.2678239  )
        15           Au  tau(  15) = (   0.0833333  -0.0589256   0.5103104  )
        16           Au  tau(  16) = (  -0.4166667   0.2946278   0.7144345  )
        17           Au  tau(  17) = (  -0.0833333   0.4124790   0.3061862  )
        18           Au  tau(  18) = (   0.4166667   0.7660323   0.1020621  )
        19           Au  tau(  19) = (   0.4166667   0.2357023   0.2041241  )
        20           Au  tau(  20) = (   0.5833333  -0.2357023   0.6123724  )

   Crystallographic axes

     site n.     atom                  positions (cryst. coord.)
         1           La  tau(   1) = (  0.8750000  0.2500000  0.1250000  )
         2           La  tau(   2) = (  0.6250000  0.7500000  0.3750000  )
         3           La  tau(   3) = (  0.2500000  0.1250000  0.8750000  )
         4           La  tau(   4) = (  0.7500000  0.3750000  0.6250000  )
         5           La  tau(   5) = (  0.1250000  0.8750000  0.2500000  )
         6           La  tau(   6) = (  0.3750000  0.6250000  0.7500000  )
         7           Sb  tau(   7) = (  0.6719840  0.5000000  0.0000000  )
         8           Sb  tau(   8) = (  0.5000000 -0.0000000  0.6719840  )
         9           Sb  tau(   9) = (  0.0000000  0.6719840  0.5000000  )
        10           Sb  tau(  10) = (  0.8280160  0.8280160  0.8280160  )
        11           Sb  tau(  11) = (  0.5000000 -0.0000000  0.1719840  )
        12           Sb  tau(  12) = (  0.1719840  0.5000000  0.0000000  )
        13           Sb  tau(  13) = (  1.0000000  0.1719840  0.5000000  )
        14           Sb  tau(  14) = (  0.3280160  0.3280160  0.3280160  )
        15           Au  tau(  15) = (  0.3750000  0.2500000  0.6250000  )
        16           Au  tau(  16) = (  0.1250000  0.7500000  0.8750000  )
        17           Au  tau(  17) = (  0.2500000  0.6250000  0.3750000  )
        18           Au  tau(  18) = (  0.7500000  0.8750000  0.1250000  )
        19           Au  tau(  19) = (  0.6250000  0.3750000  0.2500000  )
        20           Au  tau(  20) = (  0.8750000  0.1250000  0.7500000  )

     number of k points=     1  Methfessel-Paxton smearing, width (Ry)=  0.0010
                       cart. coord. in units 2pi/alat
        k(    1) = (   0.0000000   0.0000000   0.0000000), wk =   2.0000000

                       cryst. coord.
        k(    1) = (   0.0000000   0.0000000   0.0000000), wk =   2.0000000

     Dense  grid:   114080 G-vectors     FFT dimensions: (  90,  90,  90)

     Smooth grid:    40339 G-vectors     FFT dimensions: (  60,  60,  60)

     Dynamical RAM for                 wfc:       0.43 MB

     Dynamical RAM for     wfc (w. buffer):       0.43 MB

     Dynamical RAM for           str. fact:       0.16 MB

     Dynamical RAM for           local pot:       0.00 MB

     Dynamical RAM for          nlocal pot:       1.26 MB

     Dynamical RAM for                qrad:       8.96 MB

     Dynamical RAM for          rho,v,vnew:       0.72 MB

     Dynamical RAM for               rhoin:       0.24 MB

     Dynamical RAM for            rho*nmix:       0.87 MB

     Dynamical RAM for           G-vectors:       0.21 MB

     Dynamical RAM for          h,s,v(r/c):       0.12 MB

     Dynamical RAM for          <psi|beta>:       0.73 MB

     Dynamical RAM for                 psi:       0.86 MB

     Dynamical RAM for                hpsi:       0.86 MB

     Dynamical RAM for                spsi:       0.86 MB

     Dynamical RAM for      wfcinit/wfcrot:       3.96 MB

     Dynamical RAM for           addusdens:      30.63 MB

     Dynamical RAM for          addusforce:      31.52 MB

     Dynamical RAM for         addusstress:      31.67 MB

     Estimated static dynamical RAM per process >      13.13 MB

     Estimated max dynamical RAM per process >      45.67 MB

     Estimated total dynamical RAM >       1.43 GB

     Check: negative core charge=   -0.000004

     Initial potential from superposition of free atoms

     starting charge     291.9482, renormalised to     300.0000
     Starting wfcs are  324 randomized atomic wfcs
     Checking if some PAW data can be deallocated... 
       PAW data deallocated on   20 nodes for type:  1

     total cpu time spent up to now is        2.1 secs

     Self-consistent Calculation

     iteration #  1     ecut=    30.00 Ry     beta= 0.70
     Davidson diagonalization with overlap

---- Real-time Memory Report at c_bands before calling an iterative solver
           193 MiB given to the printing process from OS
             0 MiB allocation reported by mallinfo(arena+hblkhd)
        172646 MiB available memory on the node where the printing process lives
------------------
     ethr =  1.00E-02,  avg # of iterations =  4.0

     total cpu time spent up to now is        2.9 secs

     total energy              =   -5868.80774938 Ry
     estimated scf accuracy    <      12.15098314 Ry

     iteration #  2     ecut=    30.00 Ry     beta= 0.70
     Davidson diagonalization with overlap

---- Real-time Memory Report at c_bands before calling an iterative solver
           231 MiB given to the printing process from OS
             0 MiB allocation reported by mallinfo(arena+hblkhd)
        172271 MiB available memory on the node where the printing process lives
------------------
     ethr =  4.05E-03,  avg # of iterations =  5.0

     total cpu time spent up to now is        3.7 secs

     total energy              =   -5874.09926943 Ry
     estimated scf accuracy    <      22.04047738 Ry

     iteration #  3     ecut=    30.00 Ry     beta= 0.70
     Davidson diagonalization with overlap

---- Real-time Memory Report at c_bands before calling an iterative solver
           237 MiB given to the printing process from OS
             0 MiB allocation reported by mallinfo(arena+hblkhd)
        172125 MiB available memory on the node where the printing process lives
------------------
     ethr =  4.05E-03,  avg # of iterations =  2.0

     total cpu time spent up to now is        4.3 secs

     total energy              =   -5876.39230516 Ry
     estimated scf accuracy    <       1.46720998 Ry

     iteration #  4     ecut=    30.00 Ry     beta= 0.70
     Davidson diagonalization with overlap

---- Real-time Memory Report at c_bands before calling an iterative solver
           238 MiB given to the printing process from OS
             0 MiB allocation reported by mallinfo(arena+hblkhd)
        172124 MiB available memory on the node where the printing process lives
------------------
     ethr =  4.89E-04,  avg # of iterations =  6.0

     total cpu time spent up to now is        5.1 secs

     total energy              =   -5876.76806128 Ry
     estimated scf accuracy    <       0.18360077 Ry

     iteration #  5     ecut=    30.00 Ry     beta= 0.70
     Davidson diagonalization with overlap

---- Real-time Memory Report at c_bands before calling an iterative solver
           239 MiB given to the printing process from OS
             0 MiB allocation reported by mallinfo(arena+hblkhd)
        172120 MiB available memory on the node where the printing process lives
------------------
     ethr =  6.12E-05,  avg # of iterations =  8.0

     total cpu time spent up to now is        5.9 secs

     total energy              =   -5876.80931679 Ry
     estimated scf accuracy    <       0.08659322 Ry

     iteration #  6     ecut=    30.00 Ry     beta= 0.70
     Davidson diagonalization with overlap

---- Real-time Memory Report at c_bands before calling an iterative solver
           240 MiB given to the printing process from OS
             0 MiB allocation reported by mallinfo(arena+hblkhd)
        172117 MiB available memory on the node where the printing process lives
------------------
     c_bands:  2 eigenvalues not converged
     ethr =  2.89E-05,  avg # of iterations = 20.0

     total cpu time spent up to now is        6.9 secs

     total energy              =   -5876.82115955 Ry
     estimated scf accuracy    <       0.01397023 Ry

     iteration #  7     ecut=    30.00 Ry     beta= 0.70
     Davidson diagonalization with overlap

---- Real-time Memory Report at c_bands before calling an iterative solver
           242 MiB given to the printing process from OS
             0 MiB allocation reported by mallinfo(arena+hblkhd)
        172094 MiB available memory on the node where the printing process lives
------------------
     c_bands:  5 eigenvalues not converged
     ethr =  4.66E-06,  avg # of iterations = 40.0

     total cpu time spent up to now is        8.3 secs

     total energy              =   -5876.82396130 Ry
     estimated scf accuracy    <       0.01406469 Ry

     iteration #  8     ecut=    30.00 Ry     beta= 0.70
     Davidson diagonalization with overlap

---- Real-time Memory Report at c_bands before calling an iterative solver
           243 MiB given to the printing process from OS
             0 MiB allocation reported by mallinfo(arena+hblkhd)
        172079 MiB available memory on the node where the printing process lives
------------------
     c_bands:  1 eigenvalues not converged
     ethr =  4.66E-06,  avg # of iterations = 20.0

     total cpu time spent up to now is        9.3 secs

     total energy              =   -5876.82514625 Ry
     estimated scf accuracy    <       0.00237269 Ry

     iteration #  9     ecut=    30.00 Ry     beta= 0.70
     Davidson diagonalization with overlap

---- Real-time Memory Report at c_bands before calling an iterative solver
           244 MiB given to the printing process from OS
             0 MiB allocation reported by mallinfo(arena+hblkhd)
        172073 MiB available memory on the node where the printing process lives
------------------
     c_bands:  5 eigenvalues not converged
     ethr =  7.91E-07,  avg # of iterations = 20.0

     total cpu time spent up to now is       10.5 secs

     total energy              =   -5876.82538671 Ry
     estimated scf accuracy    <       0.00033723 Ry

     iteration # 10     ecut=    30.00 Ry     beta= 0.70
     Davidson diagonalization with overlap

---- Real-time Memory Report at c_bands before calling an iterative solver
           246 MiB given to the printing process from OS
             0 MiB allocation reported by mallinfo(arena+hblkhd)
        172069 MiB available memory on the node where the printing process lives
------------------
     ethr =  1.12E-07,  avg # of iterations =  6.0

     total cpu time spent up to now is       11.2 secs

     total energy              =   -5876.82545196 Ry
     estimated scf accuracy    <       0.00004086 Ry

     iteration # 11     ecut=    30.00 Ry     beta= 0.70
     Davidson diagonalization with overlap

---- Real-time Memory Report at c_bands before calling an iterative solver
           246 MiB given to the printing process from OS
             0 MiB allocation reported by mallinfo(arena+hblkhd)
        172064 MiB available memory on the node where the printing process lives
------------------
     ethr =  1.36E-08,  avg # of iterations =  5.0

     total cpu time spent up to now is       12.0 secs

     total energy              =   -5876.82546669 Ry
     estimated scf accuracy    <       0.00001950 Ry

     iteration # 12     ecut=    30.00 Ry     beta= 0.70
     Davidson diagonalization with overlap

---- Real-time Memory Report at c_bands before calling an iterative solver
           247 MiB given to the printing process from OS
             0 MiB allocation reported by mallinfo(arena+hblkhd)
        172050 MiB available memory on the node where the printing process lives
------------------
     ethr =  6.50E-09,  avg # of iterations =  4.0

     total cpu time spent up to now is       12.6 secs

     total energy              =   -5876.82546843 Ry
     estimated scf accuracy    <       0.00000508 Ry

     iteration # 13     ecut=    30.00 Ry     beta= 0.70
     Davidson diagonalization with overlap

---- Real-time Memory Report at c_bands before calling an iterative solver
           247 MiB given to the printing process from OS
             0 MiB allocation reported by mallinfo(arena+hblkhd)
        172050 MiB available memory on the node where the printing process lives
------------------
     ethr =  1.69E-09,  avg # of iterations =  5.0

     total cpu time spent up to now is       13.3 secs

     End of self-consistent calculation

          k = 0.0000 0.0000 0.0000 (  5003 PWs)   bands (ev):

   -94.4098 -94.3607 -94.2384 -94.1762 -94.1568 -94.0472 -45.1411 -45.1301
   -45.1296 -45.1248 -45.1088 -45.0987 -45.0947 -45.0895 -45.0832 -45.0718
   -45.0650 -45.0591 -45.0493 -45.0463 -45.0342 -45.0191 -45.0182 -44.9616
   -19.7425 -19.7266 -19.5583 -19.5295 -19.5046 -19.4920 -15.8240 -15.8036
   -15.7999 -15.7962 -15.7946 -15.7894 -15.7840 -15.7761 -15.7741 -15.7703
   -15.7601 -15.7546 -15.7496 -15.7460 -15.7405 -15.7375 -15.7333 -15.7284
   -15.7171 -15.7153 -15.7070 -15.7057 -15.7024 -15.6967 -15.6879 -15.6795
   -15.6696 -15.6547 -15.6126 -15.5798 -15.5258 -15.5140 -15.4949 -15.4545
   -15.3366 -15.1984 -15.0937 -14.9808 -14.8631 -14.4839  -4.1124  -3.6462
    -3.5464  -3.4790  -3.4449  -3.4356  -3.4162  -3.3894  -3.3739  -3.3489
    -3.3343  -3.3239  -3.3087  -3.3008  -3.2924  -3.2814  -3.2793  -3.2463
     2.5039   3.5357   3.8361   3.8486   3.8801   3.9449   3.9798   3.9852
     7.0694   7.0921   7.7723   7.7865   7.7915   7.8227   7.8493   7.8556
     7.8793   7.9256   8.0312   8.0366   8.0546   8.1344   8.1499   8.1678
     8.1929   8.2662   8.2876   8.2887   8.3045   8.3311   8.3582   8.3751
     8.4030   8.4223   8.4706   8.5088   8.5497   8.6719   8.6937   8.7266
     9.4847   9.5420   9.5624   9.7065   9.8309   9.8577  10.2377  10.2545
    10.8726  11.3531  11.5628  11.5907  11.6147  12.1430  12.1615  12.1759
    12.3111  12.3417  12.3541  12.6756  12.6927  12.7062  13.4057  13.4374
    13.7210  14.2119  14.2193  14.2613  14.4558  14.5401  14.5570  15.0910
    15.1109  15.1308  15.1741  15.1857  15.1895  15.2008  15.2153  15.2244
    15.2471  15.2706  15.2827  15.2986  15.2995  15.3013  15.3426  15.3450
    15.3552  15.3603  15.3649  15.3729

     occupation numbers 
     1.0000   1.0000   1.0000   1.0000   1.0000   1.0000   1.0000   1.0000
     1.0000   1.0000   1.0000   1.0000   1.0000   1.0000   1.0000   1.0000
     1.0000   1.0000   1.0000   1.0000   1.0000   1.0000   1.0000   1.0000
     1.0000   1.0000   1.0000   1.0000   1.0000   1.0000   1.0000   1.0000
     1.0000   1.0000   1.0000   1.0000   1.0000   1.0000   1.0000   1.0000
     1.0000   1.0000   1.0000   1.0000   1.0000   1.0000   1.0000   1.0000
     1.0000   1.0000   1.0000   1.0000   1.0000   1.0000   1.0000   1.0000
     1.0000   1.0000   1.0000   1.0000   1.0000   1.0000   1.0000   1.0000
     1.0000   1.0000   1.0000   1.0000   1.0000   1.0000   1.0000   1.0000
     1.0000   1.0000   1.0000   1.0000   1.0000   1.0000   1.0000   1.0000
     1.0000   1.0000   1.0000   1.0000   1.0000   1.0000   1.0000   1.0000
     1.0000   1.0000   1.0000   1.0000   1.0000   1.0000   1.0000   1.0000
     1.0000   1.0000   1.0000   1.0000   1.0000   1.0000   1.0000   1.0000
     1.0000   1.0000   1.0000   1.0000   1.0000   1.0000   1.0000   1.0000
     1.0000   1.0000   1.0000   1.0000   1.0000   1.0000   1.0000   1.0000
     1.0000   1.0000   1.0000   1.0000   1.0000   1.0000   1.0000   1.0000
     1.0000   1.0000   1.0000   1.0000   1.0000   1.0000   1.0000   1.0000
     1.0000   1.0000   1.0000   1.0000   1.0000   1.0000   1.0000   1.0000
     1.0000   1.0000   1.0000   1.0000   1.0000   1.0000  -0.0000  -0.0000
    -0.0000  -0.0000  -0.0000  -0.0000  -0.0000  -0.0000  -0.0000  -0.0000
    -0.0000  -0.0000  -0.0000  -0.0000  -0.0000  -0.0000  -0.0000  -0.0000
    -0.0000  -0.0000  -0.0000  -0.0000  -0.0000  -0.0000  -0.0000  -0.0000
    -0.0000  -0.0000  -0.0000  -0.0000

     the Fermi energy is    12.9295 ev

!    total energy              =   -5876.82546921 Ry
     estimated scf accuracy    <       0.00000070 Ry
     smearing contrib. (-TS)   =       0.00000000 Ry
     internal energy E=F+TS    =   -5876.82546921 Ry

     The total energy is F=E-TS. E is the sum of the following terms:
     one-electron contribution =   -1585.26697428 Ry
     hartree contribution      =     931.53344392 Ry
     xc contribution           =    -556.81021766 Ry
     ewald contribution        =   -2277.82126761 Ry
     one-center paw contrib.   =   -2388.46045358 Ry
      -> PAW hartree energy AE =      34.89749637 Ry
      -> PAW hartree energy PS =     -34.94086564 Ry
      -> PAW xc energy AE      =    -405.32990945 Ry
      -> PAW xc energy PS      =       7.29061634 Ry
      -> total E_H with PAW    =     931.49007465 Ry
      -> total E_XC with PAW   =    -954.84951076 Ry

     convergence has been achieved in  13 iterations

     Forces acting on atoms (cartesian axes, Ry/au):

     atom    1 type  1   force =    -0.00412081   -0.00026994   -0.00892178
     atom    2 type  1   force =     0.01603897   -0.00087928   -0.01069343
     atom    3 type  1   force =    -0.00412081   -0.00026994    0.00892178
     atom    4 type  1   force =     0.01603897   -0.00087928    0.01069343
     atom    5 type  1   force =     0.00618346    0.00516842    0.02743465
     atom    6 type  1   force =     0.00618346    0.00516842   -0.02743465
     atom    7 type  2   force =     0.01821485    0.00806798    0.00463026
     atom    8 type  2   force =    -0.03413383    0.00698828    0.03653314
     atom    9 type  2   force =    -0.01458304   -0.00370129    0.02837223
     atom   10 type  2   force =    -0.01620301   -0.00616218   -0.04588453
     atom   11 type  2   force =    -0.01620301   -0.00616218    0.04588453
     atom   12 type  2   force =     0.01821485    0.00806798   -0.00463026
     atom   13 type  2   force =    -0.01458304   -0.00370129   -0.02837223
     atom   14 type  2   force =    -0.03413383    0.00698828   -0.03653314
     atom   15 type  3   force =    -0.01405339   -0.00967140   -0.01455001
     atom   16 type  3   force =     0.01991868   -0.00894898   -0.00585435
     atom   17 type  3   force =    -0.01405339   -0.00967140    0.01455001
     atom   18 type  3   force =     0.01991868   -0.00894898    0.00585435
     atom   19 type  3   force =     0.02273812    0.00940839   -0.03233302
     atom   20 type  3   force =     0.02273812    0.00940839    0.03233302
     The non-local contrib.  to forces
     atom    1 type  1   force =     0.00120056   -0.00518920   -0.01133857
     atom    2 type  1   force =     0.01699135   -0.00205229    0.00082252
     atom    3 type  1   force =     0.00120056   -0.00518920    0.01133857
     atom    4 type  1   force =     0.01699135   -0.00205229   -0.00082252
     atom    5 type  1   force =    -0.00112713    0.00720054    0.00406053
     atom    6 type  1   force =    -0.00112713    0.00720054   -0.00406053
     atom    7 type  2   force =    -0.43338846    0.02156164    0.01210035
     atom    8 type  2   force =     0.11393027    0.22842084   -0.33551487
     atom    9 type  2   force =     0.14928888   -0.41135956    0.03784520
     atom   10 type  2   force =     0.14028930    0.21169831    0.31610059
     atom   11 type  2   force =     0.14028930    0.21169831   -0.31610059
     atom   12 type  2   force =    -0.43338846    0.02156164   -0.01210035
     atom   13 type  2   force =     0.14928888   -0.41135956   -0.03784520
     atom   14 type  2   force =     0.11393027    0.22842084    0.33551487
     atom   15 type  3   force =    -0.00767374    0.00311469   -0.01367694
     atom   16 type  3   force =     0.02118121   -0.00799485   -0.01143653
     atom   17 type  3   force =    -0.00767374    0.00311469    0.01367694
     atom   18 type  3   force =     0.02118121   -0.00799485    0.01143653
     atom   19 type  3   force =     0.02263405    0.00906956   -0.01425449
     atom   20 type  3   force =     0.02263405    0.00906956    0.01425449
     The ionic contribution  to forces
     atom    1 type  1   force =     0.00000000    0.00000000    0.00000000
     atom    2 type  1   force =    -0.00000000    0.00000000    0.00000000
     atom    3 type  1   force =     0.00000000   -0.00000000    0.00000000
     atom    4 type  1   force =     0.00000000    0.00000000    0.00000000
     atom    5 type  1   force =    -0.00000000    0.00000000    0.00000000
     atom    6 type  1   force =     0.00000000    0.00000000    0.00000000
     atom    7 type  2   force =     5.36298235    0.00000000   -0.00000001
     atom    8 type  2   force =    -1.78766078   -2.52813413    4.37885675
     atom    9 type  2   force =    -1.78766079    5.05626824   -0.00000000
     atom   10 type  2   force =    -1.78766078   -2.52813413   -4.37885675
     atom   11 type  2   force =    -1.78766079   -2.52813412    4.37885675
     atom   12 type  2   force =     5.36298235   -0.00000001   -0.00000000
     atom   13 type  2   force =    -1.78766078    5.05626825   -0.00000001
     atom   14 type  2   force =    -1.78766078   -2.52813413   -4.37885675
     atom   15 type  3   force =     0.00000000    0.00000000    0.00000001
     atom   16 type  3   force =     0.00000000    0.00000000    0.00000000
     atom   17 type  3   force =     0.00000000    0.00000000    0.00000000
     atom   18 type  3   force =     0.00000000   -0.00000000    0.00000000
     atom   19 type  3   force =     0.00000000    0.00000000    0.00000000
     atom   20 type  3   force =     0.00000000    0.00000000    0.00000000
     The local contribution  to forces
     atom    1 type  1   force =    -0.01533669    0.02459330    0.00679360
     atom    2 type  1   force =     0.00226152    0.01532615   -0.01251853
     atom    3 type  1   force =     0.00130646   -0.00982190    0.00184735
     atom    4 type  1   force =    -0.00847333   -0.00758218    0.01076168
     atom    5 type  1   force =     0.00834121   -0.00874898    0.02619644
     atom    6 type  1   force =     0.00304905    0.00993420   -0.02018298
     atom    7 type  2   force =    -4.91728751    0.00268531    0.00510728
     atom    8 type  2   force =     1.64708440    2.29606180   -4.02751258
     atom    9 type  2   force =     1.63113650   -4.65361899   -0.03165240
     atom   10 type  2   force =     1.63099769    2.31730872    4.03047965
     atom   11 type  2   force =     1.62836961    2.31269062   -4.00844647
     atom   12 type  2   force =    -4.91783735   -0.01952762    0.02089934
     atom   13 type  2   force =     1.61821080   -4.64541347   -0.01701638
     atom   14 type  2   force =     1.62732680    2.32678863    3.99131770
     atom   15 type  3   force =    -0.01104860   -0.00221395   -0.00266969
     atom   16 type  3   force =    -0.00103369    0.01295489   -0.00339001
     atom   17 type  3   force =    -0.00432754   -0.01677501   -0.00100685
     atom   18 type  3   force =    -0.00507188   -0.00953485   -0.01691855
     atom   19 type  3   force =    -0.00812105    0.00092361   -0.02754009
     atom   20 type  3   force =     0.00398682    0.00399637    0.00863809
     The core correction contribution to forces
     atom    1 type  1   force =    -0.00000573    0.00001157    0.00000811
     atom    2 type  1   force =    -0.00000022    0.00000603   -0.00000655
     atom    3 type  1   force =    -0.00000049   -0.00000504   -0.00000030
     atom    4 type  1   force =    -0.00000582    0.00000024    0.00000958
     atom    5 type  1   force =     0.00000734   -0.00000148    0.00001736
     atom    6 type  1   force =     0.00000338    0.00000137   -0.00001357
     atom    7 type  2   force =     0.00450198   -0.00120822    0.00221058
     atom    8 type  2   force =     0.00220181   -0.00347631    0.00158178
     atom    9 type  2   force =    -0.00330828    0.00570960   -0.00339591
     atom   10 type  2   force =    -0.00244064   -0.00176022   -0.00303542
     atom   11 type  2   force =     0.00102330   -0.00344848    0.00175039
     atom   12 type  2   force =     0.00448099   -0.00208662    0.00266419
     atom   13 type  2   force =    -0.00142261    0.00205136    0.00060138
     atom   14 type  2   force =    -0.00131992   -0.00125255   -0.00321035
     atom   15 type  3   force =     0.00000000    0.00000000    0.00000000
     atom   16 type  3   force =     0.00000000    0.00000000    0.00000000
     atom   17 type  3   force =     0.00000000    0.00000000    0.00000000
     atom   18 type  3   force =     0.00000000    0.00000000    0.00000000
     atom   19 type  3   force =     0.00000000    0.00000000    0.00000000
     atom   20 type  3   force =     0.00000000    0.00000000    0.00000000
     The Hubbard contrib.    to forces
     atom    1 type  1   force =     0.00000000    0.00000000    0.00000000
     atom    2 type  1   force =     0.00000000    0.00000000    0.00000000
     atom    3 type  1   force =     0.00000000    0.00000000    0.00000000
     atom    4 type  1   force =     0.00000000    0.00000000    0.00000000
     atom    5 type  1   force =     0.00000000    0.00000000    0.00000000
     atom    6 type  1   force =     0.00000000    0.00000000    0.00000000
     atom    7 type  2   force =     0.00000000    0.00000000    0.00000000
     atom    8 type  2   force =     0.00000000    0.00000000    0.00000000
     atom    9 type  2   force =     0.00000000    0.00000000    0.00000000
     atom   10 type  2   force =     0.00000000    0.00000000    0.00000000
     atom   11 type  2   force =     0.00000000    0.00000000    0.00000000
     atom   12 type  2   force =     0.00000000    0.00000000    0.00000000
     atom   13 type  2   force =     0.00000000    0.00000000    0.00000000
     atom   14 type  2   force =     0.00000000    0.00000000    0.00000000
     atom   15 type  3   force =     0.00000000    0.00000000    0.00000000
     atom   16 type  3   force =     0.00000000    0.00000000    0.00000000
     atom   17 type  3   force =     0.00000000    0.00000000    0.00000000
     atom   18 type  3   force =     0.00000000    0.00000000    0.00000000
     atom   19 type  3   force =     0.00000000    0.00000000    0.00000000
     atom   20 type  3   force =     0.00000000    0.00000000    0.00000000
     The SCF correction term to forces
     atom    1 type  1   force =     0.00005988    0.00003395   -0.00014051
     atom    2 type  1   force =     0.00039630    0.00006742   -0.00006877
     atom    3 type  1   force =    -0.00031207    0.00033141   -0.00001942
     atom    4 type  1   force =     0.00027089   -0.00016686   -0.00033320
     atom    5 type  1   force =    -0.00038375   -0.00018710    0.00047230
     atom    6 type  1   force =    -0.00004194    0.00024253    0.00013442
     atom    7 type  2   force =    -0.00054170   -0.00031221    0.00078223
     atom    8 type  2   force =     0.00026789   -0.00010082    0.00025336
     atom    9 type  2   force =    -0.00011978   -0.00029039   -0.00027748
     atom   10 type  2   force =    -0.00059472    0.00077282   -0.00023763
     atom   11 type  2   force =     0.00133581    0.00028860    0.00015942
     atom   12 type  2   force =     0.00027961   -0.00123316   -0.00052328
     atom   13 type  2   force =    -0.00056480   -0.00035329    0.00003515
     atom   14 type  2   force =    -0.00001350    0.00068718   -0.00016732
     atom   15 type  3   force =    -0.00022472   -0.00024136    0.00005058
     atom   16 type  3   force =     0.00107383   -0.00003144   -0.00195627
     atom   17 type  3   force =    -0.00080433   -0.00103708    0.00013389
     atom   18 type  3   force =    -0.00113921    0.00000792    0.00040792
     atom   19 type  3   force =     0.00030829    0.00053047    0.00056149
     atom   20 type  3   force =     0.00038817    0.00053198    0.00054038

     Total force =     0.143914     Total SCF correction =     0.004225


     Computing stress (Cartesian axis) and pressure

          total   stress  (Ry/bohr**3)                   (kbar)     P=     -294.26
  -0.00214502  -0.00006390   0.00000000         -315.54       -9.40        0.00
  -0.00006390  -0.00195653   0.00000000           -9.40     -287.82        0.00
   0.00000000   0.00000000  -0.00189954            0.00        0.00     -279.43

     kinetic stress (kbar)  24136.60     -6.66     -0.00
                               -6.66  24150.51     -0.00
                               -0.00     -0.00  24157.46

     local   stress (kbar)  -5063.78     -3.43     -5.21
                               -3.43  -5073.63     -0.87
                               -5.21     -0.87  -5071.36

     nonloc. stress (kbar)   4108.46     -1.22     -0.00
                               -1.22   4122.97     -0.00
                               -0.00     -0.00   4123.63

     hartree stress (kbar)  12566.37      1.88      2.97
                                1.88  12575.44      0.75
                                2.97      0.75  12573.98

     exc-cor stress (kbar)   2135.40      0.09      0.04
                                0.09   2135.59     -0.00
                                0.04     -0.00   2135.49

     corecor stress (kbar)  -7457.24     -0.06     -0.05
                               -0.06  -7457.33     -0.01
                               -0.05     -0.01  -7457.27

     ewald   stress (kbar) -30741.37     -0.00     -0.00
                               -0.00 -30741.37     -0.00
                               -0.00     -0.00 -30741.37

     hubbard stress (kbar)      0.00      0.00      0.00
                                0.00      0.00      0.00
                                0.00      0.00      0.00

     DFT-D   stress (kbar)      0.00      0.00      0.00
                                0.00      0.00      0.00
                                0.00      0.00      0.00

     XDM     stress (kbar)      0.00      0.00      0.00
                                0.00      0.00      0.00
                                0.00      0.00      0.00

     dft-nl  stress (kbar)      0.00      0.00      0.00
                                0.00      0.00      0.00
                                0.00      0.00      0.00

     TS-vdW  stress (kbar)      0.00      0.00      0.00
                                0.00      0.00      0.00
                                0.00      0.00      0.00


                                0.00      0.00      0.00
                                0.00      0.00      0.00


                                0.00      0.00      0.00


     Writing all to output data dir calculations/myprefix.save/
 
     init_run     :      1.67s CPU      1.73s WALL (       1 calls)
     electrons    :     10.60s CPU     11.29s WALL (       1 calls)
     forces       :      0.31s CPU      0.32s WALL (       1 calls)
     stress       :      0.93s CPU      0.96s WALL (       1 calls)

     Called by init_run:
     wfcinit      :      0.13s CPU      0.14s WALL (       1 calls)
     wfcinit:atom :      0.00s CPU      0.00s WALL (       1 calls)
     wfcinit:wfcr :      0.12s CPU      0.14s WALL (       1 calls)
     potinit      :      0.84s CPU      0.86s WALL (       1 calls)
     hinit0       :      0.60s CPU      0.61s WALL (       1 calls)

     Called by electrons:
     c_bands      :      4.61s CPU      4.73s WALL (      13 calls)
     sum_band     :      0.99s CPU      1.24s WALL (      13 calls)
     v_of_rho     :      0.17s CPU      0.18s WALL (      14 calls)
     v_h          :      0.01s CPU      0.01s WALL (      14 calls)
     v_xc         :      0.19s CPU      0.19s WALL (      16 calls)
     newd         :      0.75s CPU      0.91s WALL (      14 calls)
     PAW_pot      :      4.39s CPU      4.44s WALL (      14 calls)
     mix_rho      :      0.04s CPU      0.05s WALL (      13 calls)

     Called by c_bands:
     init_us_2    :      0.01s CPU      0.02s WALL (      27 calls)
     init_us_2:cp :      0.01s CPU      0.02s WALL (      27 calls)
     regterg      :      4.51s CPU      4.62s WALL (      14 calls)

     Called by sum_band:
     sum_band:wei :      0.00s CPU      0.00s WALL (      13 calls)
     sum_band:loo :      0.20s CPU      0.21s WALL (      13 calls)
     sum_band:buf :      0.00s CPU      0.00s WALL (      13 calls)
     sum_band:ini :      0.01s CPU      0.01s WALL (      13 calls)
     sum_band:cal :      0.04s CPU      0.04s WALL (      13 calls)
     sum_band:bec :      0.00s CPU      0.00s WALL (      13 calls)
     addusdens    :      0.74s CPU      0.97s WALL (      13 calls)
     addusd:skk   :      0.00s CPU      0.00s WALL (      26 calls)
     addusd:dgemm :      0.18s CPU      0.38s WALL (      26 calls)
     addusd:qvan2 :      0.51s CPU      0.53s WALL (      26 calls)

     Called by *egterg:
     rdiaghg      :      2.44s CPU      2.51s WALL (     159 calls)
     regterg:over :      0.27s CPU      0.27s WALL (     145 calls)
     regterg:upda :      0.12s CPU      0.12s WALL (     145 calls)
     regterg:last :      0.16s CPU      0.16s WALL (      37 calls)
     rdiaghg:chol :      0.09s CPU      0.10s WALL (     159 calls)
     rdiaghg:inve :      0.01s CPU      0.01s WALL (     159 calls)
     rdiaghg:para :      0.22s CPU      0.22s WALL (     318 calls)
     h_psi        :      1.45s CPU      1.50s WALL (     160 calls)
     s_psi        :      0.07s CPU      0.07s WALL (     160 calls)
     g_psi        :      0.00s CPU      0.00s WALL (     145 calls)

     Called by h_psi:
     h_psi:calbec :      0.37s CPU      0.37s WALL (     160 calls)
     vloc_psi     :      0.97s CPU      1.01s WALL (     160 calls)
     add_vuspsi   :      0.10s CPU      0.10s WALL (     160 calls)

     General routines
     calbec       :      0.43s CPU      0.44s WALL (     178 calls)
     fft          :      0.47s CPU      0.49s WALL (     172 calls)
     ffts         :      0.39s CPU      0.39s WALL (      27 calls)
     fftw         :      1.01s CPU      1.05s WALL (    9170 calls)
     interpolate  :      0.40s CPU      0.40s WALL (      14 calls)
 
     Parallel routines

     PAW routines
     PAW_pot      :      4.39s CPU      4.44s WALL (      14 calls)
     PAW_symme    :      0.02s CPU      0.02s WALL (      27 calls)
 
     PWSCF        :     13.89s CPU     15.18s WALL

 
   This run was terminated on:  15: 1:23   3Mar2023            

=------------------------------------------------------------------------------=
   JOB DONE.
=------------------------------------------------------------------------------=
