
     Program PWSCF v.7.0 starts on 23Jun2023 at  9:36: 7 

     This program is part of the open-source Quantum ESPRESSO suite
     for quantum simulation of materials; please cite
         "P. Giannozzi et al., J. Phys.:Condens. Matter 21 395502 (2009);
         "P. Giannozzi et al., J. Phys.:Condens. Matter 29 465901 (2017);
         "P. Giannozzi et al., J. Chem. Phys. 152 154105 (2020);
          URL http://www.quantum-espresso.org", 
     in publications or presentations arising from this work. More details at
     http://www.quantum-espresso.org/quote

     Parallel version (MPI & OpenMP), running on      32 processor cores
     Number of MPI processes:                 8
     Threads/MPI process:                     4

     MPI processes distributed on     1 nodes
     K-points division:     npool     =       2
     R & G space division:  proc/nbgrp/npool/nimage =       4
     80865 MiB available memory on the printing compute node when the environment starts
 
     Reading input from espresso_608.pwi
Warning: card &CELL ignored
Warning: card / ignored

     Current dimensions of program PWSCF are:
     Max number of different atomic species (ntypx) = 10
     Max number of k-points (npk) =  40000
     Max angular momentum in pseudopotentials (lmaxx) =  4
     Message from routine setup:
     using ibrav=0 with symmetry is DISCOURAGED, use correct ibrav instead

     Subspace diagonalization in iterative solution of the eigenvalue problem:
     one sub-group per band group will be used
     scalapack distributed-memory algorithm (size of sub-group:  2*  2 procs)

 
     Parallelization info
     --------------------
     sticks:   dense  smooth     PW     G-vecs:    dense   smooth      PW
     Min         286     144     42                38136    13514    2062
     Max         287     145     43                38141    13527    2065
     Sum        1145     577    169               152555    54073    8255
 
     Using Slab Decomposition
 


     bravais-lattice index     =            0
     lattice parameter (alat)  =       7.7094  a.u.
     unit-cell volume          =    2432.2856 (a.u.)^3
     number of atoms/cell      =           16
     number of atomic types    =            3
     number of electrons       =       168.00
     number of Kohn-Sham states=           90
     kinetic-energy cutoff     =      30.0000  Ry
     charge density cutoff     =     240.0000  Ry
     scf convergence threshold =      1.0E-06
     mixing beta               =       0.7000
     number of iterations used =            8  plain     mixing
     Exchange-correlation= PBE
                           (   1   4   3   4   0   0   0)

     celldm(1)=   7.709414  celldm(2)=   0.000000  celldm(3)=   0.000000
     celldm(4)=   0.000000  celldm(5)=   0.000000  celldm(6)=   0.000000

     crystal axes: (cart. coord. in units of alat)
               a(1) = (   1.000000   0.000000   0.000000 )  
               a(2) = (   0.000000   1.011934   0.000000 )  
               a(3) = (   0.000000   0.000000   5.245636 )  

     reciprocal axes: (cart. coord. in units 2 pi/alat)
               b(1) = (  1.000000  0.000000  0.000000 )  
               b(2) = (  0.000000  0.988206  0.000000 )  
               b(3) = (  0.000000  0.000000  0.190635 )  


     PseudoPot. # 1 for Pr read from file:
     /home/pragov/projects/rrg-bengioy-ad/pragov/crystal_structure_design/SSSP/Pr.GGA-PBE-paw-v1.0.UPF
     MD5 check sum: b5e1e58e76df433569641143f671cc27
     Pseudo is Projector augmented-wave + core cor, Zval = 13.0
     Generated using ATOMPAW code
     Shape of augmentation charge: BESSEL
     Using radial grid of 1103 points,  8 beta functions with: 
                l(1) =   0
                l(2) =   0
                l(3) =   1
                l(4) =   1
                l(5) =   2
                l(6) =   2
                l(7) =   3
                l(8) =   3
     Q(r) pseudized with 0 coefficients 


     PseudoPot. # 2 for Ag read from file:
     /home/pragov/projects/rrg-bengioy-ad/pragov/crystal_structure_design/SSSP/Ag_ONCV_PBE-1.0.oncvpsp.upf
     MD5 check sum: 94f47bd0669c641108e45594df92fabc
     Pseudo is Norm-conserving, Zval = 19.0
     Generated using ONCVPSP code by D. R. Hamann
     Using radial grid of 1398 points,  6 beta functions with: 
                l(1) =   0
                l(2) =   0
                l(3) =   1
                l(4) =   1
                l(5) =   2
                l(6) =   2

     PseudoPot. # 3 for As read from file:
     /home/pragov/projects/rrg-bengioy-ad/pragov/crystal_structure_design/SSSP/As.pbe-n-rrkjus_psl.0.2.UPF
     MD5 check sum: 767315de957beeeb34f87d97bf945c8f
     Pseudo is Ultrasoft + core correction, Zval =  5.0
     Generated using "atomic" code by A. Dal Corso  v.5.0.99 svn rev. 10869
     Using radial grid of 1209 points,  4 beta functions with: 
                l(1) =   0
                l(2) =   0
                l(3) =   1
                l(4) =   1
     Q(r) pseudized with 0 coefficients 


     atomic species   valence    mass     pseudopotential
        Pr            13.00   140.90766     Pr( 1.00)
        Ag            19.00   107.86820     Ag( 1.00)
        As             5.00    74.92159     As( 1.00)

      8 Sym. Ops., with inversion, found ( 6 have fractional translation)


                                    s                        frac. trans.

      isym =  1     identity                                     

 cryst.   s( 1) = (     1          0          0      )
                  (     0          1          0      )
                  (     0          0          1      )

 cart.    s( 1) = (  1.0000000  0.0000000  0.0000000 )
                  (  0.0000000  1.0000000  0.0000000 )
                  (  0.0000000  0.0000000  1.0000000 )


      isym =  2     180 deg rotation - cart. axis [0,0,1]        

 cryst.   s( 2) = (    -1          0          0      )    f =(  0.5000000 )
                  (     0         -1          0      )       (  0.5000000 )
                  (     0          0          1      )       (  0.5000000 )

 cart.    s( 2) = ( -1.0000000  0.0000000  0.0000000 )    f =(  0.5000000 )
                  (  0.0000000 -1.0000000  0.0000000 )       (  0.5059672 )
                  (  0.0000000  0.0000000  1.0000000 )       (  2.6228181 )


      isym =  3     180 deg rotation - cart. axis [0,1,0]        

 cryst.   s( 3) = (    -1          0          0      )    f =(  0.0000000 )
                  (     0          1          0      )       (  0.5000000 )
                  (     0          0         -1      )       (  0.5000000 )

 cart.    s( 3) = ( -1.0000000  0.0000000  0.0000000 )    f =(  0.0000000 )
                  (  0.0000000  1.0000000  0.0000000 )       (  0.5059672 )
                  (  0.0000000  0.0000000 -1.0000000 )       (  2.6228181 )


      isym =  4     180 deg rotation - cart. axis [1,0,0]        

 cryst.   s( 4) = (     1          0          0      )    f =(  0.5000000 )
                  (     0         -1          0      )       (  0.0000000 )
                  (     0          0         -1      )       ( -0.0000000 )

 cart.    s( 4) = (  1.0000000  0.0000000  0.0000000 )    f =(  0.5000000 )
                  (  0.0000000 -1.0000000  0.0000000 )       (  0.0000000 )
                  (  0.0000000  0.0000000 -1.0000000 )       ( -0.0000000 )


      isym =  5     inversion                                    

 cryst.   s( 5) = (    -1          0          0      )
                  (     0         -1          0      )
                  (     0          0         -1      )

 cart.    s( 5) = ( -1.0000000  0.0000000  0.0000000 )
                  (  0.0000000 -1.0000000  0.0000000 )
                  (  0.0000000  0.0000000 -1.0000000 )


      isym =  6     inv. 180 deg rotation - cart. axis [0,0,1]   

 cryst.   s( 6) = (     1          0          0      )    f =(  0.5000000 )
                  (     0          1          0      )       (  0.5000000 )
                  (     0          0         -1      )       (  0.5000000 )

 cart.    s( 6) = (  1.0000000  0.0000000  0.0000000 )    f =(  0.5000000 )
                  (  0.0000000  1.0000000  0.0000000 )       (  0.5059672 )
                  (  0.0000000  0.0000000 -1.0000000 )       (  2.6228181 )


      isym =  7     inv. 180 deg rotation - cart. axis [0,1,0]   

 cryst.   s( 7) = (     1          0          0      )    f =(  0.0000000 )
                  (     0         -1          0      )       (  0.5000000 )
                  (     0          0          1      )       (  0.5000000 )

 cart.    s( 7) = (  1.0000000  0.0000000  0.0000000 )    f =(  0.0000000 )
                  (  0.0000000 -1.0000000  0.0000000 )       (  0.5059672 )
                  (  0.0000000  0.0000000  1.0000000 )       (  2.6228181 )


      isym =  8     inv. 180 deg rotation - cart. axis [1,0,0]   

 cryst.   s( 8) = (    -1          0          0      )    f =(  0.5000000 )
                  (     0          1          0      )       (  0.0000000 )
                  (     0          0          1      )       (  0.0000000 )

 cart.    s( 8) = ( -1.0000000  0.0000000  0.0000000 )    f =(  0.5000000 )
                  (  0.0000000  1.0000000  0.0000000 )       (  0.0000000 )
                  (  0.0000000  0.0000000  1.0000000 )       (  0.0000000 )


   Cartesian axes

     site n.     atom                  positions (alat units)
         1           Pr  tau(   1) = (   0.2500000   0.7842613   3.2312385  )
         2           Pr  tau(   2) = (   0.7500000   0.2276731   2.0143978  )
         3           Pr  tau(   3) = (   0.7500000   0.2782941   4.6372159  )
         4           Pr  tau(   4) = (   0.2500000   0.7336403   0.6084204  )
         5           Ag  tau(   5) = (   0.2500000   0.2268372   1.3119022  )
         6           Ag  tau(   6) = (   0.7500000   0.7328044   1.3109160  )
         7           Ag  tau(   7) = (   0.7500000   0.7850971   3.9337341  )
         8           Ag  tau(   8) = (   0.2500000   0.2791300   3.9347203  )
         9           As  tau(   9) = (   0.2500000   0.7851123   4.3983873  )
        10           As  tau(  10) = (   0.7500000   0.2268221   0.8472489  )
        11           As  tau(  11) = (   0.7500000   0.2791451   3.4700671  )
        12           As  tau(  12) = (   0.2500000   0.7327892   1.7755692  )
        13           As  tau(  13) = (   0.2500000   0.3037817   2.6325278  )
        14           As  tau(  14) = (   0.2500000   0.2021855   0.0097097  )
        15           As  tau(  15) = (   0.7500000   0.8097489   5.2359266  )
        16           As  tau(  16) = (   0.7500000   0.7081527   2.6131085  )

   Crystallographic axes

     site n.     atom                  positions (cryst. coord.)
         1           Pr  tau(   1) = (  0.2500000  0.7750120  0.6159860  )
         2           Pr  tau(   2) = (  0.7500000  0.2249880  0.3840140  )
         3           Pr  tau(   3) = (  0.7500000  0.2750120  0.8840140  )
         4           Pr  tau(   4) = (  0.2500000  0.7249880  0.1159860  )
         5           Ag  tau(   5) = (  0.2500000  0.2241620  0.2500940  )
         6           Ag  tau(   6) = (  0.7500000  0.7241620  0.2499060  )
         7           Ag  tau(   7) = (  0.7500000  0.7758380  0.7499060  )
         8           Ag  tau(   8) = (  0.2500000  0.2758380  0.7500940  )
         9           As  tau(   9) = (  0.2500000  0.7758530  0.8384850  )
        10           As  tau(  10) = (  0.7500000  0.2241470  0.1615150  )
        11           As  tau(  11) = (  0.7500000  0.2758530  0.6615150  )
        12           As  tau(  12) = (  0.2500000  0.7241470  0.3384850  )
        13           As  tau(  13) = (  0.2500000  0.3001990  0.5018510  )
        14           As  tau(  14) = (  0.2500000  0.1998010  0.0018510  )
        15           As  tau(  15) = (  0.7500000  0.8001990  0.9981490  )
        16           As  tau(  16) = (  0.7500000  0.6998010  0.4981490  )

     number of k points=     8
                       cart. coord. in units 2pi/alat
        k(    1) = (   0.0000000   0.0000000   0.0000000), wk =   0.0740741
        k(    2) = (   0.0000000   0.0000000   0.0635449), wk =   0.1481481
        k(    3) = (   0.0000000   0.3294021   0.0000000), wk =   0.1481481
        k(    4) = (   0.0000000   0.3294021   0.0635449), wk =   0.2962963
        k(    5) = (   0.3333333   0.0000000   0.0000000), wk =   0.1481481
        k(    6) = (   0.3333333   0.0000000   0.0635449), wk =   0.2962963
        k(    7) = (   0.3333333   0.3294021   0.0000000), wk =   0.2962963
        k(    8) = (   0.3333333   0.3294021   0.0635449), wk =   0.5925926

                       cryst. coord.
        k(    1) = (   0.0000000   0.0000000   0.0000000), wk =   0.0740741
        k(    2) = (   0.0000000   0.0000000   0.3333333), wk =   0.1481481
        k(    3) = (   0.0000000   0.3333333   0.0000000), wk =   0.1481481
        k(    4) = (   0.0000000   0.3333333   0.3333333), wk =   0.2962963
        k(    5) = (   0.3333333   0.0000000   0.0000000), wk =   0.1481481
        k(    6) = (   0.3333333   0.0000000   0.3333333), wk =   0.2962963
        k(    7) = (   0.3333333   0.3333333   0.0000000), wk =   0.2962963
        k(    8) = (   0.3333333   0.3333333   0.3333333), wk =   0.5925926

     Dense  grid:   152555 G-vectors     FFT dimensions: (  40,  40, 200)

     Smooth grid:    54073 G-vectors     FFT dimensions: (  30,  30, 144)

     Dynamical RAM for                 wfc:       2.32 MB

     Dynamical RAM for     wfc (w. buffer):      11.58 MB

     Dynamical RAM for           str. fact:       1.75 MB

     Dynamical RAM for           local pot:       0.00 MB

     Dynamical RAM for          nlocal pot:       6.80 MB

     Dynamical RAM for                qrad:       8.96 MB

     Dynamical RAM for          rho,v,vnew:       3.58 MB

     Dynamical RAM for               rhoin:       1.19 MB

     Dynamical RAM for            rho*nmix:       9.31 MB

     Dynamical RAM for           G-vectors:       2.29 MB

     Dynamical RAM for          h,s,v(r/c):       0.37 MB

     Dynamical RAM for          <psi|beta>:       0.36 MB

     Dynamical RAM for                 psi:       4.63 MB

     Dynamical RAM for                hpsi:       4.63 MB

     Dynamical RAM for                spsi:       4.63 MB

     Dynamical RAM for      wfcinit/wfcrot:      11.21 MB

     Dynamical RAM for           addusdens:     164.12 MB

     Estimated static dynamical RAM per process >      41.52 MB

     Estimated max dynamical RAM per process >     214.94 MB

     Estimated total dynamical RAM >       1.64 GB

     Initial potential from superposition of free atoms

     starting charge     167.9673, renormalised to     168.0000
     Starting wfcs are  200 randomized atomic wfcs
     Checking if some PAW data can be deallocated... 
       PAW data deallocated on    6 nodes for type:  1

     total cpu time spent up to now is        4.8 secs

     Self-consistent Calculation

     iteration #  1     ecut=    30.00 Ry     beta= 0.70
     Davidson diagonalization with overlap

---- Real-time Memory Report at c_bands before calling an iterative solver
           326 MiB given to the printing process from OS
             0 MiB allocation reported by mallinfo(arena+hblkhd)
         81915 MiB available memory on the node where the printing process lives
------------------
     ethr =  1.00E-02,  avg # of iterations =  2.0

     Threshold (ethr) on eigenvalues was too large:
     Diagonalizing with lowered threshold

     Davidson diagonalization with overlap

---- Real-time Memory Report at c_bands before calling an iterative solver
           363 MiB given to the printing process from OS
             0 MiB allocation reported by mallinfo(arena+hblkhd)
         82161 MiB available memory on the node where the printing process lives
------------------
     ethr =  3.63E-04,  avg # of iterations =  4.6

     total cpu time spent up to now is        8.5 secs

     total energy              =   -3327.71368103 Ry
     estimated scf accuracy    <       0.43680218 Ry

     iteration #  2     ecut=    30.00 Ry     beta= 0.70
     Davidson diagonalization with overlap

---- Real-time Memory Report at c_bands before calling an iterative solver
           377 MiB given to the printing process from OS
             0 MiB allocation reported by mallinfo(arena+hblkhd)
         89111 MiB available memory on the node where the printing process lives
------------------
     ethr =  2.60E-04,  avg # of iterations = 14.0

     total cpu time spent up to now is       11.7 secs

     total energy              =   -3326.99131700 Ry
     estimated scf accuracy    <      13.16896767 Ry

     iteration #  3     ecut=    30.00 Ry     beta= 0.70
     Davidson diagonalization with overlap

---- Real-time Memory Report at c_bands before calling an iterative solver
           398 MiB given to the printing process from OS
             0 MiB allocation reported by mallinfo(arena+hblkhd)
         88763 MiB available memory on the node where the printing process lives
------------------
     ethr =  2.60E-04,  avg # of iterations = 11.5

     total cpu time spent up to now is       14.6 secs

     total energy              =   -3327.78121390 Ry
     estimated scf accuracy    <       1.16082837 Ry

     iteration #  4     ecut=    30.00 Ry     beta= 0.70
     Davidson diagonalization with overlap

---- Real-time Memory Report at c_bands before calling an iterative solver
           400 MiB given to the printing process from OS
             0 MiB allocation reported by mallinfo(arena+hblkhd)
         88292 MiB available memory on the node where the printing process lives
------------------
     ethr =  2.60E-04,  avg # of iterations = 12.8

     total cpu time spent up to now is       17.3 secs

     total energy              =   -3327.93576488 Ry
     estimated scf accuracy    <       0.29689589 Ry

     iteration #  5     ecut=    30.00 Ry     beta= 0.70
     Davidson diagonalization with overlap

---- Real-time Memory Report at c_bands before calling an iterative solver
           404 MiB given to the printing process from OS
             0 MiB allocation reported by mallinfo(arena+hblkhd)
         88979 MiB available memory on the node where the printing process lives
------------------
     ethr =  1.77E-04,  avg # of iterations = 12.6

     total cpu time spent up to now is       20.1 secs

     total energy              =   -3327.94219640 Ry
     estimated scf accuracy    <       0.25658789 Ry

     iteration #  6     ecut=    30.00 Ry     beta= 0.70
     Davidson diagonalization with overlap

---- Real-time Memory Report at c_bands before calling an iterative solver
           405 MiB given to the printing process from OS
             0 MiB allocation reported by mallinfo(arena+hblkhd)
         88716 MiB available memory on the node where the printing process lives
------------------
     ethr =  1.53E-04,  avg # of iterations =  3.6

     total cpu time spent up to now is       22.2 secs

     total energy              =   -3327.97590181 Ry
     estimated scf accuracy    <       0.03128158 Ry

     iteration #  7     ecut=    30.00 Ry     beta= 0.70
     Davidson diagonalization with overlap

---- Real-time Memory Report at c_bands before calling an iterative solver
           405 MiB given to the printing process from OS
             0 MiB allocation reported by mallinfo(arena+hblkhd)
         88968 MiB available memory on the node where the printing process lives
------------------
     ethr =  1.86E-05,  avg # of iterations = 14.9

     total cpu time spent up to now is       25.1 secs

     total energy              =   -3327.98079084 Ry
     estimated scf accuracy    <       0.10783805 Ry

     iteration #  8     ecut=    30.00 Ry     beta= 0.70
     Davidson diagonalization with overlap

---- Real-time Memory Report at c_bands before calling an iterative solver
           406 MiB given to the printing process from OS
             0 MiB allocation reported by mallinfo(arena+hblkhd)
         88934 MiB available memory on the node where the printing process lives
------------------
     ethr =  1.86E-05,  avg # of iterations = 10.0

     total cpu time spent up to now is       27.5 secs

     total energy              =   -3327.99045341 Ry
     estimated scf accuracy    <       0.04511027 Ry

     iteration #  9     ecut=    30.00 Ry     beta= 0.70
     Davidson diagonalization with overlap

---- Real-time Memory Report at c_bands before calling an iterative solver
           411 MiB given to the printing process from OS
             0 MiB allocation reported by mallinfo(arena+hblkhd)
         88923 MiB available memory on the node where the printing process lives
------------------
     ethr =  1.86E-05,  avg # of iterations =  4.1

     total cpu time spent up to now is       29.7 secs

     total energy              =   -3327.99474159 Ry
     estimated scf accuracy    <       0.01352293 Ry

     iteration # 10     ecut=    30.00 Ry     beta= 0.70
     Davidson diagonalization with overlap

---- Real-time Memory Report at c_bands before calling an iterative solver
           411 MiB given to the printing process from OS
             0 MiB allocation reported by mallinfo(arena+hblkhd)
         88590 MiB available memory on the node where the printing process lives
------------------
     ethr =  8.05E-06,  avg # of iterations =  4.5

     total cpu time spent up to now is       31.7 secs

     total energy              =   -3327.99492402 Ry
     estimated scf accuracy    <       0.00741225 Ry

     iteration # 11     ecut=    30.00 Ry     beta= 0.70
     Davidson diagonalization with overlap

---- Real-time Memory Report at c_bands before calling an iterative solver
           412 MiB given to the printing process from OS
             0 MiB allocation reported by mallinfo(arena+hblkhd)
         89242 MiB available memory on the node where the printing process lives
------------------
     c_bands:  1 eigenvalues not converged
     ethr =  4.41E-06,  avg # of iterations = 14.8

     total cpu time spent up to now is       34.7 secs

     total energy              =   -3327.99638027 Ry
     estimated scf accuracy    <       0.00511745 Ry

     iteration # 12     ecut=    30.00 Ry     beta= 0.70
     Davidson diagonalization with overlap

---- Real-time Memory Report at c_bands before calling an iterative solver
           413 MiB given to the printing process from OS
             0 MiB allocation reported by mallinfo(arena+hblkhd)
         90146 MiB available memory on the node where the printing process lives
------------------
     c_bands:  3 eigenvalues not converged
     ethr =  3.05E-06,  avg # of iterations =  6.5

     total cpu time spent up to now is       36.9 secs

     total energy              =   -3327.99665071 Ry
     estimated scf accuracy    <       0.00195465 Ry

     iteration # 13     ecut=    30.00 Ry     beta= 0.70
     Davidson diagonalization with overlap

---- Real-time Memory Report at c_bands before calling an iterative solver
           414 MiB given to the printing process from OS
             0 MiB allocation reported by mallinfo(arena+hblkhd)
         90115 MiB available memory on the node where the printing process lives
------------------
     c_bands:  2 eigenvalues not converged
     c_bands:  1 eigenvalues not converged
     ethr =  1.16E-06,  avg # of iterations = 17.1

     total cpu time spent up to now is       40.1 secs

     total energy              =   -3327.99729528 Ry
     estimated scf accuracy    <       0.00172979 Ry

     iteration # 14     ecut=    30.00 Ry     beta= 0.70
     Davidson diagonalization with overlap

---- Real-time Memory Report at c_bands before calling an iterative solver
           416 MiB given to the printing process from OS
             0 MiB allocation reported by mallinfo(arena+hblkhd)
         89380 MiB available memory on the node where the printing process lives
------------------
     ethr =  1.03E-06,  avg # of iterations =  4.1

     total cpu time spent up to now is       41.9 secs

     total energy              =   -3327.99736367 Ry
     estimated scf accuracy    <       0.00078079 Ry

     iteration # 15     ecut=    30.00 Ry     beta= 0.70
     Davidson diagonalization with overlap

---- Real-time Memory Report at c_bands before calling an iterative solver
           420 MiB given to the printing process from OS
             0 MiB allocation reported by mallinfo(arena+hblkhd)
         89176 MiB available memory on the node where the printing process lives
------------------
     ethr =  4.65E-07,  avg # of iterations = 11.0

     total cpu time spent up to now is       44.3 secs

     total energy              =   -3327.99769125 Ry
     estimated scf accuracy    <       0.00067171 Ry

     iteration # 16     ecut=    30.00 Ry     beta= 0.70
     Davidson diagonalization with overlap

---- Real-time Memory Report at c_bands before calling an iterative solver
           420 MiB given to the printing process from OS
             0 MiB allocation reported by mallinfo(arena+hblkhd)
         88927 MiB available memory on the node where the printing process lives
------------------
     ethr =  4.00E-07,  avg # of iterations =  4.1

     total cpu time spent up to now is       46.1 secs

     total energy              =   -3327.99769141 Ry
     estimated scf accuracy    <       0.00062715 Ry

     iteration # 17     ecut=    30.00 Ry     beta= 0.70
     Davidson diagonalization with overlap

---- Real-time Memory Report at c_bands before calling an iterative solver
           420 MiB given to the printing process from OS
             0 MiB allocation reported by mallinfo(arena+hblkhd)
         87959 MiB available memory on the node where the printing process lives
------------------
     ethr =  3.73E-07,  avg # of iterations =  8.6

     total cpu time spent up to now is       48.2 secs

     total energy              =   -3327.99776736 Ry
     estimated scf accuracy    <       0.00022145 Ry

     iteration # 18     ecut=    30.00 Ry     beta= 0.70
     Davidson diagonalization with overlap

---- Real-time Memory Report at c_bands before calling an iterative solver
           420 MiB given to the printing process from OS
             0 MiB allocation reported by mallinfo(arena+hblkhd)
         85334 MiB available memory on the node where the printing process lives
------------------
     ethr =  1.32E-07,  avg # of iterations = 10.2

     total cpu time spent up to now is       51.0 secs

     total energy              =   -3327.99777362 Ry
     estimated scf accuracy    <       0.00031474 Ry

     iteration # 19     ecut=    30.00 Ry     beta= 0.70
     Davidson diagonalization with overlap

---- Real-time Memory Report at c_bands before calling an iterative solver
           421 MiB given to the printing process from OS
             0 MiB allocation reported by mallinfo(arena+hblkhd)
         86910 MiB available memory on the node where the printing process lives
------------------
     ethr =  1.32E-07,  avg # of iterations =  9.6

     total cpu time spent up to now is       53.1 secs

     total energy              =   -3327.99781340 Ry
     estimated scf accuracy    <       0.00019094 Ry

     iteration # 20     ecut=    30.00 Ry     beta= 0.70
     Davidson diagonalization with overlap

---- Real-time Memory Report at c_bands before calling an iterative solver
           421 MiB given to the printing process from OS
             0 MiB allocation reported by mallinfo(arena+hblkhd)
         87979 MiB available memory on the node where the printing process lives
------------------
     ethr =  1.14E-07,  avg # of iterations =  3.6

     total cpu time spent up to now is       55.3 secs

     total energy              =   -3327.99783687 Ry
     estimated scf accuracy    <       0.00015214 Ry

     iteration # 21     ecut=    30.00 Ry     beta= 0.70
     Davidson diagonalization with overlap

---- Real-time Memory Report at c_bands before calling an iterative solver
           421 MiB given to the printing process from OS
             0 MiB allocation reported by mallinfo(arena+hblkhd)
         87964 MiB available memory on the node where the printing process lives
------------------
     ethr =  9.06E-08,  avg # of iterations =  4.4

     total cpu time spent up to now is       57.3 secs

     total energy              =   -3327.99783038 Ry
     estimated scf accuracy    <       0.00004229 Ry

     iteration # 22     ecut=    30.00 Ry     beta= 0.70
     Davidson diagonalization with overlap

---- Real-time Memory Report at c_bands before calling an iterative solver
           421 MiB given to the printing process from OS
             0 MiB allocation reported by mallinfo(arena+hblkhd)
         86011 MiB available memory on the node where the printing process lives
------------------
     ethr =  2.52E-08,  avg # of iterations = 14.1

     total cpu time spent up to now is       59.8 secs

     total energy              =   -3327.99786099 Ry
     estimated scf accuracy    <       0.00008012 Ry

     iteration # 23     ecut=    30.00 Ry     beta= 0.70
     Davidson diagonalization with overlap

---- Real-time Memory Report at c_bands before calling an iterative solver
           422 MiB given to the printing process from OS
             0 MiB allocation reported by mallinfo(arena+hblkhd)
         85178 MiB available memory on the node where the printing process lives
------------------
     ethr =  2.52E-08,  avg # of iterations =  3.5

     total cpu time spent up to now is       61.6 secs

     total energy              =   -3327.99785858 Ry
     estimated scf accuracy    <       0.00004287 Ry

     iteration # 24     ecut=    30.00 Ry     beta= 0.70
     Davidson diagonalization with overlap

---- Real-time Memory Report at c_bands before calling an iterative solver
           423 MiB given to the printing process from OS
             0 MiB allocation reported by mallinfo(arena+hblkhd)
         84499 MiB available memory on the node where the printing process lives
------------------
     ethr =  2.52E-08,  avg # of iterations =  9.8

     total cpu time spent up to now is       63.6 secs

     total energy              =   -3327.99786393 Ry
     estimated scf accuracy    <       0.00000539 Ry

     iteration # 25     ecut=    30.00 Ry     beta= 0.70
     Davidson diagonalization with overlap

---- Real-time Memory Report at c_bands before calling an iterative solver
           423 MiB given to the printing process from OS
             0 MiB allocation reported by mallinfo(arena+hblkhd)
         83746 MiB available memory on the node where the printing process lives
------------------
     ethr =  3.21E-09,  avg # of iterations = 13.0

     total cpu time spent up to now is       65.9 secs

     total energy              =   -3327.99786574 Ry
     estimated scf accuracy    <       0.00000165 Ry

     iteration # 26     ecut=    30.00 Ry     beta= 0.70
     Davidson diagonalization with overlap

---- Real-time Memory Report at c_bands before calling an iterative solver
           423 MiB given to the printing process from OS
             0 MiB allocation reported by mallinfo(arena+hblkhd)
         82859 MiB available memory on the node where the printing process lives
------------------
     ethr =  9.85E-10,  avg # of iterations =  9.1

     total cpu time spent up to now is       68.0 secs

     total energy              =   -3327.99786546 Ry
     estimated scf accuracy    <       0.00000231 Ry

     iteration # 27     ecut=    30.00 Ry     beta= 0.70
     Davidson diagonalization with overlap

---- Real-time Memory Report at c_bands before calling an iterative solver
           423 MiB given to the printing process from OS
             0 MiB allocation reported by mallinfo(arena+hblkhd)
         82062 MiB available memory on the node where the printing process lives
------------------
     ethr =  9.85E-10,  avg # of iterations =  5.1

     total cpu time spent up to now is       69.9 secs

     total energy              =   -3327.99786683 Ry
     estimated scf accuracy    <       0.00000320 Ry

     iteration # 28     ecut=    30.00 Ry     beta= 0.70
     Davidson diagonalization with overlap

---- Real-time Memory Report at c_bands before calling an iterative solver
           423 MiB given to the printing process from OS
             0 MiB allocation reported by mallinfo(arena+hblkhd)
         81748 MiB available memory on the node where the printing process lives
------------------
     ethr =  9.85E-10,  avg # of iterations = 13.0

     total cpu time spent up to now is       73.2 secs

     End of self-consistent calculation

          k = 0.0000 0.0000 0.0000 (  6779 PWs)   bands (ev):

   -82.0647 -82.0647 -82.0546 -82.0546 -45.1261 -45.1244 -45.1242 -45.1218
   -45.1109 -45.1107 -45.0976 -45.0925 -45.0601 -45.0593 -45.0580 -45.0572
   -24.4640 -24.4639 -24.4636 -24.4634  -6.6682  -6.6572  -6.5938  -6.5820
    -6.4070  -6.4062  -6.4039  -6.4031  -6.3873  -6.3866  -6.3843  -6.3836
    -1.2489  -1.2278   0.2228   0.3441   0.6188   0.7203   3.8578   3.8581
     5.2533   5.2981   5.3729   5.4468   5.5139   5.5161   5.8596   5.8607
     5.8752   5.9123   7.0142   7.0455   7.0781   7.0914   7.1049   7.1113
     7.1327   7.4522   7.6792   7.6804   7.8608   7.9731   7.9847   8.3333
     8.3490   8.4266   8.4719   8.4984   9.4449   9.8236   9.9106   9.9459
     9.9626   9.9934  10.2293  10.3460  10.9350  10.9583  10.9713  10.9799
    11.3067  11.4321  11.5096  11.5298  11.5507  11.5721  11.5783  11.5928
    11.6068  11.6217

     occupation numbers 
     1.0000   1.0000   1.0000   1.0000   1.0000   1.0000   1.0000   1.0000
     1.0000   1.0000   1.0000   1.0000   1.0000   1.0000   1.0000   1.0000
     1.0000   1.0000   1.0000   1.0000   1.0000   1.0000   1.0000   1.0000
     1.0000   1.0000   1.0000   1.0000   1.0000   1.0000   1.0000   1.0000
     1.0000   1.0000   1.0000   1.0000   1.0000   1.0000   1.0000   1.0000
     1.0000   1.0000   1.0000   1.0000   1.0000   1.0000   1.0000   1.0000
     1.0000   1.0000   1.0000   1.0000   1.0000   1.0000   1.0000   1.0000
     1.0000   1.0000   1.0000   1.0000   1.0000   1.0000   1.0000   1.0000
     1.0000   1.0000   1.0000   1.0000   1.0000   1.0000   1.0000   1.0000
     1.0000   1.0000   1.0000   1.0000   1.0000   1.0000   1.0000   1.0000
     1.0000   1.0000   1.0000   1.0000   0.0000   0.0000   0.0000   0.0000
     0.0000   0.0000

          k = 0.0000 0.0000 0.0635 (  6770 PWs)   bands (ev):

   -82.0647 -82.0647 -82.0546 -82.0546 -45.1244 -45.1244 -45.1228 -45.1223
   -45.1096 -45.1086 -45.0966 -45.0955 -45.0599 -45.0597 -45.0579 -45.0578
   -24.4640 -24.4639 -24.4635 -24.4635  -6.6657  -6.6603  -6.5905  -6.5847
    -6.4069  -6.4065  -6.4037  -6.4033  -6.3872  -6.3868  -6.3841  -6.3837
    -1.2437  -1.2332   0.2482   0.3072   0.6509   0.7001   3.8579   3.8580
     5.2696   5.2852   5.3992   5.4372   5.5130   5.5134   5.8580   5.8607
     5.8768   5.8876   7.0286   7.0378   7.0837   7.0886   7.1144   7.1169
     7.1973   7.3385   7.6752   7.6762   7.9760   7.9819   8.0243   8.2887
     8.3562   8.3571   8.4797   8.4921   9.5790   9.7917   9.8842   9.8960
     9.9703   9.9857  10.2568  10.3146  10.9457  10.9599  10.9683  10.9688
    11.3401  11.4015  11.5149  11.5252  11.5525  11.5653  11.5778  11.5867
    11.6303  11.6379

     occupation numbers 
     1.0000   1.0000   1.0000   1.0000   1.0000   1.0000   1.0000   1.0000
     1.0000   1.0000   1.0000   1.0000   1.0000   1.0000   1.0000   1.0000
     1.0000   1.0000   1.0000   1.0000   1.0000   1.0000   1.0000   1.0000
     1.0000   1.0000   1.0000   1.0000   1.0000   1.0000   1.0000   1.0000
     1.0000   1.0000   1.0000   1.0000   1.0000   1.0000   1.0000   1.0000
     1.0000   1.0000   1.0000   1.0000   1.0000   1.0000   1.0000   1.0000
     1.0000   1.0000   1.0000   1.0000   1.0000   1.0000   1.0000   1.0000
     1.0000   1.0000   1.0000   1.0000   1.0000   1.0000   1.0000   1.0000
     1.0000   1.0000   1.0000   1.0000   1.0000   1.0000   1.0000   1.0000
     1.0000   1.0000   1.0000   1.0000   1.0000   1.0000   1.0000   1.0000
     1.0000   1.0000   1.0000   1.0000   0.0000   0.0000   0.0000   0.0000
     0.0000   0.0000

          k = 0.0000 0.3294 0.0000 (  6780 PWs)   bands (ev):

   -82.0622 -82.0621 -82.0571 -82.0571 -45.1085 -45.1084 -45.1075 -45.1071
   -45.1068 -45.1065 -45.1002 -45.0973 -45.0758 -45.0750 -45.0747 -45.0729
   -24.4534 -24.4533 -24.4531 -24.4531  -6.6879  -6.6859  -6.6708  -6.6688
    -6.5855  -6.5803  -6.5479  -6.5443  -6.3589  -6.3585  -6.3573  -6.3570
    -0.6518  -0.6484   0.7360   0.7590   0.9628   0.9802   2.3992   2.4006
     5.8895   5.9388   5.9414   5.9488   5.9671   6.0026   6.0303   6.0353
     6.2040   6.2110   6.5511   6.6447   6.7085   6.7136   6.8902   6.9163
     7.1947   7.2230   7.2839   7.2958   7.4537   7.5377   7.6229   7.9224
     8.1642   8.5847   8.5881   8.7784   9.1811   9.4401   9.4504   9.7527
     9.9820  10.0114  10.0429  10.3371  10.4003  10.4342  10.4479  10.6182
    11.2930  11.3834  11.5102  11.5273  11.5665  11.5748  11.5806  11.5989
    11.6470  11.6763

     occupation numbers 
     1.0000   1.0000   1.0000   1.0000   1.0000   1.0000   1.0000   1.0000
     1.0000   1.0000   1.0000   1.0000   1.0000   1.0000   1.0000   1.0000
     1.0000   1.0000   1.0000   1.0000   1.0000   1.0000   1.0000   1.0000
     1.0000   1.0000   1.0000   1.0000   1.0000   1.0000   1.0000   1.0000
     1.0000   1.0000   1.0000   1.0000   1.0000   1.0000   1.0000   1.0000
     1.0000   1.0000   1.0000   1.0000   1.0000   1.0000   1.0000   1.0000
     1.0000   1.0000   1.0000   1.0000   1.0000   1.0000   1.0000   1.0000
     1.0000   1.0000   1.0000   1.0000   1.0000   1.0000   1.0000   1.0000
     1.0000   1.0000   1.0000   1.0000   1.0000   1.0000   1.0000   1.0000
     1.0000   1.0000   1.0000   1.0000   1.0000   1.0000   1.0000   1.0000
     1.0000   1.0000   1.0000   1.0000   0.0000   0.0000   0.0000   0.0000
     0.0000   0.0000

          k = 0.0000 0.3294 0.0635 (  6764 PWs)   bands (ev):

   -82.0621 -82.0621 -82.0571 -82.0571 -45.1086 -45.1080 -45.1073 -45.1067
   -45.1062 -45.1052 -45.1004 -45.0992 -45.0742 -45.0739 -45.0731 -45.0717
   -24.4534 -24.4533 -24.4531 -24.4531  -6.6875  -6.6865  -6.6703  -6.6693
    -6.5843  -6.5817  -6.5469  -6.5451  -6.3588  -6.3586  -6.3572  -6.3571
    -0.6510  -0.6493   0.7414   0.7529   0.9676   0.9762   2.3996   2.4003
     5.8975   5.9252   5.9475   5.9511   5.9847   5.9938   6.0343   6.0381
     6.2051   6.2171   6.5696   6.6104   6.7197   6.7228   6.9133   6.9268
     7.2021   7.2246   7.2875   7.2943   7.4701   7.5065   7.6838   7.8099
     8.3225   8.5856   8.5873   8.5934   9.3144   9.4108   9.5209   9.7255
     9.9655  10.0196  10.0358  10.2133  10.3553  10.3850  10.5768  10.6567
    11.3328  11.3755  11.5140  11.5225  11.5686  11.5730  11.5853  11.5945
    11.6527  11.6675

     occupation numbers 
     1.0000   1.0000   1.0000   1.0000   1.0000   1.0000   1.0000   1.0000
     1.0000   1.0000   1.0000   1.0000   1.0000   1.0000   1.0000   1.0000
     1.0000   1.0000   1.0000   1.0000   1.0000   1.0000   1.0000   1.0000
     1.0000   1.0000   1.0000   1.0000   1.0000   1.0000   1.0000   1.0000
     1.0000   1.0000   1.0000   1.0000   1.0000   1.0000   1.0000   1.0000
     1.0000   1.0000   1.0000   1.0000   1.0000   1.0000   1.0000   1.0000
     1.0000   1.0000   1.0000   1.0000   1.0000   1.0000   1.0000   1.0000
     1.0000   1.0000   1.0000   1.0000   1.0000   1.0000   1.0000   1.0000
     1.0000   1.0000   1.0000   1.0000   1.0000   1.0000   1.0000   1.0000
     1.0000   1.0000   1.0000   1.0000   1.0000   1.0000   1.0000   1.0000
     1.0000   1.0000   1.0000   1.0000   0.0000   0.0000   0.0000   0.0000
     0.0000   0.0000

          k = 0.3333 0.0000 0.0000 (  6740 PWs)   bands (ev):

   -82.0621 -82.0621 -82.0571 -82.0571 -45.1089 -45.1077 -45.1069 -45.1066
   -45.1057 -45.1055 -45.1003 -45.0979 -45.0741 -45.0739 -45.0703 -45.0699
   -24.4519 -24.4518 -24.4517 -24.4516  -6.6711  -6.6681  -6.6660  -6.6648
    -6.5931  -6.5879  -6.5511  -6.5478  -6.3753  -6.3750  -6.3738  -6.3734
    -0.3847  -0.3795   0.7451   0.7798   0.9722   0.9997   1.8906   1.8921
     5.8843   5.9363   5.9374   5.9399   5.9777   6.0262   6.0588   6.0627
     6.1946   6.1973   6.5367   6.6302   6.7251   6.7255   6.8830   6.9269
     7.2564   7.2647   7.2691   7.2827   7.4901   7.5204   7.6674   7.9579
     8.1620   8.8172   9.0515   9.1353   9.1783   9.2103   9.2670   9.5346
     9.9282   9.9551  10.0717  10.0818  10.2908  10.3529  10.3990  10.5420
    11.4428  11.4571  11.4945  11.4956  11.5308  11.5591  11.5781  11.5924
    11.6602  11.6609

     occupation numbers 
     1.0000   1.0000   1.0000   1.0000   1.0000   1.0000   1.0000   1.0000
     1.0000   1.0000   1.0000   1.0000   1.0000   1.0000   1.0000   1.0000
     1.0000   1.0000   1.0000   1.0000   1.0000   1.0000   1.0000   1.0000
     1.0000   1.0000   1.0000   1.0000   1.0000   1.0000   1.0000   1.0000
     1.0000   1.0000   1.0000   1.0000   1.0000   1.0000   1.0000   1.0000
     1.0000   1.0000   1.0000   1.0000   1.0000   1.0000   1.0000   1.0000
     1.0000   1.0000   1.0000   1.0000   1.0000   1.0000   1.0000   1.0000
     1.0000   1.0000   1.0000   1.0000   1.0000   1.0000   1.0000   1.0000
     1.0000   1.0000   1.0000   1.0000   1.0000   1.0000   1.0000   1.0000
     1.0000   1.0000   1.0000   1.0000   1.0000   1.0000   1.0000   1.0000
     1.0000   1.0000   1.0000   1.0000   0.0000   0.0000   0.0000   0.0000
     0.0000   0.0000

          k = 0.3333 0.0000 0.0635 (  6737 PWs)   bands (ev):

   -82.0621 -82.0621 -82.0571 -82.0571 -45.1078 -45.1070 -45.1067 -45.1066
   -45.1061 -45.1058 -45.0999 -45.0980 -45.0733 -45.0731 -45.0713 -45.0706
   -24.4519 -24.4519 -24.4517 -24.4516  -6.6705  -6.6691  -6.6654  -6.6650
    -6.5919  -6.5893  -6.5502  -6.5486  -6.3753  -6.3751  -6.3736  -6.3735
    -0.3834  -0.3808   0.7531   0.7703   0.9799   0.9935   1.8910   1.8917
     5.8968   5.9227   5.9410   5.9418   5.9990   6.0226   6.0629   6.0647
     6.2023   6.2023   6.5535   6.6044   6.7272   6.7277   6.8894   6.8975
     7.2564   7.2668   7.2689   7.2736   7.4940   7.5087   7.7219   7.8503
     8.3196   8.5964   9.1023   9.1245   9.1785   9.1826   9.5078   9.6407
     9.8722   9.8897   9.9385   9.9486  10.2899  10.3126  10.5437  10.5970
    11.4579  11.4608  11.4969  11.4975  11.5334  11.5509  11.5819  11.5891
    11.6555  11.6575

     occupation numbers 
     1.0000   1.0000   1.0000   1.0000   1.0000   1.0000   1.0000   1.0000
     1.0000   1.0000   1.0000   1.0000   1.0000   1.0000   1.0000   1.0000
     1.0000   1.0000   1.0000   1.0000   1.0000   1.0000   1.0000   1.0000
     1.0000   1.0000   1.0000   1.0000   1.0000   1.0000   1.0000   1.0000
     1.0000   1.0000   1.0000   1.0000   1.0000   1.0000   1.0000   1.0000
     1.0000   1.0000   1.0000   1.0000   1.0000   1.0000   1.0000   1.0000
     1.0000   1.0000   1.0000   1.0000   1.0000   1.0000   1.0000   1.0000
     1.0000   1.0000   1.0000   1.0000   1.0000   1.0000   1.0000   1.0000
     1.0000   1.0000   1.0000   1.0000   1.0000   1.0000   1.0000   1.0000
     1.0000   1.0000   1.0000   1.0000   1.0000   1.0000   1.0000   1.0000
     1.0000   1.0000   1.0000   1.0000   0.0000   0.0000   0.0000   0.0000
     0.0000   0.0000

          k = 0.3333 0.3294 0.0000 (  6748 PWs)   bands (ev):

   -82.0609 -82.0608 -82.0584 -82.0583 -45.1292 -45.1279 -45.1092 -45.1077
   -45.1050 -45.1047 -45.1024 -45.1001 -45.0676 -45.0672 -45.0514 -45.0507
   -24.4417 -24.4417 -24.4416 -24.4416  -6.6273  -6.6247  -6.6156  -6.6119
    -6.5973  -6.5959  -6.5853  -6.5835  -6.5319  -6.5297  -6.5142  -6.5127
     0.1013   0.1016   0.8398   0.8462   0.9417   0.9492   1.7936   1.7940
     5.5400   5.5597   5.9656   5.9710   6.2009   6.2086   6.2769   6.3888
     6.4083   6.4276   6.4570   6.5082   6.5190   6.6546   6.7300   6.7365
     6.7457   6.7594   7.1569   7.1665   7.2875   7.2975   7.5764   7.7660
     8.1750   8.3394   8.3415   8.4729   8.7827   8.8638   9.2673   9.2816
     9.4780   9.4989   9.7284   9.8680   9.8872  10.1356  10.2163  10.3460
    11.5455  11.5588  11.5632  11.5802  11.5873  11.5903  11.5938  11.5944
    11.6239  11.6252

     occupation numbers 
     1.0000   1.0000   1.0000   1.0000   1.0000   1.0000   1.0000   1.0000
     1.0000   1.0000   1.0000   1.0000   1.0000   1.0000   1.0000   1.0000
     1.0000   1.0000   1.0000   1.0000   1.0000   1.0000   1.0000   1.0000
     1.0000   1.0000   1.0000   1.0000   1.0000   1.0000   1.0000   1.0000
     1.0000   1.0000   1.0000   1.0000   1.0000   1.0000   1.0000   1.0000
     1.0000   1.0000   1.0000   1.0000   1.0000   1.0000   1.0000   1.0000
     1.0000   1.0000   1.0000   1.0000   1.0000   1.0000   1.0000   1.0000
     1.0000   1.0000   1.0000   1.0000   1.0000   1.0000   1.0000   1.0000
     1.0000   1.0000   1.0000   1.0000   1.0000   1.0000   1.0000   1.0000
     1.0000   1.0000   1.0000   1.0000   1.0000   1.0000   1.0000   1.0000
     1.0000   1.0000   1.0000   1.0000   0.0000   0.0000   0.0000   0.0000
     0.0000   0.0000

          k = 0.3333 0.3294 0.0635 (  6743 PWs)   bands (ev):

   -82.0608 -82.0608 -82.0584 -82.0584 -45.1294 -45.1285 -45.1086 -45.1081
   -45.1045 -45.1037 -45.1010 -45.1005 -45.0679 -45.0674 -45.0512 -45.0507
   -24.4417 -24.4417 -24.4416 -24.4416  -6.6268  -6.6255  -6.6145  -6.6127
    -6.5970  -6.5963  -6.5848  -6.5839  -6.5314  -6.5303  -6.5138  -6.5130
     0.1014   0.1015   0.8412   0.8446   0.9439   0.9476   1.7937   1.7939
     5.5467   5.5563   5.9681   5.9716   6.1978   6.2020   6.3016   6.3551
     6.4057   6.4092   6.5125   6.5154   6.5329   6.6147   6.7364   6.7410
     6.7509   6.7588   7.1600   7.1624   7.2895   7.2948   7.6228   7.7162
     8.1900   8.2419   8.4590   8.4979   8.7675   8.8029   9.2715   9.2782
     9.4819   9.4906   9.8223   9.8752   9.8814  10.0078  10.2886  10.3352
    11.5469  11.5519  11.5715  11.5790  11.5866  11.5887  11.5943  11.5949
    11.6248  11.6255

     occupation numbers 
     1.0000   1.0000   1.0000   1.0000   1.0000   1.0000   1.0000   1.0000
     1.0000   1.0000   1.0000   1.0000   1.0000   1.0000   1.0000   1.0000
     1.0000   1.0000   1.0000   1.0000   1.0000   1.0000   1.0000   1.0000
     1.0000   1.0000   1.0000   1.0000   1.0000   1.0000   1.0000   1.0000
     1.0000   1.0000   1.0000   1.0000   1.0000   1.0000   1.0000   1.0000
     1.0000   1.0000   1.0000   1.0000   1.0000   1.0000   1.0000   1.0000
     1.0000   1.0000   1.0000   1.0000   1.0000   1.0000   1.0000   1.0000
     1.0000   1.0000   1.0000   1.0000   1.0000   1.0000   1.0000   1.0000
     1.0000   1.0000   1.0000   1.0000   1.0000   1.0000   1.0000   1.0000
     1.0000   1.0000   1.0000   1.0000   1.0000   1.0000   1.0000   1.0000
     1.0000   1.0000   1.0000   1.0000   0.0000   0.0000   0.0000   0.0000
     0.0000   0.0000

     highest occupied, lowest unoccupied level (ev):    11.5802   11.5308

!    total energy              =   -3327.99786802 Ry
     estimated scf accuracy    <       0.00000083 Ry

     The total energy is the sum of the following terms:
     one-electron contribution =   -1364.08528216 Ry
     hartree contribution      =     763.80317369 Ry
     xc contribution           =    -229.62109729 Ry
     ewald contribution        =    -819.97638453 Ry
     one-center paw contrib.   =   -1678.11827773 Ry
      -> PAW hartree energy AE =     125.48210546 Ry
      -> PAW hartree energy PS =    -125.49890712 Ry
      -> PAW xc energy AE      =    -860.20237643 Ry
      -> PAW xc energy PS      =      21.16003923 Ry
      -> total E_H with PAW    =     763.78637203 Ry
      -> total E_XC with PAW   =   -1068.66343449 Ry

     convergence has been achieved in  28 iterations

     Writing all to output data dir calculations_bands/myprefix.save/
 
     init_run     :     15.09s CPU      4.42s WALL (       1 calls)
     electrons    :    254.23s CPU     68.56s WALL (       1 calls)

     Called by init_run:
     wfcinit      :      4.42s CPU      1.16s WALL (       1 calls)
     wfcinit:atom :      0.04s CPU      0.01s WALL (       4 calls)
     wfcinit:wfcr :      4.14s CPU      1.08s WALL (       4 calls)
     potinit      :      4.79s CPU      1.27s WALL (       1 calls)
     hinit0       :      4.24s CPU      1.51s WALL (       1 calls)

     Called by electrons:
     c_bands      :    131.71s CPU     34.59s WALL (      29 calls)
     sum_band     :     27.52s CPU      8.23s WALL (      29 calls)
     v_of_rho     :      3.21s CPU      0.88s WALL (      29 calls)
     v_h          :      0.26s CPU      0.07s WALL (      29 calls)
     v_xc         :      2.95s CPU      0.81s WALL (      29 calls)
     newd         :     24.41s CPU      7.16s WALL (      29 calls)
     PAW_pot      :     68.73s CPU     17.98s WALL (      29 calls)
     mix_rho      :      1.01s CPU      0.28s WALL (      29 calls)

     Called by c_bands:
     init_us_2    :      0.77s CPU      0.20s WALL (     236 calls)
     init_us_2:cp :      0.76s CPU      0.20s WALL (     236 calls)
     cegterg      :    112.31s CPU     29.18s WALL (     116 calls)

     Called by sum_band:
     sum_band:wei :      0.05s CPU      0.01s WALL (      29 calls)
     sum_band:loo :     12.43s CPU      3.23s WALL (      29 calls)
     sum_band:buf :      0.25s CPU      0.07s WALL (     116 calls)
     sum_band:ini :      0.34s CPU      0.09s WALL (     116 calls)
     sum_band:cal :      1.51s CPU      0.39s WALL (     116 calls)
     sum_band:bec :      0.10s CPU      0.03s WALL (     116 calls)
     addusdens    :     12.72s CPU      4.38s WALL (      29 calls)
     addusd:skk   :      0.04s CPU      0.01s WALL (      58 calls)
     addusd:dgemm :      1.97s CPU      1.38s WALL (      58 calls)
     addusd:qvan2 :      7.70s CPU      1.99s WALL (      58 calls)

     Called by *egterg:
     cdiaghg      :     28.07s CPU      7.34s WALL (    1064 calls)
     cegterg:over :      6.43s CPU      1.66s WALL (     952 calls)
     cegterg:upda :      3.34s CPU      0.88s WALL (     952 calls)
     cegterg:last :      4.50s CPU      1.16s WALL (     257 calls)
     cdiaghg:chol :      1.86s CPU      0.49s WALL (    1064 calls)
     cdiaghg:inve :      0.38s CPU      0.10s WALL (    1064 calls)
     cdiaghg:para :      4.53s CPU      1.19s WALL (    2128 calls)
     h_psi        :     68.28s CPU     17.71s WALL (    1072 calls)
     s_psi        :      3.12s CPU      0.79s WALL (    1072 calls)
     g_psi        :      0.15s CPU      0.04s WALL (     952 calls)

     Called by h_psi:
     h_psi:calbec :      7.53s CPU      1.96s WALL (    1072 calls)
     vloc_psi     :     56.88s CPU     14.76s WALL (    1072 calls)
     add_vuspsi   :      3.57s CPU      0.91s WALL (    1072 calls)

     General routines
     calbec       :      9.00s CPU      2.34s WALL (    1188 calls)
     fft          :      3.66s CPU      0.99s WALL (     376 calls)
     ffts         :      1.37s CPU      0.38s WALL (      58 calls)
     fftw         :     59.43s CPU     15.45s WALL (   65066 calls)
     interpolate  :      1.58s CPU      0.44s WALL (      29 calls)
 
     Parallel routines

     PAW routines
     PAW_pot      :     68.73s CPU     17.98s WALL (      29 calls)
     PAW_symme    :      0.18s CPU      0.05s WALL (      58 calls)
 
     PWSCF        :   4m31.17s CPU   1m14.87s WALL

 
   This run was terminated on:   9:37:22  23Jun2023            

=------------------------------------------------------------------------------=
   JOB DONE.
=------------------------------------------------------------------------------=
