
     Program PWSCF v.7.0 starts on  5Jun2023 at  4:25:52 

     This program is part of the open-source Quantum ESPRESSO suite
     for quantum simulation of materials; please cite
         "P. Giannozzi et al., J. Phys.:Condens. Matter 21 395502 (2009);
         "P. Giannozzi et al., J. Phys.:Condens. Matter 29 465901 (2017);
         "P. Giannozzi et al., J. Chem. Phys. 152 154105 (2020);
          URL http://www.quantum-espresso.org", 
     in publications or presentations arising from this work. More details at
     http://www.quantum-espresso.org/quote

     Parallel version (MPI & OpenMP), running on      32 processor cores
     Number of MPI processes:                 8
     Threads/MPI process:                     4

     MPI processes distributed on     1 nodes
     K-points division:     npool     =       2
     R & G space division:  proc/nbgrp/npool/nimage =       4
     126163 MiB available memory on the printing compute node when the environment starts
 
     Reading input from espresso_10381.pwi
Warning: card &CELL ignored
Warning: card / ignored

     Current dimensions of program PWSCF are:
     Max number of different atomic species (ntypx) = 10
     Max number of k-points (npk) =  40000
     Max angular momentum in pseudopotentials (lmaxx) =  4
     Message from routine setup:
     using ibrav=0 with symmetry is DISCOURAGED, use correct ibrav instead

     Subspace diagonalization in iterative solution of the eigenvalue problem:
     one sub-group per band group will be used
     scalapack distributed-memory algorithm (size of sub-group:  2*  2 procs)

 
     Parallelization info
     --------------------
     sticks:   dense  smooth     PW     G-vecs:    dense   smooth      PW
     Min         433     214     63                12601     4452     722
     Max         434     215     64                12603     4454     725
     Sum        1735     859    253                50409    17813    2893
 
     Using Slab Decomposition
 


     bravais-lattice index     =            0
     lattice parameter (alat)  =      10.2253  a.u.
     unit-cell volume          =     802.4149 (a.u.)^3
     number of atoms/cell      =            6
     number of atomic types    =            2
     number of electrons       =        86.00
     number of Kohn-Sham states=           64
     kinetic-energy cutoff     =      30.0000  Ry
     charge density cutoff     =     240.0000  Ry
     scf convergence threshold =      1.0E-06
     mixing beta               =       0.7000
     number of iterations used =            8  plain     mixing
     Exchange-correlation= SLA  PW   PBE  PBE
                           (   1   4   3   4   0   0   0)

     celldm(1)=  10.225327  celldm(2)=   0.000000  celldm(3)=   0.000000
     celldm(4)=   0.000000  celldm(5)=   0.000000  celldm(6)=   0.000000

     crystal axes: (cart. coord. in units of alat)
               a(1) = (   1.000000   0.000000   0.000000 )  
               a(2) = (  -0.497869   0.867252   0.000000 )  
               a(3) = (  -0.251065  -0.433626   0.865410 )  

     reciprocal axes: (cart. coord. in units 2 pi/alat)
               b(1) = (  1.000000  0.574077  0.577761 )  
               b(2) = (  0.000000  1.153067  0.577761 )  
               b(3) = (  0.000000  0.000000  1.155522 )  


     PseudoPot. # 1 for Mn read from file:
     /home/pragov/projects/rrg-bengioy-ad/pragov/crystal_structure_design/SSSP/mn_pbe_v1.5.uspp.F.UPF
     MD5 check sum: 82ef2b46521d7a7d9e736dc3972e4928
     Pseudo is Ultrasoft + core correction, Zval = 15.0
     Generated by new atomic code, or converted to UPF format
     Using radial grid of  859 points,  6 beta functions with: 
                l(1) =   0
                l(2) =   0
                l(3) =   1
                l(4) =   1
                l(5) =   2
                l(6) =   2
     Q(r) pseudized with  8 coefficients,  rinner =    0.950   0.950   0.950
                                                       0.950   0.950

     PseudoPot. # 2 for Sn read from file:
     /home/pragov/projects/rrg-bengioy-ad/pragov/crystal_structure_design/SSSP/Sn_pbe_v1.uspp.F.UPF
     MD5 check sum: 4cf58ce39ec5d5d420df3dd08604eb00
     Pseudo is Ultrasoft + core correction, Zval = 14.0
     Generated by new atomic code, or converted to UPF format
     Using radial grid of  891 points,  6 beta functions with: 
                l(1) =   0
                l(2) =   0
                l(3) =   1
                l(4) =   1
                l(5) =   2
                l(6) =   2
     Q(r) pseudized with  6 coefficients,  rinner =    1.200   1.200   1.200
                                                       1.200   1.200

     atomic species   valence    mass     pseudopotential
        Mn            15.00    54.93804     Mn( 1.00)
        Sn            14.00   118.71000     Sn( 1.00)

      4 Sym. Ops., with inversion, found ( 2 have fractional translation)


                                    s                        frac. trans.

      isym =  1     identity                                     

 cryst.   s( 1) = (     1          0          0      )
                  (     0          1          0      )
                  (     0          0          1      )

 cart.    s( 1) = (  1.0000000  0.0000000 -0.0000000 )
                  (  0.0000000  1.0000000 -0.0000000 )
                  (  0.0000000  0.0000000  1.0000000 )


      isym =  2     180 deg rotation - cart. axis [0,0,1]        

 cryst.   s( 2) = (    -1          0          0      )    f =(  0.5000000 )
                  (     0         -1          0      )       (  0.5000000 )
                  (     1          1          1      )       (  0.0000000 )

 cart.    s( 2) = ( -1.0000000 -0.0000000  0.0000000 )    f =(  0.2510654 )
                  (  0.0000000 -1.0000000  0.0000000 )       (  0.4336261 )
                  (  0.0000000  0.0000000  1.0000000 )       (  0.0000000 )


      isym =  3     inversion                                    

 cryst.   s( 3) = (    -1          0          0      )
                  (     0         -1          0      )
                  (     0          0         -1      )

 cart.    s( 3) = ( -1.0000000 -0.0000000  0.0000000 )
                  (  0.0000000 -1.0000000  0.0000000 )
                  (  0.0000000  0.0000000 -1.0000000 )


      isym =  4     inv. 180 deg rotation - cart. axis [0,0,1]   

 cryst.   s( 4) = (     1          0          0      )    f =(  0.5000000 )
                  (     0          1          0      )       (  0.5000000 )
                  (    -1         -1         -1      )       (  0.0000000 )

 cart.    s( 4) = (  1.0000000  0.0000000 -0.0000000 )    f =(  0.2510654 )
                  (  0.0000000  1.0000000 -0.0000000 )       (  0.4336261 )
                  (  0.0000000  0.0000000 -1.0000000 )       (  0.0000000 )


   Cartesian axes

     site n.     atom                  positions (alat units)
         1           Mn  tau(   1) = (   0.3765982   0.6504391   0.0000000  )
         2           Mn  tau(   2) = (   0.1255327   0.2168130   0.0000000  )
         3           Sn  tau(   3) = (   0.3744673  -0.2168130   0.7161061  )
         4           Sn  tau(   4) = (  -0.1234018   0.6504391   0.1493040  )
         5           Sn  tau(   5) = (   0.3802746   0.3588152   0.4327050  )
         6           Sn  tau(   6) = (  -0.1292092   0.0748109   0.4327050  )

   Crystallographic axes

     site n.     atom                  positions (cryst. coord.)
         1           Mn  tau(   1) = (  0.7500000  0.7500000  0.0000000  )
         2           Mn  tau(   2) = (  0.2500000  0.2500000  0.0000000  )
         3           Sn  tau(   3) = (  0.6637380  0.1637380  0.8274760  )
         4           Sn  tau(   4) = (  0.3362620  0.8362620  0.1725240  )
         5           Sn  tau(   5) = (  0.8362620  0.6637380  0.5000000  )
         6           Sn  tau(   6) = (  0.1637380  0.3362620  0.5000000  )

     number of k points=    10
                       cart. coord. in units 2pi/alat
        k(    1) = (   0.0000000   0.0000000   0.0000000), wk =   0.0740741
        k(    2) = (   0.0000000   0.0000000   0.3851739), wk =   0.1481481
        k(    3) = (   0.0000000   0.3843557   0.1925869), wk =   0.2962963
        k(    4) = (   0.0000000   0.3843557   0.5777608), wk =   0.1481481
        k(    5) = (   0.3333333   0.1913588   0.1925869), wk =   0.2962963
        k(    6) = (   0.3333333   0.1913588   0.5777608), wk =   0.1481481
        k(    7) = (   0.3333333   0.5757146   0.3851739), wk =   0.2962963
        k(    8) = (   0.3333333   0.5757146  -0.0000000), wk =   0.1481481
        k(    9) = (   0.3333333  -0.1929969  -0.0000000), wk =   0.1481481
        k(   10) = (   0.3333333  -0.1929969   0.3851739), wk =   0.2962963

                       cryst. coord.
        k(    1) = (   0.0000000   0.0000000   0.0000000), wk =   0.0740741
        k(    2) = (   0.0000000   0.0000000   0.3333333), wk =   0.1481481
        k(    3) = (   0.0000000   0.3333333   0.0000000), wk =   0.2962963
        k(    4) = (   0.0000000   0.3333333   0.3333333), wk =   0.1481481
        k(    5) = (   0.3333333   0.0000000  -0.0000000), wk =   0.2962963
        k(    6) = (   0.3333333   0.0000000   0.3333333), wk =   0.1481481
        k(    7) = (   0.3333333   0.3333333  -0.0000000), wk =   0.2962963
        k(    8) = (   0.3333333   0.3333333  -0.3333333), wk =   0.1481481
        k(    9) = (   0.3333333  -0.3333333  -0.0000000), wk =   0.1481481
        k(   10) = (   0.3333333  -0.3333333   0.3333333), wk =   0.2962963

     Dense  grid:    50409 G-vectors     FFT dimensions: (  54,  54,  54)

     Smooth grid:    17813 G-vectors     FFT dimensions: (  36,  36,  36)

     Dynamical RAM for                 wfc:       0.54 MB

     Dynamical RAM for     wfc (w. buffer):       3.26 MB

     Dynamical RAM for           str. fact:       0.38 MB

     Dynamical RAM for           local pot:       0.00 MB

     Dynamical RAM for          nlocal pot:       0.92 MB

     Dynamical RAM for                qrad:       2.49 MB

     Dynamical RAM for          rho,v,vnew:       1.51 MB

     Dynamical RAM for               rhoin:       0.50 MB

     Dynamical RAM for            rho*nmix:       3.08 MB

     Dynamical RAM for           G-vectors:       0.76 MB

     Dynamical RAM for          h,s,v(r/c):       0.19 MB

     Dynamical RAM for          <psi|beta>:       0.11 MB

     Dynamical RAM for                 psi:       1.09 MB

     Dynamical RAM for                hpsi:       1.09 MB

     Dynamical RAM for                spsi:       1.09 MB

     Dynamical RAM for      wfcinit/wfcrot:       1.18 MB

     Dynamical RAM for           addusdens:      18.36 MB

     Estimated static dynamical RAM per process >      11.95 MB

     Estimated max dynamical RAM per process >      33.39 MB

     Estimated total dynamical RAM >     254.83 MB

     Check: negative core charge=   -0.000012

     Initial potential from superposition of free atoms

     starting charge      80.9996, renormalised to      86.0000
     Starting wfcs are   62 randomized atomic wfcs +    2 random wfcs

     total cpu time spent up to now is        1.9 secs

     Self-consistent Calculation

     iteration #  1     ecut=    30.00 Ry     beta= 0.70
     Davidson diagonalization with overlap

---- Real-time Memory Report at c_bands before calling an iterative solver
           158 MiB given to the printing process from OS
             0 MiB allocation reported by mallinfo(arena+hblkhd)
        125826 MiB available memory on the node where the printing process lives
------------------
     ethr =  1.00E-02,  avg # of iterations =  5.9

     total cpu time spent up to now is        5.3 secs

     total energy              =   -1058.66854611 Ry
     estimated scf accuracy    <      24.86563671 Ry

     iteration #  2     ecut=    30.00 Ry     beta= 0.70
     Davidson diagonalization with overlap

---- Real-time Memory Report at c_bands before calling an iterative solver
           184 MiB given to the printing process from OS
             0 MiB allocation reported by mallinfo(arena+hblkhd)
        125647 MiB available memory on the node where the printing process lives
------------------
     ethr =  1.00E-02,  avg # of iterations =  3.0

     total cpu time spent up to now is        8.0 secs

     total energy              =   -1068.31988875 Ry
     estimated scf accuracy    <     132.77928990 Ry

     iteration #  3     ecut=    30.00 Ry     beta= 0.70
     Davidson diagonalization with overlap

---- Real-time Memory Report at c_bands before calling an iterative solver
           188 MiB given to the printing process from OS
             0 MiB allocation reported by mallinfo(arena+hblkhd)
        125608 MiB available memory on the node where the printing process lives
------------------
     ethr =  1.00E-02,  avg # of iterations =  2.3

     total cpu time spent up to now is       10.2 secs

     total energy              =   -1071.78914728 Ry
     estimated scf accuracy    <      17.12061848 Ry

     iteration #  4     ecut=    30.00 Ry     beta= 0.70
     Davidson diagonalization with overlap

---- Real-time Memory Report at c_bands before calling an iterative solver
           188 MiB given to the printing process from OS
             0 MiB allocation reported by mallinfo(arena+hblkhd)
        125598 MiB available memory on the node where the printing process lives
------------------
     ethr =  1.00E-02,  avg # of iterations =  2.1

     total cpu time spent up to now is       12.1 secs

     total energy              =   -1073.67260148 Ry
     estimated scf accuracy    <      16.85654498 Ry

     iteration #  5     ecut=    30.00 Ry     beta= 0.70
     Davidson diagonalization with overlap

---- Real-time Memory Report at c_bands before calling an iterative solver
           188 MiB given to the printing process from OS
             0 MiB allocation reported by mallinfo(arena+hblkhd)
        125619 MiB available memory on the node where the printing process lives
------------------
     ethr =  1.00E-02,  avg # of iterations =  1.3

     total cpu time spent up to now is       13.9 secs

     total energy              =   -1075.33312621 Ry
     estimated scf accuracy    <       0.90269879 Ry

     iteration #  6     ecut=    30.00 Ry     beta= 0.70
     Davidson diagonalization with overlap

---- Real-time Memory Report at c_bands before calling an iterative solver
           188 MiB given to the printing process from OS
             0 MiB allocation reported by mallinfo(arena+hblkhd)
        125653 MiB available memory on the node where the printing process lives
------------------
     ethr =  1.05E-03,  avg # of iterations =  1.7

     total cpu time spent up to now is       15.7 secs

     total energy              =   -1075.21899702 Ry
     estimated scf accuracy    <       1.25538407 Ry

     iteration #  7     ecut=    30.00 Ry     beta= 0.70
     Davidson diagonalization with overlap

---- Real-time Memory Report at c_bands before calling an iterative solver
           188 MiB given to the printing process from OS
             0 MiB allocation reported by mallinfo(arena+hblkhd)
        125648 MiB available memory on the node where the printing process lives
------------------
     ethr =  1.05E-03,  avg # of iterations =  1.1

     total cpu time spent up to now is       17.4 secs

     total energy              =   -1075.22148107 Ry
     estimated scf accuracy    <       0.20039450 Ry

     iteration #  8     ecut=    30.00 Ry     beta= 0.70
     Davidson diagonalization with overlap

---- Real-time Memory Report at c_bands before calling an iterative solver
           188 MiB given to the printing process from OS
             0 MiB allocation reported by mallinfo(arena+hblkhd)
        125622 MiB available memory on the node where the printing process lives
------------------
     ethr =  2.33E-04,  avg # of iterations =  4.7

     total cpu time spent up to now is       19.6 secs

     total energy              =   -1075.24139037 Ry
     estimated scf accuracy    <       0.02179982 Ry

     iteration #  9     ecut=    30.00 Ry     beta= 0.70
     Davidson diagonalization with overlap

---- Real-time Memory Report at c_bands before calling an iterative solver
           188 MiB given to the printing process from OS
             0 MiB allocation reported by mallinfo(arena+hblkhd)
        125611 MiB available memory on the node where the printing process lives
------------------
     ethr =  2.53E-05,  avg # of iterations =  4.7

     total cpu time spent up to now is       22.1 secs

     total energy              =   -1075.24050251 Ry
     estimated scf accuracy    <       0.01933342 Ry

     iteration # 10     ecut=    30.00 Ry     beta= 0.70
     Davidson diagonalization with overlap

---- Real-time Memory Report at c_bands before calling an iterative solver
           188 MiB given to the printing process from OS
             0 MiB allocation reported by mallinfo(arena+hblkhd)
        125596 MiB available memory on the node where the printing process lives
------------------
     ethr =  2.25E-05,  avg # of iterations =  1.0

     total cpu time spent up to now is       23.7 secs

     total energy              =   -1075.24044107 Ry
     estimated scf accuracy    <       0.01061526 Ry

     iteration # 11     ecut=    30.00 Ry     beta= 0.70
     Davidson diagonalization with overlap

---- Real-time Memory Report at c_bands before calling an iterative solver
           188 MiB given to the printing process from OS
             0 MiB allocation reported by mallinfo(arena+hblkhd)
        125685 MiB available memory on the node where the printing process lives
------------------
     ethr =  1.23E-05,  avg # of iterations =  1.0

     total cpu time spent up to now is       25.7 secs

     total energy              =   -1075.23951042 Ry
     estimated scf accuracy    <       0.00819321 Ry

     iteration # 12     ecut=    30.00 Ry     beta= 0.70
     Davidson diagonalization with overlap

---- Real-time Memory Report at c_bands before calling an iterative solver
           188 MiB given to the printing process from OS
             0 MiB allocation reported by mallinfo(arena+hblkhd)
        125688 MiB available memory on the node where the printing process lives
------------------
     ethr =  9.53E-06,  avg # of iterations =  1.0

     total cpu time spent up to now is       27.3 secs

     total energy              =   -1075.23993377 Ry
     estimated scf accuracy    <       0.00007954 Ry

     iteration # 13     ecut=    30.00 Ry     beta= 0.70
     Davidson diagonalization with overlap

---- Real-time Memory Report at c_bands before calling an iterative solver
           188 MiB given to the printing process from OS
             0 MiB allocation reported by mallinfo(arena+hblkhd)
        125627 MiB available memory on the node where the printing process lives
------------------
     ethr =  9.25E-08,  avg # of iterations =  3.7

     total cpu time spent up to now is       29.4 secs

     total energy              =   -1075.23993243 Ry
     estimated scf accuracy    <       0.00003793 Ry

     iteration # 14     ecut=    30.00 Ry     beta= 0.70
     Davidson diagonalization with overlap

---- Real-time Memory Report at c_bands before calling an iterative solver
           188 MiB given to the printing process from OS
             0 MiB allocation reported by mallinfo(arena+hblkhd)
        125646 MiB available memory on the node where the printing process lives
------------------
     ethr =  4.41E-08,  avg # of iterations =  2.0

     total cpu time spent up to now is       31.5 secs

     End of self-consistent calculation

          k = 0.0000 0.0000 0.0000 (  2209 PWs)   bands (ev):

   -65.0486 -65.0314 -34.0716 -33.9089 -33.6999 -33.6998 -33.6846 -33.6845
    -7.6199  -7.5932  -7.5923  -7.5906  -7.5850  -7.5842  -7.5690  -7.5689
    -7.5248  -7.4984  -7.4750  -7.4549  -7.4546  -7.4480  -7.4475  -7.4466
    -7.4450  -7.3892  -7.3798  -7.3790   2.4125   7.4856   8.7058   8.7061
    10.5649  10.5651  11.0869  11.1218  11.7240  11.7242  11.8647  12.2595
    12.4040  12.6369  13.4030  13.5485  14.1105  14.1106  14.7015  14.7015
    14.9715  15.0145  17.6345  18.2344  18.2344  18.9029  19.2802  21.8989
    24.2406  24.2407  25.5285  25.8652  26.6761  26.6911  26.6912  27.0731

     occupation numbers 
     1.0000   1.0000   1.0000   1.0000   1.0000   1.0000   1.0000   1.0000
     1.0000   1.0000   1.0000   1.0000   1.0000   1.0000   1.0000   1.0000
     1.0000   1.0000   1.0000   1.0000   1.0000   1.0000   1.0000   1.0000
     1.0000   1.0000   1.0000   1.0000   1.0000   1.0000   1.0000   1.0000
     1.0000   1.0000   1.0000   1.0000   1.0000   1.0000   1.0000   1.0000
     1.0000   1.0000   1.0000   0.0000   0.0000   0.0000   0.0000   0.0000
     0.0000   0.0000   0.0000   0.0000   0.0000   0.0000   0.0000   0.0000
     0.0000   0.0000   0.0000   0.0000   0.0000   0.0000   0.0000   0.0000

          k = 0.0000 0.0000 0.3852 (  2226 PWs)   bands (ev):

   -65.0488 -65.0313 -34.0709 -33.9104 -33.7028 -33.7010 -33.6850 -33.6839
    -7.6562  -7.6524  -7.6057  -7.5951  -7.5674  -7.5591  -7.5566  -7.5191
    -7.5105  -7.4969  -7.4778  -7.4757  -7.4663  -7.4482  -7.4376  -7.4240
    -7.4171  -7.4156  -7.3861  -7.3717   3.1910   5.5662   7.9516   8.8213
    10.4888  10.5200  10.7160  10.9427  11.6523  11.9849  12.1846  12.5927
    12.7561  13.0348  13.5172  14.0364  14.1092  14.9870  15.0907  15.3398
    16.1477  16.4733  17.0456  17.4561  18.4206  19.2958  20.1009  20.2480
    22.5009  22.9008  23.3079  24.0949  24.5703  25.0460  25.2987  27.1304

     occupation numbers 
     1.0000   1.0000   1.0000   1.0000   1.0000   1.0000   1.0000   1.0000
     1.0000   1.0000   1.0000   1.0000   1.0000   1.0000   1.0000   1.0000
     1.0000   1.0000   1.0000   1.0000   1.0000   1.0000   1.0000   1.0000
     1.0000   1.0000   1.0000   1.0000   1.0000   1.0000   1.0000   1.0000
     1.0000   1.0000   1.0000   1.0000   1.0000   1.0000   1.0000   1.0000
     1.0000   1.0000   1.0000   0.0000   0.0000   0.0000   0.0000   0.0000
     0.0000   0.0000   0.0000   0.0000   0.0000   0.0000   0.0000   0.0000
     0.0000   0.0000   0.0000   0.0000   0.0000   0.0000   0.0000   0.0000

          k = 0.0000 0.3844 0.1926 (  2227 PWs)   bands (ev):

   -65.0445 -65.0356 -34.0338 -33.9504 -33.6999 -33.6973 -33.6883 -33.6856
    -7.6608  -7.6528  -7.6383  -7.6087  -7.5536  -7.5505  -7.5374  -7.5125
    -7.5120  -7.5041  -7.4923  -7.4710  -7.4481  -7.4360  -7.4351  -7.4329
    -7.4186  -7.4128  -7.3830  -7.3763   3.4057   6.2188   7.2059   7.6880
     9.4004   9.7802  11.1829  11.7294  12.0810  12.4066  12.5758  12.6162
    13.2216  13.5423  13.6962  13.8899  13.9298  14.6011  15.0285  15.7493
    16.0259  17.3444  17.7000  18.0186  18.7739  19.1010  19.8599  20.7222
    21.0493  22.5297  22.9782  23.7040  24.2175  24.6493  25.5676  26.2270

     occupation numbers 
     1.0000   1.0000   1.0000   1.0000   1.0000   1.0000   1.0000   1.0000
     1.0000   1.0000   1.0000   1.0000   1.0000   1.0000   1.0000   1.0000
     1.0000   1.0000   1.0000   1.0000   1.0000   1.0000   1.0000   1.0000
     1.0000   1.0000   1.0000   1.0000   1.0000   1.0000   1.0000   1.0000
     1.0000   1.0000   1.0000   1.0000   1.0000   1.0000   1.0000   1.0000
     1.0000   1.0000   1.0000   0.0000   0.0000   0.0000   0.0000   0.0000
     0.0000   0.0000   0.0000   0.0000   0.0000   0.0000   0.0000   0.0000
     0.0000   0.0000   0.0000   0.0000   0.0000   0.0000   0.0000   0.0000

          k = 0.0000 0.3844 0.5778 (  2228 PWs)   bands (ev):

   -65.0442 -65.0357 -34.0317 -33.9511 -33.6968 -33.6947 -33.6910 -33.6877
    -7.6766  -7.6509  -7.6353  -7.5995  -7.5853  -7.5457  -7.5407  -7.5303
    -7.5078  -7.4844  -7.4773  -7.4678  -7.4465  -7.4352  -7.4330  -7.4287
    -7.4189  -7.3998  -7.3853  -7.3842   4.6494   5.3193   5.5288   7.5952
     9.7122  10.5632  11.4953  11.9698  12.2648  12.4273  12.5306  12.6895
    12.9093  13.1674  13.7054  14.1003  14.1726  15.1637  15.2077  15.6781
    16.8206  16.9213  17.5719  17.6491  18.6761  19.6976  19.7548  20.3700
    21.8024  22.2718  22.5499  23.6476  23.9002  24.7858  25.4092  25.8664

     occupation numbers 
     1.0000   1.0000   1.0000   1.0000   1.0000   1.0000   1.0000   1.0000
     1.0000   1.0000   1.0000   1.0000   1.0000   1.0000   1.0000   1.0000
     1.0000   1.0000   1.0000   1.0000   1.0000   1.0000   1.0000   1.0000
     1.0000   1.0000   1.0000   1.0000   1.0000   1.0000   1.0000   1.0000
     1.0000   1.0000   1.0000   1.0000   1.0000   1.0000   1.0000   1.0000
     1.0000   1.0000   1.0000   0.0000   0.0000   0.0000   0.0000   0.0000
     0.0000   0.0000   0.0000   0.0000   0.0000   0.0000   0.0000   0.0000
     0.0000   0.0000   0.0000   0.0000   0.0000   0.0000   0.0000   0.0000

          k = 0.3333 0.1914 0.1926 (  2227 PWs)   bands (ev):

   -65.0445 -65.0356 -34.0338 -33.9504 -33.6999 -33.6973 -33.6883 -33.6856
    -7.6608  -7.6528  -7.6383  -7.6087  -7.5536  -7.5505  -7.5374  -7.5125
    -7.5120  -7.5041  -7.4923  -7.4710  -7.4481  -7.4360  -7.4351  -7.4329
    -7.4186  -7.4128  -7.3830  -7.3763   3.4057   6.2188   7.2059   7.6880
     9.4004   9.7802  11.1829  11.7294  12.0810  12.4066  12.5758  12.6162
    13.2216  13.5423  13.6962  13.8899  13.9298  14.6011  15.0285  15.7493
    16.0259  17.3444  17.7000  18.0186  18.7739  19.1010  19.8599  20.7222
    21.0493  22.5297  22.9782  23.7040  24.2175  24.6493  25.5676  26.2270

     occupation numbers 
     1.0000   1.0000   1.0000   1.0000   1.0000   1.0000   1.0000   1.0000
     1.0000   1.0000   1.0000   1.0000   1.0000   1.0000   1.0000   1.0000
     1.0000   1.0000   1.0000   1.0000   1.0000   1.0000   1.0000   1.0000
     1.0000   1.0000   1.0000   1.0000   1.0000   1.0000   1.0000   1.0000
     1.0000   1.0000   1.0000   1.0000   1.0000   1.0000   1.0000   1.0000
     1.0000   1.0000   1.0000   0.0000   0.0000   0.0000   0.0000   0.0000
     0.0000   0.0000   0.0000   0.0000   0.0000   0.0000   0.0000   0.0000
     0.0000   0.0000   0.0000   0.0000   0.0000   0.0000   0.0000   0.0000

          k = 0.3333 0.1914 0.5778 (  2228 PWs)   bands (ev):

   -65.0442 -65.0357 -34.0317 -33.9511 -33.6968 -33.6947 -33.6910 -33.6877
    -7.6766  -7.6509  -7.6353  -7.5995  -7.5853  -7.5457  -7.5407  -7.5303
    -7.5078  -7.4844  -7.4773  -7.4678  -7.4465  -7.4352  -7.4330  -7.4287
    -7.4189  -7.3998  -7.3853  -7.3842   4.6494   5.3193   5.5288   7.5952
     9.7122  10.5632  11.4953  11.9698  12.2648  12.4273  12.5306  12.6895
    12.9093  13.1674  13.7054  14.1003  14.1726  15.1637  15.2077  15.6781
    16.8206  16.9213  17.5719  17.6491  18.6761  19.6976  19.7548  20.3700
    21.8024  22.2718  22.5499  23.6476  23.9002  24.7858  25.4096  25.8664

     occupation numbers 
     1.0000   1.0000   1.0000   1.0000   1.0000   1.0000   1.0000   1.0000
     1.0000   1.0000   1.0000   1.0000   1.0000   1.0000   1.0000   1.0000
     1.0000   1.0000   1.0000   1.0000   1.0000   1.0000   1.0000   1.0000
     1.0000   1.0000   1.0000   1.0000   1.0000   1.0000   1.0000   1.0000
     1.0000   1.0000   1.0000   1.0000   1.0000   1.0000   1.0000   1.0000
     1.0000   1.0000   1.0000   0.0000   0.0000   0.0000   0.0000   0.0000
     0.0000   0.0000   0.0000   0.0000   0.0000   0.0000   0.0000   0.0000
     0.0000   0.0000   0.0000   0.0000   0.0000   0.0000   0.0000   0.0000

          k = 0.3333 0.5757 0.3852 (  2228 PWs)   bands (ev):

   -65.0442 -65.0357 -34.0317 -33.9511 -33.6969 -33.6946 -33.6909 -33.6878
    -7.6758  -7.6513  -7.6359  -7.5994  -7.5846  -7.5459  -7.5412  -7.5304
    -7.5082  -7.4838  -7.4774  -7.4679  -7.4470  -7.4347  -7.4338  -7.4279
    -7.4189  -7.3994  -7.3860  -7.3838   4.6493   5.3195   5.5289   7.5951
     9.7122  10.5633  11.4952  11.9698  12.2649  12.4273  12.5306  12.6895
    12.9093  13.1673  13.7055  14.1003  14.1726  15.1638  15.2077  15.6780
    16.8206  16.9213  17.5719  17.6491  18.6760  19.6978  19.7547  20.3699
    21.8024  22.2719  22.5499  23.6476  23.9002  24.7858  25.4096  25.8664

     occupation numbers 
     1.0000   1.0000   1.0000   1.0000   1.0000   1.0000   1.0000   1.0000
     1.0000   1.0000   1.0000   1.0000   1.0000   1.0000   1.0000   1.0000
     1.0000   1.0000   1.0000   1.0000   1.0000   1.0000   1.0000   1.0000
     1.0000   1.0000   1.0000   1.0000   1.0000   1.0000   1.0000   1.0000
     1.0000   1.0000   1.0000   1.0000   1.0000   1.0000   1.0000   1.0000
     1.0000   1.0000   1.0000   0.0000   0.0000   0.0000   0.0000   0.0000
     0.0000   0.0000   0.0000   0.0000   0.0000   0.0000   0.0000   0.0000
     0.0000   0.0000   0.0000   0.0000   0.0000   0.0000   0.0000   0.0000

          k = 0.3333 0.5757-0.0000 (  2245 PWs)   bands (ev):

   -65.0444 -65.0362 -34.0340 -33.9520 -33.6974 -33.6973 -33.6929 -33.6928
    -7.6775  -7.6737  -7.6052  -7.6034  -7.5911  -7.5905  -7.5198  -7.5190
    -7.5147  -7.4615  -7.4609  -7.4498  -7.4467  -7.4367  -7.4302  -7.4293
    -7.4137  -7.4106  -7.4098  -7.3870   4.8134   6.0362   6.0364   6.2732
     8.7177  10.4296  11.1614  11.1614  11.6462  12.6727  12.8938  13.3670
    13.6490  13.6490  13.7353  13.8562  14.4042  14.4043  14.7791  14.9062
    18.3382  19.0355  19.0356  19.6649  19.7873  19.7875  20.6194  21.5910
    21.5910  22.3617  22.8329  22.9354  22.9354  23.2252  23.3137  23.3138

     occupation numbers 
     1.0000   1.0000   1.0000   1.0000   1.0000   1.0000   1.0000   1.0000
     1.0000   1.0000   1.0000   1.0000   1.0000   1.0000   1.0000   1.0000
     1.0000   1.0000   1.0000   1.0000   1.0000   1.0000   1.0000   1.0000
     1.0000   1.0000   1.0000   1.0000   1.0000   1.0000   1.0000   1.0000
     1.0000   1.0000   1.0000   1.0000   1.0000   1.0000   1.0000   1.0000
     1.0000   1.0000   1.0000   0.0000   0.0000   0.0000   0.0000   0.0000
     0.0000   0.0000   0.0000   0.0000   0.0000   0.0000   0.0000   0.0000
     0.0000   0.0000   0.0000   0.0000   0.0000   0.0000   0.0000   0.0000

          k = 0.3333-0.1930-0.0000 (  2226 PWs)   bands (ev):

   -65.0488 -65.0313 -34.0709 -33.9104 -33.7028 -33.7009 -33.6850 -33.6840
    -7.6555  -7.6517  -7.6065  -7.5960  -7.5672  -7.5592  -7.5567  -7.5193
    -7.5112  -7.4965  -7.4782  -7.4757  -7.4661  -7.4481  -7.4368  -7.4247
    -7.4166  -7.4157  -7.3855  -7.3722   3.1910   5.5663   7.9518   8.8210
    10.4887  10.5201  10.7159  10.9428  11.6523  11.9848  12.1847  12.5925
    12.7562  13.0348  13.5172  14.0364  14.1091  14.9871  15.0907  15.3398
    16.1478  16.4734  17.0455  17.4561  18.4206  19.2958  20.1010  20.2479
    22.5009  22.9008  23.3079  24.0950  24.5703  25.0461  25.2987  27.1304

     occupation numbers 
     1.0000   1.0000   1.0000   1.0000   1.0000   1.0000   1.0000   1.0000
     1.0000   1.0000   1.0000   1.0000   1.0000   1.0000   1.0000   1.0000
     1.0000   1.0000   1.0000   1.0000   1.0000   1.0000   1.0000   1.0000
     1.0000   1.0000   1.0000   1.0000   1.0000   1.0000   1.0000   1.0000
     1.0000   1.0000   1.0000   1.0000   1.0000   1.0000   1.0000   1.0000
     1.0000   1.0000   1.0000   0.0000   0.0000   0.0000   0.0000   0.0000
     0.0000   0.0000   0.0000   0.0000   0.0000   0.0000   0.0000   0.0000
     0.0000   0.0000   0.0000   0.0000   0.0000   0.0000   0.0000   0.0000

          k = 0.3333-0.1930 0.3852 (  2237 PWs)   bands (ev):

   -65.0489 -65.0314 -34.0705 -33.9112 -33.7051 -33.7020 -33.6865 -33.6855
    -7.6736  -7.6517  -7.6455  -7.6129  -7.5499  -7.5417  -7.5362  -7.5244
    -7.4936  -7.4894  -7.4890  -7.4600  -7.4502  -7.4497  -7.4391  -7.4333
    -7.4144  -7.4038  -7.3900  -7.3850   3.9562   5.8371   6.9206   7.4448
     9.0187   9.3417  10.8000  11.4389  12.0695  12.2883  12.6360  13.2555
    13.4821  13.8882  14.0369  14.0453  14.4079  14.5006  14.9501  16.4884
    16.8859  17.7367  18.0859  18.1902  18.8611  18.9613  20.1565  20.3004
    20.7849  21.1602  22.5264  23.3354  24.8655  24.9332  25.5115  25.7918

     occupation numbers 
     1.0000   1.0000   1.0000   1.0000   1.0000   1.0000   1.0000   1.0000
     1.0000   1.0000   1.0000   1.0000   1.0000   1.0000   1.0000   1.0000
     1.0000   1.0000   1.0000   1.0000   1.0000   1.0000   1.0000   1.0000
     1.0000   1.0000   1.0000   1.0000   1.0000   1.0000   1.0000   1.0000
     1.0000   1.0000   1.0000   1.0000   1.0000   1.0000   1.0000   1.0000
     1.0000   1.0000   1.0000   0.0000   0.0000   0.0000   0.0000   0.0000
     0.0000   0.0000   0.0000   0.0000   0.0000   0.0000   0.0000   0.0000
     0.0000   0.0000   0.0000   0.0000   0.0000   0.0000   0.0000   0.0000

     highest occupied, lowest unoccupied level (ev):    14.0369   13.5485

!    total energy              =   -1075.23993560 Ry
     estimated scf accuracy    <       0.00000059 Ry

     The total energy is the sum of the following terms:
     one-electron contribution =    -417.86457698 Ry
     hartree contribution      =     269.41898913 Ry
     xc contribution           =    -243.51663522 Ry
     ewald contribution        =    -683.27771252 Ry

     convergence has been achieved in  14 iterations

     Writing all to output data dir calculations_bands/myprefix.save/
 
     init_run     :      4.01s CPU      1.76s WALL (       1 calls)
     electrons    :     85.38s CPU     29.60s WALL (       1 calls)

     Called by init_run:
     wfcinit      :      1.09s CPU      0.52s WALL (       1 calls)
     wfcinit:atom :      0.00s CPU      0.00s WALL (       5 calls)
     wfcinit:wfcr :      1.08s CPU      0.51s WALL (       5 calls)
     potinit      :      1.17s CPU      0.38s WALL (       1 calls)
     hinit0       :      1.22s CPU      0.60s WALL (       1 calls)

     Called by electrons:
     c_bands      :     62.35s CPU     21.43s WALL (      14 calls)
     sum_band     :     16.88s CPU      5.93s WALL (      14 calls)
     v_of_rho     :      1.19s CPU      0.43s WALL (      15 calls)
     v_h          :      0.17s CPU      0.06s WALL (      15 calls)
     v_xc         :      1.02s CPU      0.37s WALL (      15 calls)
     newd         :      4.69s CPU      1.68s WALL (      15 calls)
     mix_rho      :      0.27s CPU      0.10s WALL (      14 calls)

     Called by c_bands:
     init_us_2    :      0.13s CPU      0.05s WALL (     145 calls)
     init_us_2:cp :      0.13s CPU      0.05s WALL (     145 calls)
     cegterg      :     60.36s CPU     20.75s WALL (      70 calls)

     Called by sum_band:
     sum_band:wei :      0.01s CPU      0.00s WALL (      14 calls)
     sum_band:loo :     10.05s CPU      3.41s WALL (      14 calls)
     sum_band:buf :      0.03s CPU      0.01s WALL (      70 calls)
     sum_band:ini :      0.06s CPU      0.02s WALL (      70 calls)
     sum_band:cal :      0.73s CPU      0.25s WALL (      70 calls)
     sum_band:bec :      0.07s CPU      0.02s WALL (      70 calls)
     addusdens    :      3.05s CPU      1.17s WALL (      14 calls)
     addusd:skk   :      0.11s CPU      0.05s WALL (      28 calls)
     addusd:dgemm :      0.26s CPU      0.17s WALL (      28 calls)
     addusd:qvan2 :      2.24s CPU      0.79s WALL (      28 calls)

     Called by *egterg:
     cdiaghg      :      6.84s CPU      2.34s WALL (     238 calls)
     cegterg:over :      6.51s CPU      2.18s WALL (     168 calls)
     cegterg:upda :      0.86s CPU      0.29s WALL (     168 calls)
     cegterg:last :      0.97s CPU      0.32s WALL (     125 calls)
     cdiaghg:chol :      0.33s CPU      0.12s WALL (     238 calls)
     cdiaghg:inve :      0.04s CPU      0.01s WALL (     238 calls)
     cdiaghg:para :      2.54s CPU      0.86s WALL (     476 calls)
     h_psi        :     41.29s CPU     14.36s WALL (     243 calls)
     s_psi        :      0.32s CPU      0.11s WALL (     243 calls)
     g_psi        :      0.04s CPU      0.01s WALL (     168 calls)

     Called by h_psi:
     h_psi:calbec :      2.10s CPU      0.73s WALL (     243 calls)
     vloc_psi     :     38.64s CPU     13.44s WALL (     243 calls)
     add_vuspsi   :      0.40s CPU      0.14s WALL (     243 calls)

     General routines
     calbec       :      2.82s CPU      0.97s WALL (     313 calls)
     fft          :      1.60s CPU      0.59s WALL (     193 calls)
     ffts         :      0.94s CPU      0.30s WALL (      29 calls)
     fftw         :     40.54s CPU     14.04s WALL (   25342 calls)
     interpolate  :      0.94s CPU      0.30s WALL (      15 calls)
 
     Parallel routines
 
     PWSCF        :   1m30.08s CPU     32.03s WALL

 
   This run was terminated on:   4:26:24   5Jun2023            

=------------------------------------------------------------------------------=
   JOB DONE.
=------------------------------------------------------------------------------=
