
     Program PWSCF v.7.0 starts on  7Jun2023 at  1:58:24 

     This program is part of the open-source Quantum ESPRESSO suite
     for quantum simulation of materials; please cite
         "P. Giannozzi et al., J. Phys.:Condens. Matter 21 395502 (2009);
         "P. Giannozzi et al., J. Phys.:Condens. Matter 29 465901 (2017);
         "P. Giannozzi et al., J. Chem. Phys. 152 154105 (2020);
          URL http://www.quantum-espresso.org", 
     in publications or presentations arising from this work. More details at
     http://www.quantum-espresso.org/quote

     Parallel version (MPI & OpenMP), running on      32 processor cores
     Number of MPI processes:                 8
     Threads/MPI process:                     4

     MPI processes distributed on     1 nodes
     K-points division:     npool     =       2
     R & G space division:  proc/nbgrp/npool/nimage =       4
     51679 MiB available memory on the printing compute node when the environment starts
 
     Reading input from espresso_1222.pwi
Warning: card &CELL ignored
Warning: card / ignored

     Current dimensions of program PWSCF are:
     Max number of different atomic species (ntypx) = 10
     Max number of k-points (npk) =  40000
     Max angular momentum in pseudopotentials (lmaxx) =  4
     file Cd.pbe-dn-rrkjus_psl.0.3.1.UPF: wavefunction(s)  4D renormalized
     Message from routine setup:
     using ibrav=0 with symmetry is DISCOURAGED, use correct ibrav instead

     Subspace diagonalization in iterative solution of the eigenvalue problem:
     one sub-group per band group will be used
     scalapack distributed-memory algorithm (size of sub-group:  2*  2 procs)

 
     Parallelization info
     --------------------
     sticks:   dense  smooth     PW     G-vecs:    dense   smooth      PW
     Min        1029     516    142                43803    15518    2218
     Max        1030     517    144                43805    15521    2219
     Sum        4117    2065    571               175215    62079    8873
 
     Using Slab Decomposition
 


     bravais-lattice index     =            0
     lattice parameter (alat)  =      15.8112  a.u.
     unit-cell volume          =    2794.9984 (a.u.)^3
     number of atoms/cell      =           14
     number of atomic types    =            3
     number of electrons       =       116.00
     number of Kohn-Sham states=           64
     kinetic-energy cutoff     =      30.0000  Ry
     charge density cutoff     =     240.0000  Ry
     scf convergence threshold =      1.0E-06
     mixing beta               =       0.7000
     number of iterations used =            8  plain     mixing
     Exchange-correlation= SLA  PW   PBE  PBE
                           (   1   4   3   4   0   0   0)

     celldm(1)=  15.811225  celldm(2)=   0.000000  celldm(3)=   0.000000
     celldm(4)=   0.000000  celldm(5)=   0.000000  celldm(6)=   0.000000

     crystal axes: (cart. coord. in units of alat)
               a(1) = (   1.000000   0.000000   0.000000 )  
               a(2) = (   0.500000   0.866025   0.000000 )  
               a(3) = (   0.500000   0.288675   0.816497 )  

     reciprocal axes: (cart. coord. in units 2 pi/alat)
               b(1) = (  1.000000 -0.577350 -0.408248 )  
               b(2) = (  0.000000  1.154701 -0.408248 )  
               b(3) = (  0.000000  0.000000  1.224745 )  


     PseudoPot. # 1 for Y  read from file:
     /home/pragov/projects/rrg-bengioy-ad/pragov/crystal_structure_design/SSSP/Y_pbe_v1.uspp.F.UPF
     MD5 check sum: 2cf71db95cafeb975fc457bd7f14888e
     Pseudo is Ultrasoft + core correction, Zval = 11.0
     Generated by new atomic code, or converted to UPF format
     Using radial grid of  885 points,  6 beta functions with: 
                l(1) =   0
                l(2) =   0
                l(3) =   1
                l(4) =   1
                l(5) =   2
                l(6) =   2
     Q(r) pseudized with  6 coefficients,  rinner =    1.200   1.200   1.200
                                                       1.200   1.200

     PseudoPot. # 2 for Cd read from file:
     /home/pragov/projects/rrg-bengioy-ad/pragov/crystal_structure_design/SSSP/Cd.pbe-dn-rrkjus_psl.0.3.1.UPF
     MD5 check sum: 558e9f355611b531a870a69ef6ace9e2
     Pseudo is Ultrasoft + core correction, Zval = 12.0
     Generated using "atomic" code by A. Dal Corso  v.5.0.99 svn rev. 10869
     Using radial grid of 1239 points,  6 beta functions with: 
                l(1) =   0
                l(2) =   0
                l(3) =   1
                l(4) =   1
                l(5) =   2
                l(6) =   2
     Q(r) pseudized with 0 coefficients 


     PseudoPot. # 3 for Se read from file:
     /home/pragov/projects/rrg-bengioy-ad/pragov/crystal_structure_design/SSSP/Se_pbe_v1.uspp.F.UPF
     MD5 check sum: 1b3568f3a8ae88f9a2a0ad0698632c85
     Pseudo is Ultrasoft + core correction, Zval =  6.0
     Generated by new atomic code, or converted to UPF format
     Using radial grid of  877 points,  6 beta functions with: 
                l(1) =   0
                l(2) =   0
                l(3) =   1
                l(4) =   1
                l(5) =   2
                l(6) =   2
     Q(r) pseudized with  8 coefficients,  rinner =    1.300   1.300   1.300
                                                       1.300   1.300

     atomic species   valence    mass     pseudopotential
        Y             11.00    88.90584     Y ( 1.00)
        Cd            12.00   112.41400     Cd( 1.00)
        Se             6.00    78.97100     Se( 1.00)

     12 Sym. Ops., with inversion, found ( 6 have fractional translation)


                                    s                        frac. trans.

      isym =  1     identity                                     

 cryst.   s( 1) = (     1          0          0      )
                  (     0          1          0      )
                  (     0          0          1      )

 cart.    s( 1) = (  1.0000000  0.0000000  0.0000000 )
                  (  0.0000000  1.0000000  0.0000000 )
                  (  0.0000000  0.0000000  1.0000000 )


      isym =  2     180 deg rotation - cart. axis [1,0,0]        

 cryst.   s( 2) = (     1          0          0      )    f =( -0.2500000 )
                  (     1         -1          0      )       ( -0.2500000 )
                  (     1          0         -1      )       ( -0.2500000 )

 cart.    s( 2) = (  1.0000000  0.0000000  0.0000000 )    f =( -0.5000000 )
                  (  0.0000000 -1.0000000 -0.0000000 )       ( -0.2886751 )
                  (  0.0000000  0.0000000 -1.0000000 )       ( -0.2041241 )


      isym =  3     120 deg rotation - cryst. axis [0,0,1]       

 cryst.   s( 3) = (    -1          1          0      )
                  (    -1          0          0      )
                  (    -1          0          1      )

 cart.    s( 3) = ( -0.5000000 -0.8660254 -0.0000000 )
                  (  0.8660254 -0.5000000  0.0000000 )
                  (  0.0000000  0.0000000  1.0000000 )


      isym =  4     120 deg rotation - cryst. axis [0,0,-1]      

 cryst.   s( 4) = (     0         -1          0      )
                  (     1         -1          0      )
                  (     0         -1          1      )

 cart.    s( 4) = ( -0.5000000  0.8660254  0.0000000 )
                  ( -0.8660254 -0.5000000 -0.0000000 )
                  (  0.0000000  0.0000000  1.0000000 )


      isym =  5     180 deg rotation - cryst. axis [0,1,0]       

 cryst.   s( 5) = (     0         -1          0      )    f =( -0.2500000 )
                  (    -1          0          0      )       ( -0.2500000 )
                  (     0          0         -1      )       ( -0.2500000 )

 cart.    s( 5) = ( -0.5000000 -0.8660254 -0.0000000 )    f =( -0.5000000 )
                  ( -0.8660254  0.5000000 -0.0000000 )       ( -0.2886751 )
                  (  0.0000000  0.0000000 -1.0000000 )       ( -0.2041241 )


      isym =  6     180 deg rotation - cryst. axis [1,1,0]       

 cryst.   s( 6) = (    -1          1          0      )    f =( -0.2500000 )
                  (     0          1          0      )       ( -0.2500000 )
                  (     0          1         -1      )       ( -0.2500000 )

 cart.    s( 6) = ( -0.5000000  0.8660254  0.0000000 )    f =( -0.5000000 )
                  (  0.8660254  0.5000000  0.0000000 )       ( -0.2886751 )
                  (  0.0000000  0.0000000 -1.0000000 )       ( -0.2041241 )


      isym =  7     inversion                                    

 cryst.   s( 7) = (    -1          0          0      )    f =( -0.2500000 )
                  (     0         -1          0      )       ( -0.2500000 )
                  (     0          0         -1      )       ( -0.2500000 )

 cart.    s( 7) = ( -1.0000000  0.0000000 -0.0000000 )    f =( -0.5000000 )
                  (  0.0000000 -1.0000000 -0.0000000 )       ( -0.2886751 )
                  (  0.0000000  0.0000000 -1.0000000 )       ( -0.2041241 )


      isym =  8     inv. 180 deg rotation - cart. axis [1,0,0]   

 cryst.   s( 8) = (    -1          0          0      )
                  (    -1          1          0      )
                  (    -1          0          1      )

 cart.    s( 8) = ( -1.0000000  0.0000000 -0.0000000 )
                  (  0.0000000  1.0000000  0.0000000 )
                  (  0.0000000  0.0000000  1.0000000 )


      isym =  9     inv. 120 deg rotation - cryst. axis [0,0,1]  

 cryst.   s( 9) = (     1         -1          0      )    f =( -0.2500000 )
                  (     1          0          0      )       ( -0.2500000 )
                  (     1          0         -1      )       ( -0.2500000 )

 cart.    s( 9) = (  0.5000000  0.8660254  0.0000000 )    f =( -0.5000000 )
                  ( -0.8660254  0.5000000 -0.0000000 )       ( -0.2886751 )
                  (  0.0000000  0.0000000 -1.0000000 )       ( -0.2041241 )


      isym = 10     inv. 120 deg rotation - cryst. axis [0,0,-1] 

 cryst.   s(10) = (     0          1          0      )    f =( -0.2500000 )
                  (    -1          1          0      )       ( -0.2500000 )
                  (     0          1         -1      )       ( -0.2500000 )

 cart.    s(10) = (  0.5000000 -0.8660254  0.0000000 )    f =( -0.5000000 )
                  (  0.8660254  0.5000000  0.0000000 )       ( -0.2886751 )
                  (  0.0000000  0.0000000 -1.0000000 )       ( -0.2041241 )


      isym = 11     inv. 180 deg rotation - cryst. axis [0,1,0]  

 cryst.   s(11) = (     0          1          0      )
                  (     1          0          0      )
                  (     0          0          1      )

 cart.    s(11) = (  0.5000000  0.8660254  0.0000000 )
                  (  0.8660254 -0.5000000  0.0000000 )
                  (  0.0000000  0.0000000  1.0000000 )


      isym = 12     inv. 180 deg rotation - cryst. axis [1,1,0]  

 cryst.   s(12) = (     1         -1          0      )
                  (     0         -1          0      )
                  (     0         -1          1      )

 cart.    s(12) = (  0.5000000 -0.8660254  0.0000000 )
                  ( -0.8660254 -0.5000000 -0.0000000 )
                  (  0.0000000  0.0000000  1.0000000 )


   Cartesian axes

     site n.     atom                  positions (alat units)
         1           Y   tau(   1) = (   0.7500000   0.7216878   0.5103104  )
         2           Y   tau(   2) = (   1.0000000   0.2886751   0.5103104  )
         3           Y   tau(   3) = (   1.0000000   0.5773503   0.1020621  )
         4           Y   tau(   4) = (   1.2500000   0.7216878   0.5103104  )
         5           Cd  tau(   5) = (   0.5000000   0.2886751   0.2041241  )
         6           Cd  tau(   6) = (   0.0000000   0.0000000   0.0000000  )
         7           Se  tau(   7) = (   1.2362780   0.4409351   0.3117882  )
         8           Se  tau(   8) = (   1.0000000   0.8501806   0.3117882  )
         9           Se  tau(   9) = (   1.0000000   0.5773503   0.6976286  )
        10           Se  tau(  10) = (   0.7637220   0.4409351   0.3117882  )
        11           Se  tau(  11) = (   1.2637220   1.0024406   0.7088325  )
        12           Se  tau(  12) = (   1.5000000   0.5931951   0.7088325  )
        13           Se  tau(  13) = (   1.5000000   0.8660254   0.3229922  )
        14           Se  tau(  14) = (   1.7362780   1.0024406   0.7088325  )

   Crystallographic axes

     site n.     atom                  positions (cryst. coord.)
         1           Y   tau(   1) = (  0.1250000  0.6250000  0.6250000  )
         2           Y   tau(   2) = (  0.6250000  0.1250000  0.6250000  )
         3           Y   tau(   3) = (  0.6250000  0.6250000  0.1250000  )
         4           Y   tau(   4) = (  0.6250000  0.6250000  0.6250000  )
         5           Cd  tau(   5) = (  0.2500000  0.2500000  0.2500000  )
         6           Cd  tau(   6) = (  0.0000000  0.0000000  0.0000000  )
         7           Se  tau(   7) = (  0.8544170  0.3818610  0.3818610  )
         8           Se  tau(   8) = (  0.3818610  0.8544170  0.3818610  )
         9           Se  tau(   9) = (  0.3818610  0.3818610  0.8544170  )
        10           Se  tau(  10) = (  0.3818610  0.3818610  0.3818610  )
        11           Se  tau(  11) = (  0.3955830  0.8681390  0.8681390  )
        12           Se  tau(  12) = (  0.8681390  0.3955830  0.8681390  )
        13           Se  tau(  13) = (  0.8681390  0.8681390  0.3955830  )
        14           Se  tau(  14) = (  0.8681390  0.8681390  0.8681390  )

     number of k points=     6
                       cart. coord. in units 2pi/alat
        k(    1) = (   0.0000000   0.0000000   0.0000000), wk =   0.0740741
        k(    2) = (   0.0000000   0.0000000   0.4082483), wk =   0.1481481
        k(    3) = (   0.0000000   0.3849002  -0.1360828), wk =   0.4444444
        k(    4) = (   0.0000000   0.3849002   0.2721655), wk =   0.4444444
        k(    5) = (   0.0000000   0.3849002  -0.5443311), wk =   0.4444444
        k(    6) = (   0.3333333  -0.5773503   0.0000000), wk =   0.4444444

                       cryst. coord.
        k(    1) = (   0.0000000   0.0000000   0.0000000), wk =   0.0740741
        k(    2) = (   0.0000000   0.0000000   0.3333333), wk =   0.1481481
        k(    3) = (   0.0000000   0.3333333   0.0000000), wk =   0.4444444
        k(    4) = (   0.0000000   0.3333333   0.3333333), wk =   0.4444444
        k(    5) = (   0.0000000   0.3333333  -0.3333333), wk =   0.4444444
        k(    6) = (   0.3333333  -0.3333333   0.0000000), wk =   0.4444444

     Dense  grid:   175215 G-vectors     FFT dimensions: (  80,  80,  80)

     Smooth grid:    62079 G-vectors     FFT dimensions: (  60,  60,  60)

     Dynamical RAM for                 wfc:       1.89 MB

     Dynamical RAM for     wfc (w. buffer):       7.57 MB

     Dynamical RAM for           str. fact:       2.01 MB

     Dynamical RAM for           local pot:       0.00 MB

     Dynamical RAM for          nlocal pot:       7.46 MB

     Dynamical RAM for                qrad:       3.73 MB

     Dynamical RAM for          rho,v,vnew:       4.93 MB

     Dynamical RAM for               rhoin:       1.64 MB

     Dynamical RAM for            rho*nmix:      10.69 MB

     Dynamical RAM for           G-vectors:       2.62 MB

     Dynamical RAM for          h,s,v(r/c):       0.19 MB

     Dynamical RAM for          <psi|beta>:       0.25 MB

     Dynamical RAM for                 psi:       3.79 MB

     Dynamical RAM for                hpsi:       3.79 MB

     Dynamical RAM for                spsi:       3.79 MB

     Dynamical RAM for      wfcinit/wfcrot:       6.27 MB

     Dynamical RAM for           addusdens:      65.17 MB

     Estimated static dynamical RAM per process >      37.53 MB

     Estimated max dynamical RAM per process >     113.39 MB

     Estimated total dynamical RAM >     864.33 MB

     Check: negative core charge=   -0.000002

     Initial potential from superposition of free atoms

     starting charge     115.9718, renormalised to     116.0000

     negative rho (up, down):  1.767E-01 0.000E+00
     Starting wfcs are  102 randomized atomic wfcs

     total cpu time spent up to now is        3.7 secs

     Self-consistent Calculation

     iteration #  1     ecut=    30.00 Ry     beta= 0.70
     Davidson diagonalization with overlap

---- Real-time Memory Report at c_bands before calling an iterative solver
           208 MiB given to the printing process from OS
             0 MiB allocation reported by mallinfo(arena+hblkhd)
         51081 MiB available memory on the node where the printing process lives
------------------
     ethr =  1.00E-02,  avg # of iterations =  2.0

     Threshold (ethr) on eigenvalues was too large:
     Diagonalizing with lowered threshold

     Davidson diagonalization with overlap

---- Real-time Memory Report at c_bands before calling an iterative solver
           250 MiB given to the printing process from OS
             0 MiB allocation reported by mallinfo(arena+hblkhd)
         50816 MiB available memory on the node where the printing process lives
------------------
     ethr =  5.11E-04,  avg # of iterations =  2.0

     negative rho (up, down):  1.791E-01 0.000E+00

     total cpu time spent up to now is        6.3 secs

     total energy              =    -944.62965322 Ry
     estimated scf accuracy    <       0.57895989 Ry

     iteration #  2     ecut=    30.00 Ry     beta= 0.70
     Davidson diagonalization with overlap

---- Real-time Memory Report at c_bands before calling an iterative solver
           262 MiB given to the printing process from OS
             0 MiB allocation reported by mallinfo(arena+hblkhd)
         50448 MiB available memory on the node where the printing process lives
------------------
     ethr =  4.99E-04,  avg # of iterations =  3.5

     negative rho (up, down):  1.804E-01 0.000E+00

     total cpu time spent up to now is        8.1 secs

     total energy              =    -944.78138759 Ry
     estimated scf accuracy    <       0.15024720 Ry

     iteration #  3     ecut=    30.00 Ry     beta= 0.70
     Davidson diagonalization with overlap

---- Real-time Memory Report at c_bands before calling an iterative solver
           281 MiB given to the printing process from OS
             0 MiB allocation reported by mallinfo(arena+hblkhd)
         50191 MiB available memory on the node where the printing process lives
------------------
     ethr =  1.30E-04,  avg # of iterations =  4.0

     negative rho (up, down):  1.803E-01 0.000E+00

     total cpu time spent up to now is        9.6 secs

     total energy              =    -944.80828790 Ry
     estimated scf accuracy    <       0.01119060 Ry

     iteration #  4     ecut=    30.00 Ry     beta= 0.70
     Davidson diagonalization with overlap

---- Real-time Memory Report at c_bands before calling an iterative solver
           282 MiB given to the printing process from OS
             0 MiB allocation reported by mallinfo(arena+hblkhd)
         49645 MiB available memory on the node where the printing process lives
------------------
     ethr =  9.65E-06,  avg # of iterations =  8.0

     negative rho (up, down):  1.803E-01 0.000E+00

     total cpu time spent up to now is       11.6 secs

     total energy              =    -944.81203132 Ry
     estimated scf accuracy    <       0.00696327 Ry

     iteration #  5     ecut=    30.00 Ry     beta= 0.70
     Davidson diagonalization with overlap

---- Real-time Memory Report at c_bands before calling an iterative solver
           282 MiB given to the printing process from OS
             0 MiB allocation reported by mallinfo(arena+hblkhd)
         50281 MiB available memory on the node where the printing process lives
------------------
     ethr =  6.00E-06,  avg # of iterations =  2.5

     negative rho (up, down):  1.804E-01 0.000E+00

     total cpu time spent up to now is       12.9 secs

     total energy              =    -944.81344835 Ry
     estimated scf accuracy    <       0.00055036 Ry

     iteration #  6     ecut=    30.00 Ry     beta= 0.70
     Davidson diagonalization with overlap

---- Real-time Memory Report at c_bands before calling an iterative solver
           282 MiB given to the printing process from OS
             0 MiB allocation reported by mallinfo(arena+hblkhd)
         50035 MiB available memory on the node where the printing process lives
------------------
     ethr =  4.74E-07,  avg # of iterations =  4.8

     negative rho (up, down):  1.805E-01 0.000E+00

     total cpu time spent up to now is       14.2 secs

     total energy              =    -944.81356051 Ry
     estimated scf accuracy    <       0.00015208 Ry

     iteration #  7     ecut=    30.00 Ry     beta= 0.70
     Davidson diagonalization with overlap

---- Real-time Memory Report at c_bands before calling an iterative solver
           284 MiB given to the printing process from OS
             0 MiB allocation reported by mallinfo(arena+hblkhd)
         50269 MiB available memory on the node where the printing process lives
------------------
     ethr =  1.31E-07,  avg # of iterations =  3.8

     negative rho (up, down):  1.805E-01 0.000E+00

     total cpu time spent up to now is       15.5 secs

     total energy              =    -944.81360543 Ry
     estimated scf accuracy    <       0.00000757 Ry

     iteration #  8     ecut=    30.00 Ry     beta= 0.70
     Davidson diagonalization with overlap

---- Real-time Memory Report at c_bands before calling an iterative solver
           284 MiB given to the printing process from OS
             0 MiB allocation reported by mallinfo(arena+hblkhd)
         50264 MiB available memory on the node where the printing process lives
------------------
     ethr =  6.53E-09,  avg # of iterations =  4.2

     negative rho (up, down):  1.805E-01 0.000E+00

     total cpu time spent up to now is       17.7 secs

     End of self-consistent calculation

          k = 0.0000 0.0000 0.0000 (  7799 PWs)   bands (ev):

   -36.6619 -36.6557 -36.6550 -36.6550 -16.7933 -16.7034 -16.7033 -16.7033
   -16.6455 -16.6455 -16.6193 -16.6190 -16.6190 -16.6062 -16.6062 -16.6058
    -6.6363  -6.0818  -6.0818  -6.0817  -5.9673  -5.9225  -5.9225  -5.9224
    -2.1514  -2.1514  -2.1513  -2.1233  -2.1233  -2.1099  -2.1099  -2.1099
    -2.1070  -2.1070   0.8766   1.5505   2.1409   2.1410   2.1410   3.2742
     3.2742   3.8113   3.8113   4.0522   4.0522   4.0522   4.0962   4.0962
     4.0962   4.1001   4.1001   4.1002   4.6776   4.6776   4.6776   5.4445
     5.4445   5.4445   6.0589   7.4222   7.4222   7.5429   8.3981   8.4700

     occupation numbers 
     1.0000   1.0000   1.0000   1.0000   1.0000   1.0000   1.0000   1.0000
     1.0000   1.0000   1.0000   1.0000   1.0000   1.0000   1.0000   1.0000
     1.0000   1.0000   1.0000   1.0000   1.0000   1.0000   1.0000   1.0000
     1.0000   1.0000   1.0000   1.0000   1.0000   1.0000   1.0000   1.0000
     1.0000   1.0000   1.0000   1.0000   1.0000   1.0000   1.0000   1.0000
     1.0000   1.0000   1.0000   1.0000   1.0000   1.0000   1.0000   1.0000
     1.0000   1.0000   1.0000   1.0000   1.0000   1.0000   1.0000   1.0000
     1.0000   1.0000   0.0000   0.0000   0.0000   0.0000   0.0000   0.0000

          k = 0.0000 0.0000 0.4082 (  7765 PWs)   bands (ev):

   -36.6606 -36.6570 -36.6550 -36.6550 -16.7721 -16.6980 -16.6918 -16.6918
   -16.6471 -16.6431 -16.6431 -16.6263 -16.6263 -16.6130 -16.6130 -16.6058
    -6.4986  -6.1373  -6.0705  -6.0602  -6.0602  -5.9443  -5.9443  -5.9256
    -2.1649  -2.1425  -2.1425  -2.1376  -2.1205  -2.1205  -2.1166  -2.1166
    -2.1055  -2.1055   1.3057   1.6361   2.4598   2.4598   2.6343   3.1449
     3.1449   3.1936   3.5708   3.5708   3.7721   3.8681   3.8681   3.9610
     4.0275   4.0275   4.2374   4.2899   4.2899   4.6482   4.6482   4.8735
     5.2547   5.2547   7.0220   7.7374   7.8689   7.8689   8.2678   8.6139

     occupation numbers 
     1.0000   1.0000   1.0000   1.0000   1.0000   1.0000   1.0000   1.0000
     1.0000   1.0000   1.0000   1.0000   1.0000   1.0000   1.0000   1.0000
     1.0000   1.0000   1.0000   1.0000   1.0000   1.0000   1.0000   1.0000
     1.0000   1.0000   1.0000   1.0000   1.0000   1.0000   1.0000   1.0000
     1.0000   1.0000   1.0000   1.0000   1.0000   1.0000   1.0000   1.0000
     1.0000   1.0000   1.0000   1.0000   1.0000   1.0000   1.0000   1.0000
     1.0000   1.0000   1.0000   1.0000   1.0000   1.0000   1.0000   1.0000
     1.0000   1.0000   0.0000   0.0000   0.0000   0.0000   0.0000   0.0000

          k = 0.0000 0.3849-0.1361 (  7765 PWs)   bands (ev):

   -36.6608 -36.6562 -36.6556 -36.6550 -16.7723 -16.6975 -16.6921 -16.6920
   -16.6471 -16.6428 -16.6427 -16.6262 -16.6260 -16.6135 -16.6131 -16.6061
    -6.4986  -6.1373  -6.0705  -6.0602  -6.0602  -5.9443  -5.9442  -5.9257
    -2.1650  -2.1425  -2.1425  -2.1376  -2.1205  -2.1205  -2.1166  -2.1166
    -2.1055  -2.1055   1.3057   1.6361   2.4597   2.4597   2.6343   3.1449
     3.1450   3.1936   3.5707   3.5708   3.7721   3.8680   3.8681   3.9610
     4.0276   4.0277   4.2374   4.2899   4.2899   4.6482   4.6482   4.8734
     5.2547   5.2547   7.0221   7.7374   7.8688   7.8688   8.2677   8.6140

     occupation numbers 
     1.0000   1.0000   1.0000   1.0000   1.0000   1.0000   1.0000   1.0000
     1.0000   1.0000   1.0000   1.0000   1.0000   1.0000   1.0000   1.0000
     1.0000   1.0000   1.0000   1.0000   1.0000   1.0000   1.0000   1.0000
     1.0000   1.0000   1.0000   1.0000   1.0000   1.0000   1.0000   1.0000
     1.0000   1.0000   1.0000   1.0000   1.0000   1.0000   1.0000   1.0000
     1.0000   1.0000   1.0000   1.0000   1.0000   1.0000   1.0000   1.0000
     1.0000   1.0000   1.0000   1.0000   1.0000   1.0000   1.0000   1.0000
     1.0000   1.0000   0.0000   0.0000   0.0000   0.0000   0.0000   0.0000

          k = 0.0000 0.3849 0.2722 (  7760 PWs)   bands (ev):

   -36.6603 -36.6569 -36.6554 -36.6550 -16.7607 -16.7109 -16.6821 -16.6819
   -16.6497 -16.6414 -16.6363 -16.6360 -16.6355 -16.6159 -16.6110 -16.6104
    -6.4533  -6.1546  -6.0459  -6.0458  -6.0337  -5.9946  -5.9607  -5.9606
    -2.1594  -2.1561  -2.1378  -2.1378  -2.1268  -2.1268  -2.1160  -2.1141
    -2.1054  -2.1049   1.4258   1.7072   2.4854   2.6531   2.6531   3.0725
     3.1557   3.4436   3.5090   3.5090   3.7050   3.7788   3.9047   3.9457
     3.9457   4.1204   4.2134   4.2134   4.2789   4.2826   4.6637   4.6637
     5.0461   5.0461   7.1484   7.8497   8.0630   8.2287   8.4119   8.9532

     occupation numbers 
     1.0000   1.0000   1.0000   1.0000   1.0000   1.0000   1.0000   1.0000
     1.0000   1.0000   1.0000   1.0000   1.0000   1.0000   1.0000   1.0000
     1.0000   1.0000   1.0000   1.0000   1.0000   1.0000   1.0000   1.0000
     1.0000   1.0000   1.0000   1.0000   1.0000   1.0000   1.0000   1.0000
     1.0000   1.0000   1.0000   1.0000   1.0000   1.0000   1.0000   1.0000
     1.0000   1.0000   1.0000   1.0000   1.0000   1.0000   1.0000   1.0000
     1.0000   1.0000   1.0000   1.0000   1.0000   1.0000   1.0000   1.0000
     1.0000   1.0000   0.0000   0.0000   0.0000   0.0000   0.0000   0.0000

          k = 0.0000 0.3849-0.5443 (  7796 PWs)   bands (ev):

   -36.6593 -36.6580 -36.6553 -36.6550 -16.7467 -16.7148 -16.6771 -16.6739
   -16.6616 -16.6493 -16.6393 -16.6309 -16.6254 -16.6227 -16.6214 -16.6098
    -6.3384  -6.2099  -6.1254  -6.0773  -6.0362  -5.9696  -5.9618  -5.9392
    -2.1849  -2.1542  -2.1463  -2.1306  -2.1304  -2.1201  -2.1142  -2.1127
    -2.1118  -2.1114   1.7244   1.7547   2.5024   2.7905   2.8283   3.0356
     3.0653   3.3149   3.3504   3.4288   3.5335   3.7656   3.8616   3.8739
     3.8898   3.9529   4.1189   4.2058   4.3889   4.4544   4.5974   4.6344
     4.7851   5.0198   7.7853   7.9473   8.0084   8.4511   8.6211   8.6219

     occupation numbers 
     1.0000   1.0000   1.0000   1.0000   1.0000   1.0000   1.0000   1.0000
     1.0000   1.0000   1.0000   1.0000   1.0000   1.0000   1.0000   1.0000
     1.0000   1.0000   1.0000   1.0000   1.0000   1.0000   1.0000   1.0000
     1.0000   1.0000   1.0000   1.0000   1.0000   1.0000   1.0000   1.0000
     1.0000   1.0000   1.0000   1.0000   1.0000   1.0000   1.0000   1.0000
     1.0000   1.0000   1.0000   1.0000   1.0000   1.0000   1.0000   1.0000
     1.0000   1.0000   1.0000   1.0000   1.0000   1.0000   1.0000   1.0000
     1.0000   1.0000   0.0000   0.0000   0.0000   0.0000   0.0000   0.0000

          k = 0.3333-0.5774 0.0000 (  7796 PWs)   bands (ev):

   -36.6596 -36.6574 -36.6555 -36.6550 -16.7470 -16.7144 -16.6774 -16.6739
   -16.6616 -16.6489 -16.6394 -16.6309 -16.6250 -16.6225 -16.6218 -16.6103
    -6.3385  -6.2098  -6.1254  -6.0774  -6.0361  -5.9695  -5.9618  -5.9392
    -2.1849  -2.1542  -2.1463  -2.1306  -2.1304  -2.1201  -2.1142  -2.1127
    -2.1118  -2.1114   1.7244   1.7547   2.5023   2.7906   2.8282   3.0355
     3.0653   3.3149   3.3504   3.4289   3.5336   3.7657   3.8616   3.8739
     3.8898   3.9529   4.1188   4.2058   4.3890   4.4544   4.5974   4.6344
     4.7852   5.0197   7.7855   7.9473   8.0082   8.4510   8.6211   8.6229

     occupation numbers 
     1.0000   1.0000   1.0000   1.0000   1.0000   1.0000   1.0000   1.0000
     1.0000   1.0000   1.0000   1.0000   1.0000   1.0000   1.0000   1.0000
     1.0000   1.0000   1.0000   1.0000   1.0000   1.0000   1.0000   1.0000
     1.0000   1.0000   1.0000   1.0000   1.0000   1.0000   1.0000   1.0000
     1.0000   1.0000   1.0000   1.0000   1.0000   1.0000   1.0000   1.0000
     1.0000   1.0000   1.0000   1.0000   1.0000   1.0000   1.0000   1.0000
     1.0000   1.0000   1.0000   1.0000   1.0000   1.0000   1.0000   1.0000
     1.0000   1.0000   0.0000   0.0000   0.0000   0.0000   0.0000   0.0000

     highest occupied, lowest unoccupied level (ev):     5.4445    6.0589

!    total energy              =    -944.81360902 Ry
     estimated scf accuracy    <       0.00000042 Ry

     The total energy is the sum of the following terms:
     one-electron contribution =    -225.05170695 Ry
     hartree contribution      =     165.17466615 Ry
     xc contribution           =    -411.53863474 Ry
     ewald contribution        =    -473.39793347 Ry

     convergence has been achieved in   8 iterations

     Writing all to output data dir calculations_bands/myprefix.save/
 
     init_run     :      8.83s CPU      3.13s WALL (       1 calls)
     electrons    :     52.15s CPU     14.12s WALL (       1 calls)

     Called by init_run:
     wfcinit      :      3.15s CPU      0.91s WALL (       1 calls)
     wfcinit:atom :      0.02s CPU      0.01s WALL (       3 calls)
     wfcinit:wfcr :      3.02s CPU      0.85s WALL (       3 calls)
     potinit      :      1.69s CPU      0.52s WALL (       1 calls)
     hinit0       :      2.68s CPU      1.20s WALL (       1 calls)

     Called by electrons:
     c_bands      :     33.79s CPU      8.98s WALL (       9 calls)
     sum_band     :     10.77s CPU      3.06s WALL (       9 calls)
     v_of_rho     :      1.89s CPU      0.51s WALL (       9 calls)
     v_h          :      0.12s CPU      0.03s WALL (       9 calls)
     v_xc         :      1.77s CPU      0.48s WALL (       9 calls)
     newd         :      6.25s CPU      1.79s WALL (       9 calls)
     mix_rho      :      0.36s CPU      0.10s WALL (       9 calls)

     Called by c_bands:
     init_us_2    :      0.19s CPU      0.07s WALL (      57 calls)
     init_us_2:cp :      0.19s CPU      0.07s WALL (      57 calls)
     cegterg      :     27.93s CPU      7.30s WALL (      27 calls)

     Called by sum_band:
     sum_band:wei :      0.03s CPU      0.01s WALL (       9 calls)
     sum_band:loo :      3.38s CPU      0.88s WALL (       9 calls)
     sum_band:buf :      0.07s CPU      0.02s WALL (      27 calls)
     sum_band:ini :      0.08s CPU      0.02s WALL (      27 calls)
     sum_band:cal :      0.38s CPU      0.10s WALL (      27 calls)
     sum_band:bec :      0.02s CPU      0.01s WALL (      27 calls)
     addusdens    :      4.18s CPU      1.31s WALL (       9 calls)
     addusd:skk   :      0.03s CPU      0.01s WALL (      27 calls)
     addusd:dgemm :      0.48s CPU      0.32s WALL (      27 calls)
     addusd:qvan2 :      2.10s CPU      0.54s WALL (      27 calls)

     Called by *egterg:
     cdiaghg      :      2.64s CPU      0.69s WALL (     117 calls)
     cegterg:over :      1.36s CPU      0.35s WALL (      93 calls)
     cegterg:upda :      0.73s CPU      0.20s WALL (      93 calls)
     cegterg:last :      0.72s CPU      0.19s WALL (      54 calls)
     cdiaghg:chol :      0.19s CPU      0.05s WALL (     117 calls)
     cdiaghg:inve :      0.03s CPU      0.01s WALL (     117 calls)
     cdiaghg:para :      0.48s CPU      0.13s WALL (     234 calls)
     h_psi        :     23.75s CPU      6.24s WALL (     123 calls)
     s_psi        :      0.56s CPU      0.14s WALL (     123 calls)
     g_psi        :      0.03s CPU      0.01s WALL (      93 calls)

     Called by h_psi:
     h_psi:calbec :      4.01s CPU      1.06s WALL (     123 calls)
     vloc_psi     :     19.03s CPU      5.00s WALL (     123 calls)
     add_vuspsi   :      0.65s CPU      0.17s WALL (     123 calls)

     General routines
     calbec       :      4.38s CPU      1.16s WALL (     150 calls)
     fft          :      3.08s CPU      1.07s WALL (     116 calls)
     ffts         :      1.35s CPU      0.42s WALL (      18 calls)
     fftw         :     20.11s CPU      5.28s WALL (   11276 calls)
     interpolate  :      1.38s CPU      0.44s WALL (       9 calls)
 
     Parallel routines
 
     PWSCF        :   1m 2.73s CPU     18.13s WALL

 
   This run was terminated on:   1:58:42   7Jun2023            

=------------------------------------------------------------------------------=
   JOB DONE.
=------------------------------------------------------------------------------=
