
     Program PWSCF v.7.0 starts on  5Jun2023 at 18:24:31 

     This program is part of the open-source Quantum ESPRESSO suite
     for quantum simulation of materials; please cite
         "P. Giannozzi et al., J. Phys.:Condens. Matter 21 395502 (2009);
         "P. Giannozzi et al., J. Phys.:Condens. Matter 29 465901 (2017);
         "P. Giannozzi et al., J. Chem. Phys. 152 154105 (2020);
          URL http://www.quantum-espresso.org", 
     in publications or presentations arising from this work. More details at
     http://www.quantum-espresso.org/quote

     Parallel version (MPI & OpenMP), running on      32 processor cores
     Number of MPI processes:                 8
     Threads/MPI process:                     4

     MPI processes distributed on     1 nodes
     K-points division:     npool     =       2
     R & G space division:  proc/nbgrp/npool/nimage =       4
     95286 MiB available memory on the printing compute node when the environment starts
 
     Reading input from espresso_11040.pwi
Warning: card &CELL ignored
Warning: card / ignored

     Current dimensions of program PWSCF are:
     Max number of different atomic species (ntypx) = 10
     Max number of k-points (npk) =  40000
     Max angular momentum in pseudopotentials (lmaxx) =  4
     file Al.pbe-n-kjpaw_psl.1.0.0.UPF: wavefunction(s)  3S 3P renormalized
     Message from routine setup:
     using ibrav=0 with symmetry is DISCOURAGED, use correct ibrav instead

     Subspace diagonalization in iterative solution of the eigenvalue problem:
     one sub-group per band group will be used
     scalapack distributed-memory algorithm (size of sub-group:  2*  2 procs)

 
     Parallelization info
     --------------------
     sticks:   dense  smooth     PW     G-vecs:    dense   smooth      PW
     Min         151      74     24                 5700     2006     342
     Max         153      76     25                 5703     2008     344
     Sum         609     301     97                22807     8027    1373
 
     Using Slab Decomposition
 


     bravais-lattice index     =            0
     lattice parameter (alat)  =       5.6673  a.u.
     unit-cell volume          =     363.1497 (a.u.)^3
     number of atoms/cell      =            4
     number of atomic types    =            3
     number of electrons       =        40.00
     number of Kohn-Sham states=           64
     kinetic-energy cutoff     =      30.0000  Ry
     charge density cutoff     =     240.0000  Ry
     scf convergence threshold =      1.0E-06
     mixing beta               =       0.7000
     number of iterations used =            8  plain     mixing
     Exchange-correlation=  SLA  PW   PBX  PBC
                           (   1   4   3   4   0   0   0)

     celldm(1)=   5.667287  celldm(2)=   0.000000  celldm(3)=   0.000000
     celldm(4)=   0.000000  celldm(5)=   0.000000  celldm(6)=   0.000000

     crystal axes: (cart. coord. in units of alat)
               a(1) = (   1.000000   0.000000   0.000000 )  
               a(2) = (   0.000000   1.000000   0.000000 )  
               a(3) = (   0.000000   0.000000   1.995079 )  

     reciprocal axes: (cart. coord. in units 2 pi/alat)
               b(1) = (  1.000000  0.000000  0.000000 )  
               b(2) = (  0.000000  1.000000  0.000000 )  
               b(3) = (  0.000000  0.000000  0.501233 )  


     PseudoPot. # 1 for Al read from file:
     /home/pragov/projects/rrg-bengioy-ad/pragov/crystal_structure_design/SSSP/Al.pbe-n-kjpaw_psl.1.0.0.UPF
     MD5 check sum: cfc449ca30b5f3223ec38ddd88ac046d
     Pseudo is Projector augmented-wave + core cor, Zval =  3.0
     Generated using "atomic" code by A. Dal Corso  v.5.1
     Shape of augmentation charge: PSQ
     Using radial grid of 1135 points,  6 beta functions with: 
                l(1) =   0
                l(2) =   0
                l(3) =   1
                l(4) =   1
                l(5) =   2
                l(6) =   2
     Q(r) pseudized with 0 coefficients 


     PseudoPot. # 2 for Ni read from file:
     /home/pragov/projects/rrg-bengioy-ad/pragov/crystal_structure_design/SSSP/ni_pbe_v1.4.uspp.F.UPF
     MD5 check sum: 1ee80287db30b12d2bc1f57a5b5d6409
     Pseudo is Ultrasoft + core correction, Zval = 18.0
     Generated by new atomic code, or converted to UPF format
     Using radial grid of  865 points,  6 beta functions with: 
                l(1) =   0
                l(2) =   0
                l(3) =   1
                l(4) =   1
                l(5) =   2
                l(6) =   2
     Q(r) pseudized with 10 coefficients,  rinner =    0.980   0.980   0.980
                                                       0.980   0.980

     PseudoPot. # 3 for Pt read from file:
     /home/pragov/projects/rrg-bengioy-ad/pragov/crystal_structure_design/SSSP/pt_pbe_v1.4.uspp.F.UPF
     MD5 check sum: f09d6de1a584b5a045c4fc126da2d0c4
     Pseudo is Ultrasoft + core correction, Zval = 16.0
     Generated by new atomic code, or converted to UPF format
     Using radial grid of  985 points,  6 beta functions with: 
                l(1) =   0
                l(2) =   0
                l(3) =   1
                l(4) =   1
                l(5) =   2
                l(6) =   2
     Q(r) pseudized with  8 coefficients,  rinner =    1.300   1.300   1.300
                                                       1.300   1.300

     atomic species   valence    mass     pseudopotential
        Al             3.00    26.98154     Al( 1.00)
        Ni            18.00    58.69340     Ni( 1.00)
        Pt            16.00   195.08400     Pt( 1.00)

     16 Sym. Ops., with inversion, found


                                    s                        frac. trans.

      isym =  1     identity                                     

 cryst.   s( 1) = (     1          0          0      )
                  (     0          1          0      )
                  (     0          0          1      )

 cart.    s( 1) = (  1.0000000  0.0000000  0.0000000 )
                  (  0.0000000  1.0000000  0.0000000 )
                  (  0.0000000  0.0000000  1.0000000 )


      isym =  2     180 deg rotation - cart. axis [0,0,1]        

 cryst.   s( 2) = (    -1          0          0      )
                  (     0         -1          0      )
                  (     0          0          1      )

 cart.    s( 2) = ( -1.0000000  0.0000000  0.0000000 )
                  (  0.0000000 -1.0000000  0.0000000 )
                  (  0.0000000  0.0000000  1.0000000 )


      isym =  3     180 deg rotation - cart. axis [0,1,0]        

 cryst.   s( 3) = (    -1          0          0      )
                  (     0          1          0      )
                  (     0          0         -1      )

 cart.    s( 3) = ( -1.0000000  0.0000000  0.0000000 )
                  (  0.0000000  1.0000000  0.0000000 )
                  (  0.0000000  0.0000000 -1.0000000 )


      isym =  4     180 deg rotation - cart. axis [1,0,0]        

 cryst.   s( 4) = (     1          0          0      )
                  (     0         -1          0      )
                  (     0          0         -1      )

 cart.    s( 4) = (  1.0000000  0.0000000  0.0000000 )
                  (  0.0000000 -1.0000000  0.0000000 )
                  (  0.0000000  0.0000000 -1.0000000 )


      isym =  5     180 deg rotation - cart. axis [1,1,0]        

 cryst.   s( 5) = (     0          1          0      )
                  (     1          0          0      )
                  (     0          0         -1      )

 cart.    s( 5) = (  0.0000000  1.0000000  0.0000000 )
                  (  1.0000000  0.0000000  0.0000000 )
                  (  0.0000000  0.0000000 -1.0000000 )


      isym =  6     180 deg rotation - cart. axis [1,-1,0]       

 cryst.   s( 6) = (     0         -1          0      )
                  (    -1          0          0      )
                  (     0          0         -1      )

 cart.    s( 6) = (  0.0000000 -1.0000000  0.0000000 )
                  ( -1.0000000  0.0000000  0.0000000 )
                  (  0.0000000  0.0000000 -1.0000000 )


      isym =  7      90 deg rotation - cart. axis [0,0,-1]       

 cryst.   s( 7) = (     0         -1          0      )
                  (     1          0          0      )
                  (     0          0          1      )

 cart.    s( 7) = (  0.0000000  1.0000000  0.0000000 )
                  ( -1.0000000  0.0000000  0.0000000 )
                  (  0.0000000  0.0000000  1.0000000 )


      isym =  8      90 deg rotation - cart. axis [0,0,1]        

 cryst.   s( 8) = (     0          1          0      )
                  (    -1          0          0      )
                  (     0          0          1      )

 cart.    s( 8) = (  0.0000000 -1.0000000  0.0000000 )
                  (  1.0000000  0.0000000  0.0000000 )
                  (  0.0000000  0.0000000  1.0000000 )


      isym =  9     inversion                                    

 cryst.   s( 9) = (    -1          0          0      )
                  (     0         -1          0      )
                  (     0          0         -1      )

 cart.    s( 9) = ( -1.0000000  0.0000000  0.0000000 )
                  (  0.0000000 -1.0000000  0.0000000 )
                  (  0.0000000  0.0000000 -1.0000000 )


      isym = 10     inv. 180 deg rotation - cart. axis [0,0,1]   

 cryst.   s(10) = (     1          0          0      )
                  (     0          1          0      )
                  (     0          0         -1      )

 cart.    s(10) = (  1.0000000  0.0000000  0.0000000 )
                  (  0.0000000  1.0000000  0.0000000 )
                  (  0.0000000  0.0000000 -1.0000000 )


      isym = 11     inv. 180 deg rotation - cart. axis [0,1,0]   

 cryst.   s(11) = (     1          0          0      )
                  (     0         -1          0      )
                  (     0          0          1      )

 cart.    s(11) = (  1.0000000  0.0000000  0.0000000 )
                  (  0.0000000 -1.0000000  0.0000000 )
                  (  0.0000000  0.0000000  1.0000000 )


      isym = 12     inv. 180 deg rotation - cart. axis [1,0,0]   

 cryst.   s(12) = (    -1          0          0      )
                  (     0          1          0      )
                  (     0          0          1      )

 cart.    s(12) = ( -1.0000000  0.0000000  0.0000000 )
                  (  0.0000000  1.0000000  0.0000000 )
                  (  0.0000000  0.0000000  1.0000000 )


      isym = 13     inv. 180 deg rotation - cart. axis [1,1,0]   

 cryst.   s(13) = (     0         -1          0      )
                  (    -1          0          0      )
                  (     0          0          1      )

 cart.    s(13) = (  0.0000000 -1.0000000  0.0000000 )
                  ( -1.0000000  0.0000000  0.0000000 )
                  (  0.0000000  0.0000000  1.0000000 )


      isym = 14     inv. 180 deg rotation - cart. axis [1,-1,0]  

 cryst.   s(14) = (     0          1          0      )
                  (     1          0          0      )
                  (     0          0          1      )

 cart.    s(14) = (  0.0000000  1.0000000  0.0000000 )
                  (  1.0000000  0.0000000  0.0000000 )
                  (  0.0000000  0.0000000  1.0000000 )


      isym = 15     inv.  90 deg rotation - cart. axis [0,0,-1]  

 cryst.   s(15) = (     0          1          0      )
                  (    -1          0          0      )
                  (     0          0         -1      )

 cart.    s(15) = (  0.0000000 -1.0000000  0.0000000 )
                  (  1.0000000  0.0000000  0.0000000 )
                  (  0.0000000  0.0000000 -1.0000000 )


      isym = 16     inv.  90 deg rotation - cart. axis [0,0,1]   

 cryst.   s(16) = (     0         -1          0      )
                  (     1          0          0      )
                  (     0          0         -1      )

 cart.    s(16) = (  0.0000000  1.0000000  0.0000000 )
                  ( -1.0000000  0.0000000  0.0000000 )
                  (  0.0000000  0.0000000 -1.0000000 )


   Cartesian axes

     site n.     atom                  positions (alat units)
         1           Al  tau(   1) = (   0.5000000   0.5000000   0.4591815  )
         2           Al  tau(   2) = (   0.5000000   0.5000000   1.5358979  )
         3           Ni  tau(   3) = (   0.0000000   0.0000000   0.0000000  )
         4           Pt  tau(   4) = (   0.0000000   0.0000000   0.9975397  )

   Crystallographic axes

     site n.     atom                  positions (cryst. coord.)
         1           Al  tau(   1) = (  0.5000000  0.5000000  0.2301570  )
         2           Al  tau(   2) = (  0.5000000  0.5000000  0.7698430  )
         3           Ni  tau(   3) = (  0.0000000  0.0000000  0.0000000  )
         4           Pt  tau(   4) = (  0.0000000  0.0000000  0.5000000  )

     number of k points=     6
                       cart. coord. in units 2pi/alat
        k(    1) = (   0.0000000   0.0000000   0.0000000), wk =   0.0740741
        k(    2) = (   0.0000000   0.0000000   0.1670777), wk =   0.1481481
        k(    3) = (   0.0000000   0.3333333   0.0000000), wk =   0.2962963
        k(    4) = (   0.0000000   0.3333333   0.1670777), wk =   0.5925926
        k(    5) = (   0.3333333   0.3333333   0.0000000), wk =   0.2962963
        k(    6) = (   0.3333333   0.3333333   0.1670777), wk =   0.5925926

                       cryst. coord.
        k(    1) = (   0.0000000   0.0000000   0.0000000), wk =   0.0740741
        k(    2) = (   0.0000000   0.0000000   0.3333333), wk =   0.1481481
        k(    3) = (   0.0000000   0.3333333   0.0000000), wk =   0.2962963
        k(    4) = (   0.0000000   0.3333333   0.3333333), wk =   0.5925926
        k(    5) = (   0.3333333   0.3333333   0.0000000), wk =   0.2962963
        k(    6) = (   0.3333333   0.3333333   0.3333333), wk =   0.5925926

     Dense  grid:    22807 G-vectors     FFT dimensions: (  27,  27,  60)

     Smooth grid:     8027 G-vectors     FFT dimensions: (  20,  20,  40)

     Dynamical RAM for                 wfc:       0.25 MB

     Dynamical RAM for     wfc (w. buffer):       0.98 MB

     Dynamical RAM for           str. fact:       0.26 MB

     Dynamical RAM for           local pot:       0.00 MB

     Dynamical RAM for          nlocal pot:       0.28 MB

     Dynamical RAM for                qrad:       3.73 MB

     Dynamical RAM for          rho,v,vnew:       0.51 MB

     Dynamical RAM for               rhoin:       0.17 MB

     Dynamical RAM for            rho*nmix:       1.39 MB

     Dynamical RAM for           G-vectors:       0.34 MB

     Dynamical RAM for          h,s,v(r/c):       0.19 MB

     Dynamical RAM for          <psi|beta>:       0.07 MB

     Dynamical RAM for                 psi:       0.49 MB

     Dynamical RAM for                hpsi:       0.49 MB

     Dynamical RAM for                spsi:       0.49 MB

     Dynamical RAM for      wfcinit/wfcrot:       0.59 MB

     Dynamical RAM for           addusdens:       8.22 MB

     Estimated static dynamical RAM per process >       7.04 MB

     Estimated max dynamical RAM per process >      16.65 MB

     Estimated total dynamical RAM >     127.66 MB

     Check: negative core charge=   -0.000003

     Initial potential from superposition of free atoms

     starting charge      37.4954, renormalised to      40.0000

     negative rho (up, down):  1.937E-01 0.000E+00
     Starting wfcs are   33 randomized atomic wfcs +   31 random wfcs
     Checking if some PAW data can be deallocated... 
       PAW data deallocated on    4 nodes for type:  1

     total cpu time spent up to now is        1.3 secs

     Self-consistent Calculation

     iteration #  1     ecut=    30.00 Ry     beta= 0.70
     Davidson diagonalization with overlap

---- Real-time Memory Report at c_bands before calling an iterative solver
           157 MiB given to the printing process from OS
             0 MiB allocation reported by mallinfo(arena+hblkhd)
         94895 MiB available memory on the node where the printing process lives
------------------
     ethr =  1.00E-02,  avg # of iterations =  6.8

     negative rho (up, down):  1.534E-01 0.000E+00

     total cpu time spent up to now is        1.7 secs

     total energy              =    -605.05229986 Ry
     estimated scf accuracy    <      41.39251810 Ry

     iteration #  2     ecut=    30.00 Ry     beta= 0.70
     Davidson diagonalization with overlap

---- Real-time Memory Report at c_bands before calling an iterative solver
           174 MiB given to the printing process from OS
             0 MiB allocation reported by mallinfo(arena+hblkhd)
         94789 MiB available memory on the node where the printing process lives
------------------
     ethr =  1.00E-02,  avg # of iterations =  4.8

     negative rho (up, down):  2.093E-02 0.000E+00

     total cpu time spent up to now is        2.1 secs

     total energy              =    -625.08608224 Ry
     estimated scf accuracy    <      86.12168070 Ry

     iteration #  3     ecut=    30.00 Ry     beta= 0.70
     Davidson diagonalization with overlap

---- Real-time Memory Report at c_bands before calling an iterative solver
           176 MiB given to the printing process from OS
             0 MiB allocation reported by mallinfo(arena+hblkhd)
         94776 MiB available memory on the node where the printing process lives
------------------
     ethr =  1.00E-02,  avg # of iterations =  2.8

     negative rho (up, down):  5.327E-02 0.000E+00

     total cpu time spent up to now is        2.4 secs

     total energy              =    -634.07319957 Ry
     estimated scf accuracy    <      11.78408801 Ry

     iteration #  4     ecut=    30.00 Ry     beta= 0.70
     Davidson diagonalization with overlap

---- Real-time Memory Report at c_bands before calling an iterative solver
           176 MiB given to the printing process from OS
             0 MiB allocation reported by mallinfo(arena+hblkhd)
         94776 MiB available memory on the node where the printing process lives
------------------
     ethr =  1.00E-02,  avg # of iterations =  1.2

     negative rho (up, down):  9.780E-02 0.000E+00

     total cpu time spent up to now is        2.6 secs

     total energy              =    -633.42082773 Ry
     estimated scf accuracy    <       5.82772633 Ry

     iteration #  5     ecut=    30.00 Ry     beta= 0.70
     Davidson diagonalization with overlap

---- Real-time Memory Report at c_bands before calling an iterative solver
           176 MiB given to the printing process from OS
             0 MiB allocation reported by mallinfo(arena+hblkhd)
         94776 MiB available memory on the node where the printing process lives
------------------
     ethr =  1.00E-02,  avg # of iterations =  1.3

     negative rho (up, down):  1.122E-01 0.000E+00

     total cpu time spent up to now is        2.8 secs

     total energy              =    -633.31120893 Ry
     estimated scf accuracy    <       2.65909940 Ry

     iteration #  6     ecut=    30.00 Ry     beta= 0.70
     Davidson diagonalization with overlap

---- Real-time Memory Report at c_bands before calling an iterative solver
           176 MiB given to the printing process from OS
             0 MiB allocation reported by mallinfo(arena+hblkhd)
         94776 MiB available memory on the node where the printing process lives
------------------
     ethr =  6.65E-03,  avg # of iterations =  1.0

     negative rho (up, down):  1.814E-01 0.000E+00

     total cpu time spent up to now is        3.0 secs

     total energy              =    -632.58509478 Ry
     estimated scf accuracy    <       1.53905193 Ry

     iteration #  7     ecut=    30.00 Ry     beta= 0.70
     Davidson diagonalization with overlap

---- Real-time Memory Report at c_bands before calling an iterative solver
           176 MiB given to the printing process from OS
             0 MiB allocation reported by mallinfo(arena+hblkhd)
         94777 MiB available memory on the node where the printing process lives
------------------
     ethr =  3.85E-03,  avg # of iterations =  1.0

     negative rho (up, down):  1.751E-01 0.000E+00

     total cpu time spent up to now is        3.3 secs

     total energy              =    -633.15300618 Ry
     estimated scf accuracy    <       5.83831996 Ry

     iteration #  8     ecut=    30.00 Ry     beta= 0.70
     Davidson diagonalization with overlap

---- Real-time Memory Report at c_bands before calling an iterative solver
           176 MiB given to the printing process from OS
             0 MiB allocation reported by mallinfo(arena+hblkhd)
         94775 MiB available memory on the node where the printing process lives
------------------
     ethr =  3.85E-03,  avg # of iterations =  1.0

     negative rho (up, down):  1.926E-01 0.000E+00

     total cpu time spent up to now is        3.5 secs

     total energy              =    -633.29845571 Ry
     estimated scf accuracy    <       2.89196778 Ry

     iteration #  9     ecut=    30.00 Ry     beta= 0.70
     Davidson diagonalization with overlap

---- Real-time Memory Report at c_bands before calling an iterative solver
           176 MiB given to the printing process from OS
             0 MiB allocation reported by mallinfo(arena+hblkhd)
         94775 MiB available memory on the node where the printing process lives
------------------
     ethr =  3.85E-03,  avg # of iterations =  1.0

     negative rho (up, down):  1.764E-01 0.000E+00

     total cpu time spent up to now is        3.7 secs

     total energy              =    -632.84258578 Ry
     estimated scf accuracy    <       4.56894932 Ry

     iteration # 10     ecut=    30.00 Ry     beta= 0.70
     Davidson diagonalization with overlap

---- Real-time Memory Report at c_bands before calling an iterative solver
           176 MiB given to the printing process from OS
             0 MiB allocation reported by mallinfo(arena+hblkhd)
         94776 MiB available memory on the node where the printing process lives
------------------
     ethr =  3.85E-03,  avg # of iterations =  1.0

     negative rho (up, down):  1.737E-01 0.000E+00

     total cpu time spent up to now is        3.9 secs

     total energy              =    -633.01194763 Ry
     estimated scf accuracy    <       0.06620506 Ry

     iteration # 11     ecut=    30.00 Ry     beta= 0.70
     Davidson diagonalization with overlap

---- Real-time Memory Report at c_bands before calling an iterative solver
           176 MiB given to the printing process from OS
             0 MiB allocation reported by mallinfo(arena+hblkhd)
         94775 MiB available memory on the node where the printing process lives
------------------
     ethr =  1.66E-04,  avg # of iterations =  1.0

     negative rho (up, down):  1.741E-01 0.000E+00

     total cpu time spent up to now is        4.1 secs

     total energy              =    -633.01558011 Ry
     estimated scf accuracy    <       0.01668509 Ry

     iteration # 12     ecut=    30.00 Ry     beta= 0.70
     Davidson diagonalization with overlap

---- Real-time Memory Report at c_bands before calling an iterative solver
           177 MiB given to the printing process from OS
             0 MiB allocation reported by mallinfo(arena+hblkhd)
         94776 MiB available memory on the node where the printing process lives
------------------
     ethr =  4.17E-05,  avg # of iterations =  1.5

     negative rho (up, down):  1.743E-01 0.000E+00

     total cpu time spent up to now is        4.3 secs

     total energy              =    -633.01305249 Ry
     estimated scf accuracy    <       0.01409493 Ry

     iteration # 13     ecut=    30.00 Ry     beta= 0.70
     Davidson diagonalization with overlap

---- Real-time Memory Report at c_bands before calling an iterative solver
           177 MiB given to the printing process from OS
             0 MiB allocation reported by mallinfo(arena+hblkhd)
         94775 MiB available memory on the node where the printing process lives
------------------
     ethr =  3.52E-05,  avg # of iterations =  1.0

     negative rho (up, down):  1.744E-01 0.000E+00

     total cpu time spent up to now is        4.6 secs

     total energy              =    -633.01262018 Ry
     estimated scf accuracy    <       0.01180742 Ry

     iteration # 14     ecut=    30.00 Ry     beta= 0.70
     Davidson diagonalization with overlap

---- Real-time Memory Report at c_bands before calling an iterative solver
           177 MiB given to the printing process from OS
             0 MiB allocation reported by mallinfo(arena+hblkhd)
         94776 MiB available memory on the node where the printing process lives
------------------
     ethr =  2.95E-05,  avg # of iterations =  2.3

     negative rho (up, down):  1.743E-01 0.000E+00

     total cpu time spent up to now is        4.8 secs

     total energy              =    -633.01290225 Ry
     estimated scf accuracy    <       0.00134591 Ry

     iteration # 15     ecut=    30.00 Ry     beta= 0.70
     Davidson diagonalization with overlap

---- Real-time Memory Report at c_bands before calling an iterative solver
           177 MiB given to the printing process from OS
             0 MiB allocation reported by mallinfo(arena+hblkhd)
         94776 MiB available memory on the node where the printing process lives
------------------
     ethr =  3.36E-06,  avg # of iterations =  3.7

     negative rho (up, down):  1.744E-01 0.000E+00

     total cpu time spent up to now is        5.0 secs

     total energy              =    -633.01276754 Ry
     estimated scf accuracy    <       0.00046338 Ry

     iteration # 16     ecut=    30.00 Ry     beta= 0.70
     Davidson diagonalization with overlap

---- Real-time Memory Report at c_bands before calling an iterative solver
           177 MiB given to the printing process from OS
             0 MiB allocation reported by mallinfo(arena+hblkhd)
         94776 MiB available memory on the node where the printing process lives
------------------
     ethr =  1.16E-06,  avg # of iterations =  1.8

     negative rho (up, down):  1.745E-01 0.000E+00

     total cpu time spent up to now is        5.2 secs

     total energy              =    -633.01283250 Ry
     estimated scf accuracy    <       0.00003111 Ry

     iteration # 17     ecut=    30.00 Ry     beta= 0.70
     Davidson diagonalization with overlap

---- Real-time Memory Report at c_bands before calling an iterative solver
           177 MiB given to the printing process from OS
             0 MiB allocation reported by mallinfo(arena+hblkhd)
         94776 MiB available memory on the node where the printing process lives
------------------
     ethr =  7.78E-08,  avg # of iterations =  1.0

     negative rho (up, down):  1.745E-01 0.000E+00

     total cpu time spent up to now is        5.5 secs

     total energy              =    -633.01283678 Ry
     estimated scf accuracy    <       0.00000263 Ry

     iteration # 18     ecut=    30.00 Ry     beta= 0.70
     Davidson diagonalization with overlap

---- Real-time Memory Report at c_bands before calling an iterative solver
           177 MiB given to the printing process from OS
             0 MiB allocation reported by mallinfo(arena+hblkhd)
         94776 MiB available memory on the node where the printing process lives
------------------
     ethr =  6.56E-09,  avg # of iterations =  1.0

     negative rho (up, down):  1.745E-01 0.000E+00

     total cpu time spent up to now is        5.7 secs

     total energy              =    -633.01283626 Ry
     estimated scf accuracy    <       0.00000280 Ry

     iteration # 19     ecut=    30.00 Ry     beta= 0.70
     Davidson diagonalization with overlap

---- Real-time Memory Report at c_bands before calling an iterative solver
           177 MiB given to the printing process from OS
             0 MiB allocation reported by mallinfo(arena+hblkhd)
         94778 MiB available memory on the node where the printing process lives
------------------
     ethr =  6.56E-09,  avg # of iterations =  1.0

     negative rho (up, down):  1.745E-01 0.000E+00

     total cpu time spent up to now is        6.0 secs

     End of self-consistent calculation

          k = 0.0000 0.0000 0.0000 (   983 PWs)   bands (ev):

   -88.3466 -48.7491 -48.7491 -48.5232 -38.4904 -38.4904 -38.4508   3.7798
     7.4783   8.2966   9.2483  10.7478  11.4820  11.4820  12.4336  12.4486
    13.5674  13.5674  13.6571  14.5473  19.7199  19.7199  19.7445  22.3043
    23.3689  23.8044  24.3185  24.3185  25.6016  25.6016  26.2435  27.7553
    28.8346  32.1772  33.7514  34.7676  35.0126  35.0126  35.0763  35.0763
    35.1405  37.7129  38.2662  38.2662  39.5202  39.6371  40.8416  42.2214
    42.2214  42.4544  42.4544  42.8122  43.4182  43.4684  46.6125  46.7977
    50.8221  50.8221  50.8923  52.8390  52.9031  52.9031  53.1181  55.4288

     occupation numbers 
     1.0000   1.0000   1.0000   1.0000   1.0000   1.0000   1.0000   1.0000
     1.0000   1.0000   1.0000   1.0000   1.0000   1.0000   1.0000   1.0000
     1.0000   1.0000   1.0000   1.0000   0.0000   0.0000   0.0000   0.0000
     0.0000   0.0000   0.0000   0.0000   0.0000   0.0000   0.0000   0.0000
     0.0000   0.0000   0.0000   0.0000   0.0000   0.0000   0.0000   0.0000
     0.0000   0.0000   0.0000   0.0000   0.0000   0.0000   0.0000   0.0000
     0.0000   0.0000   0.0000   0.0000   0.0000   0.0000   0.0000   0.0000
     0.0000   0.0000   0.0000   0.0000   0.0000   0.0000   0.0000   0.0000

          k = 0.0000 0.0000 0.1671 (   988 PWs)   bands (ev):

   -88.3471 -48.7478 -48.7478 -48.5307 -38.4904 -38.4904 -38.4508   4.2229
     5.8816   9.2579   9.3049  11.4635  11.5372  11.5372  12.4197  12.4368
    13.4225  13.4225  13.6727  14.9183  17.4084  20.4610  20.4610  22.2007
    22.3123  22.3123  23.7259  24.5476  26.2795  28.0893  28.0893  29.3054
    31.0207  31.0490  31.5805  31.5805  33.6240  34.2178  35.0178  35.6184
    35.7371  36.9508  36.9508  39.0796  39.0796  40.5557  41.2006  41.2006
    42.7553  42.8185  44.3148  44.3562  44.9563  44.9563  47.7623  47.7623
    47.9211  48.7636  50.1564  50.4391  52.0262  52.0262  53.9898  54.7588

     occupation numbers 
     1.0000   1.0000   1.0000   1.0000   1.0000   1.0000   1.0000   1.0000
     1.0000   1.0000   1.0000   1.0000   1.0000   1.0000   1.0000   1.0000
     1.0000   1.0000   1.0000   1.0000   0.0000   0.0000   0.0000   0.0000
     0.0000   0.0000   0.0000   0.0000   0.0000   0.0000   0.0000   0.0000
     0.0000   0.0000   0.0000   0.0000   0.0000   0.0000   0.0000   0.0000
     0.0000   0.0000   0.0000   0.0000   0.0000   0.0000   0.0000   0.0000
     0.0000   0.0000   0.0000   0.0000   0.0000   0.0000   0.0000   0.0000
     0.0000   0.0000   0.0000   0.0000   0.0000   0.0000   0.0000   0.0000

          k = 0.0000 0.3333 0.0000 (  1012 PWs)   bands (ev):

   -88.3494 -48.7793 -48.7564 -48.5236 -38.5699 -38.4839 -38.4434   5.7473
     8.2106   8.9882   9.8287  11.0637  11.3039  11.7148  11.7525  12.3084
    12.9590  13.1309  13.6483  14.4064  14.8300  17.9121  19.0153  22.2422
    22.3416  22.6404  25.3324  26.2120  26.8483  27.4993  27.9944  28.1560
    29.0094  30.8065  30.8473  32.0092  32.3448  34.1542  34.4389  35.3113
    35.9379  38.1698  38.9354  38.9770  40.1796  42.3658  42.7393  42.9436
    43.9954  44.6369  45.0095  46.4658  46.7206  46.8997  47.9687  48.1868
    48.9264  49.9204  50.1329  51.8323  52.2890  52.7641  53.9418  53.9737

     occupation numbers 
     1.0000   1.0000   1.0000   1.0000   1.0000   1.0000   1.0000   1.0000
     1.0000   1.0000   1.0000   1.0000   1.0000   1.0000   1.0000   1.0000
     1.0000   1.0000   1.0000   1.0000   0.0000   0.0000   0.0000   0.0000
     0.0000   0.0000   0.0000   0.0000   0.0000   0.0000   0.0000   0.0000
     0.0000   0.0000   0.0000   0.0000   0.0000   0.0000   0.0000   0.0000
     0.0000   0.0000   0.0000   0.0000   0.0000   0.0000   0.0000   0.0000
     0.0000   0.0000   0.0000   0.0000   0.0000   0.0000   0.0000   0.0000
     0.0000   0.0000   0.0000   0.0000   0.0000   0.0000   0.0000   0.0000

          k = 0.0000 0.3333 0.1671 (  1006 PWs)   bands (ev):

   -88.3482 -48.7708 -48.7564 -48.5219 -38.5698 -38.4839 -38.4433   6.1610
     7.2933   9.4754   9.8895  10.5154  11.3086  11.7714  11.8898  12.6327
    12.7794  13.1386  13.5232  14.8903  15.3924  17.2098  19.3639  20.9879
    22.8356  23.1485  24.4585  25.4729  26.7629  27.7545  28.5784  28.8286
    29.8610  30.7374  31.2125  32.2624  32.4946  33.1524  33.8852  35.3657
    37.2603  37.7146  38.6623  39.7919  40.1067  41.1552  42.1555  42.9900
    43.1702  43.2650  44.6213  46.3492  46.7140  47.6745  48.5339  49.2073
    49.2986  50.3110  50.5954  51.4323  52.0863  52.8899  53.7447  54.8707

     occupation numbers 
     1.0000   1.0000   1.0000   1.0000   1.0000   1.0000   1.0000   1.0000
     1.0000   1.0000   1.0000   1.0000   1.0000   1.0000   1.0000   1.0000
     1.0000   1.0000   1.0000   1.0000   0.0000   0.0000   0.0000   0.0000
     0.0000   0.0000   0.0000   0.0000   0.0000   0.0000   0.0000   0.0000
     0.0000   0.0000   0.0000   0.0000   0.0000   0.0000   0.0000   0.0000
     0.0000   0.0000   0.0000   0.0000   0.0000   0.0000   0.0000   0.0000
     0.0000   0.0000   0.0000   0.0000   0.0000   0.0000   0.0000   0.0000
     0.0000   0.0000   0.0000   0.0000   0.0000   0.0000   0.0000   0.0000

          k = 0.3333 0.3333 0.0000 (  1001 PWs)   bands (ev):

   -88.3462 -48.7608 -48.7600 -48.5248 -38.5626 -38.5618 -38.4362   7.2911
     8.8425   9.2356   9.7401  10.9544  11.1321  11.5889  12.7956  12.9733
    13.0409  13.1930  14.7736  14.9118  15.0152  17.3308  18.5714  19.2401
    20.1220  20.4996  21.5352  23.4224  25.0554  26.0086  26.6501  28.6174
    29.8460  31.0500  32.2788  33.1748  35.3328  36.8804  37.7228  38.2686
    38.2961  38.6909  40.1516  41.1342  41.4128  42.7684  43.0322  43.0938
    43.6442  45.7263  46.5667  46.6815  47.2956  47.3204  47.9567  48.4761
    50.3129  50.6156  50.9702  51.2014  52.1560  52.6654  53.1225  53.1268

     occupation numbers 
     1.0000   1.0000   1.0000   1.0000   1.0000   1.0000   1.0000   1.0000
     1.0000   1.0000   1.0000   1.0000   1.0000   1.0000   1.0000   1.0000
     1.0000   1.0000   1.0000   1.0000   0.0000   0.0000   0.0000   0.0000
     0.0000   0.0000   0.0000   0.0000   0.0000   0.0000   0.0000   0.0000
     0.0000   0.0000   0.0000   0.0000   0.0000   0.0000   0.0000   0.0000
     0.0000   0.0000   0.0000   0.0000   0.0000   0.0000   0.0000   0.0000
     0.0000   0.0000   0.0000   0.0000   0.0000   0.0000   0.0000   0.0000
     0.0000   0.0000   0.0000   0.0000   0.0000   0.0000   0.0000   0.0000

          k = 0.3333 0.3333 0.1671 (  1011 PWs)   bands (ev):

   -88.3475 -48.7691 -48.7670 -48.5211 -38.5627 -38.5619 -38.4362   7.5785
     8.3095   9.7040   9.7442  10.9875  11.1277  11.4952  12.4732  12.7581
    13.0486  13.1358  13.4237  15.6572  16.8402  17.4579  18.0325  18.2491
    20.7788  21.2417  22.5856  22.8417  22.9883  25.7767  26.4376  28.8106
    29.8270  32.8491  33.4950  34.4692  34.6735  34.9538  35.6153  38.7964
    39.3891  39.6634  39.7351  40.5430  41.7642  42.0156  42.8958  43.6666
    43.9530  44.5373  44.9718  45.8763  47.1067  47.4160  47.9709  48.7484
    49.5278  50.4880  51.8762  52.0551  53.2105  53.4983  53.9648  54.6759

     occupation numbers 
     1.0000   1.0000   1.0000   1.0000   1.0000   1.0000   1.0000   1.0000
     1.0000   1.0000   1.0000   1.0000   1.0000   1.0000   1.0000   1.0000
     1.0000   1.0000   1.0000   1.0000   0.0000   0.0000   0.0000   0.0000
     0.0000   0.0000   0.0000   0.0000   0.0000   0.0000   0.0000   0.0000
     0.0000   0.0000   0.0000   0.0000   0.0000   0.0000   0.0000   0.0000
     0.0000   0.0000   0.0000   0.0000   0.0000   0.0000   0.0000   0.0000
     0.0000   0.0000   0.0000   0.0000   0.0000   0.0000   0.0000   0.0000
     0.0000   0.0000   0.0000   0.0000   0.0000   0.0000   0.0000   0.0000

     highest occupied, lowest unoccupied level (ev):    15.6572   14.8300

!    total energy              =    -633.01283650 Ry
     estimated scf accuracy    <          8.3E-09 Ry

     The total energy is the sum of the following terms:
     one-electron contribution =    -325.53823546 Ry
     hartree contribution      =     186.94718164 Ry
     xc contribution           =     -97.85707995 Ry
     ewald contribution        =    -327.21505810 Ry
     one-center paw contrib.   =     -69.34964463 Ry
      -> PAW hartree energy AE =       1.54145205 Ry
      -> PAW hartree energy PS =      -1.53697492 Ry
      -> PAW xc energy AE      =     -36.64585917 Ry
      -> PAW xc energy PS      =       1.96655973 Ry
      -> total E_H with PAW    =     186.95165877 Ry
      -> total E_XC with PAW   =    -132.53637939 Ry

     convergence has been achieved in  19 iterations

     Writing all to output data dir calculations_bands/myprefix.save/
 
     init_run     :      3.53s CPU      1.05s WALL (       1 calls)
     electrons    :     17.76s CPU      4.68s WALL (       1 calls)

     Called by init_run:
     wfcinit      :      0.17s CPU      0.05s WALL (       1 calls)
     wfcinit:atom :      0.00s CPU      0.00s WALL (       3 calls)
     wfcinit:wfcr :      0.16s CPU      0.05s WALL (       3 calls)
     potinit      :      1.35s CPU      0.36s WALL (       1 calls)
     hinit0       :      1.59s CPU      0.49s WALL (       1 calls)

     Called by electrons:
     c_bands      :      8.26s CPU      2.15s WALL (      19 calls)
     sum_band     :      2.66s CPU      0.69s WALL (      19 calls)
     v_of_rho     :      0.28s CPU      0.07s WALL (      20 calls)
     v_h          :      0.03s CPU      0.01s WALL (      20 calls)
     v_xc         :      0.25s CPU      0.07s WALL (      20 calls)
     newd         :      1.95s CPU      0.54s WALL (      20 calls)
     PAW_pot      :      4.54s CPU      1.19s WALL (      20 calls)
     mix_rho      :      0.08s CPU      0.02s WALL (      19 calls)

     Called by c_bands:
     init_us_2    :      0.08s CPU      0.02s WALL (     117 calls)
     init_us_2:cp :      0.07s CPU      0.02s WALL (     117 calls)
     cegterg      :      7.25s CPU      1.88s WALL (      57 calls)

     Called by sum_band:
     sum_band:wei :      0.06s CPU      0.02s WALL (      19 calls)
     sum_band:loo :      1.05s CPU      0.27s WALL (      19 calls)
     sum_band:buf :      0.01s CPU      0.00s WALL (      57 calls)
     sum_band:ini :      0.04s CPU      0.01s WALL (      57 calls)
     sum_band:cal :      0.06s CPU      0.02s WALL (      57 calls)
     sum_band:bec :      0.01s CPU      0.00s WALL (      57 calls)
     addusdens    :      1.33s CPU      0.34s WALL (      19 calls)
     addusd:skk   :      0.00s CPU      0.00s WALL (      57 calls)
     addusd:dgemm :      0.14s CPU      0.04s WALL (      57 calls)
     addusd:qvan2 :      0.86s CPU      0.22s WALL (      57 calls)

     Called by *egterg:
     cdiaghg      :      2.47s CPU      0.64s WALL (     172 calls)
     cegterg:over :      0.26s CPU      0.07s WALL (     115 calls)
     cegterg:upda :      0.13s CPU      0.03s WALL (     115 calls)
     cegterg:last :      0.13s CPU      0.03s WALL (      81 calls)
     cdiaghg:chol :      0.18s CPU      0.05s WALL (     172 calls)
     cdiaghg:inve :      0.03s CPU      0.01s WALL (     172 calls)
     cdiaghg:para :      0.38s CPU      0.10s WALL (     344 calls)
     h_psi        :      4.21s CPU      1.09s WALL (     175 calls)
     s_psi        :      0.06s CPU      0.01s WALL (     175 calls)
     g_psi        :      0.01s CPU      0.00s WALL (     115 calls)

     Called by h_psi:
     h_psi:calbec :      0.16s CPU      0.04s WALL (     175 calls)
     vloc_psi     :      3.95s CPU      1.02s WALL (     175 calls)
     add_vuspsi   :      0.07s CPU      0.02s WALL (     175 calls)

     General routines
     calbec       :      0.21s CPU      0.06s WALL (     232 calls)
     fft          :      0.86s CPU      0.23s WALL (     258 calls)
     ffts         :      0.76s CPU      0.20s WALL (      39 calls)
     fftw         :      3.79s CPU      0.98s WALL (   20418 calls)
     interpolate  :      0.78s CPU      0.21s WALL (      20 calls)
 
     Parallel routines

     PAW routines
     PAW_pot      :      4.54s CPU      1.19s WALL (      20 calls)
     PAW_symme    :      0.04s CPU      0.01s WALL (      39 calls)
 
     PWSCF        :     22.06s CPU      6.20s WALL

 
   This run was terminated on:  18:24:37   5Jun2023            

=------------------------------------------------------------------------------=
   JOB DONE.
=------------------------------------------------------------------------------=
