
     Program PWSCF v.7.0 starts on  7Jun2023 at 12:24:45 

     This program is part of the open-source Quantum ESPRESSO suite
     for quantum simulation of materials; please cite
         "P. Giannozzi et al., J. Phys.:Condens. Matter 21 395502 (2009);
         "P. Giannozzi et al., J. Phys.:Condens. Matter 29 465901 (2017);
         "P. Giannozzi et al., J. Chem. Phys. 152 154105 (2020);
          URL http://www.quantum-espresso.org", 
     in publications or presentations arising from this work. More details at
     http://www.quantum-espresso.org/quote

     Parallel version (MPI & OpenMP), running on      32 processor cores
     Number of MPI processes:                 8
     Threads/MPI process:                     4

     MPI processes distributed on     1 nodes
     K-points division:     npool     =       2
     R & G space division:  proc/nbgrp/npool/nimage =       4
     86339 MiB available memory on the printing compute node when the environment starts
 
     Reading input from espresso_8818.pwi
Warning: card &CELL ignored
Warning: card / ignored

     Current dimensions of program PWSCF are:
     Max number of different atomic species (ntypx) = 10
     Max number of k-points (npk) =  40000
     Max angular momentum in pseudopotentials (lmaxx) =  4
     file Nb.pbe-spn-kjpaw_psl.0.3.0.UPF: wavefunction(s)  4S 4P renormalized
     file O.pbe-n-kjpaw_psl.0.1.UPF: wavefunction(s)  2P renormalized
     Message from routine setup:
     using ibrav=0 with symmetry is DISCOURAGED, use correct ibrav instead

     Subspace diagonalization in iterative solution of the eigenvalue problem:
     one sub-group per band group will be used
     scalapack distributed-memory algorithm (size of sub-group:  2*  2 procs)

 
     Parallelization info
     --------------------
     sticks:   dense  smooth     PW     G-vecs:    dense   smooth      PW
     Min         475     238     67                13650     4833     743
     Max         478     239     69                13651     4836     744
     Sum        1903     955    271                54601    19339    2975
 
     Using Slab Decomposition
 


     bravais-lattice index     =            0
     lattice parameter (alat)  =      10.7115  a.u.
     unit-cell volume          =     869.0279 (a.u.)^3
     number of atoms/cell      =           10
     number of atomic types    =            5
     number of electrons       =        90.00
     number of Kohn-Sham states=           64
     kinetic-energy cutoff     =      30.0000  Ry
     charge density cutoff     =     240.0000  Ry
     scf convergence threshold =      1.0E-06
     mixing beta               =       0.7000
     number of iterations used =            8  plain     mixing
     Exchange-correlation= SLA  PW   PBX  PBC
                           (   1   4   3   4   0   0   0)

     celldm(1)=  10.711482  celldm(2)=   0.000000  celldm(3)=   0.000000
     celldm(4)=   0.000000  celldm(5)=   0.000000  celldm(6)=   0.000000

     crystal axes: (cart. coord. in units of alat)
               a(1) = (   1.000000   0.000000   0.000000 )  
               a(2) = (   0.500000   0.866025   0.000000 )  
               a(3) = (   0.500000   0.288675   0.816497 )  

     reciprocal axes: (cart. coord. in units 2 pi/alat)
               b(1) = (  1.000000 -0.577350 -0.408248 )  
               b(2) = (  0.000000  1.154701 -0.408248 )  
               b(3) = (  0.000000  0.000000  1.224745 )  


     PseudoPot. # 1 for Sr read from file:
     /home/pragov/projects/rrg-bengioy-ad/pragov/crystal_structure_design/SSSP/Sr_pbe_v1.uspp.F.UPF
     MD5 check sum: 6b418c05fbe9db5448babca5e47b7a5b
     Pseudo is Ultrasoft + core correction, Zval = 10.0
     Generated by new atomic code, or converted to UPF format
     Using radial grid of  883 points,  6 beta functions with: 
                l(1) =   0
                l(2) =   0
                l(3) =   1
                l(4) =   1
                l(5) =   2
                l(6) =   2
     Q(r) pseudized with  6 coefficients,  rinner =    1.400   1.400   1.400
                                                       1.400   1.400

     PseudoPot. # 2 for Eu read from file:
     /home/pragov/projects/rrg-bengioy-ad/pragov/crystal_structure_design/SSSP/Eu.GGA-PBE-paw-v1.0.UPF
     MD5 check sum: acec5fd9176fb57ec8e299eae1ecaf48
     Pseudo is Projector augmented-wave + core cor, Zval = 17.0
     Generated using ATOMPAW code
     Shape of augmentation charge: BESSEL
     Using radial grid of 1109 points,  8 beta functions with: 
                l(1) =   0
                l(2) =   0
                l(3) =   1
                l(4) =   1
                l(5) =   2
                l(6) =   2
                l(7) =   3
                l(8) =   3
     Q(r) pseudized with 0 coefficients 


     PseudoPot. # 3 for Nb read from file:
     /home/pragov/projects/rrg-bengioy-ad/pragov/crystal_structure_design/SSSP/Nb.pbe-spn-kjpaw_psl.0.3.0.UPF
     MD5 check sum: 411d72ad547312f8017e2943ceca08cc
     Pseudo is Projector augmented-wave + core cor, Zval = 13.0
     Generated using "atomic" code by A. Dal Corso  v.5.0.99 svn rev. 10869
     Shape of augmentation charge: PSQ
     Using radial grid of 1227 points,  6 beta functions with: 
                l(1) =   0
                l(2) =   0
                l(3) =   1
                l(4) =   1
                l(5) =   2
                l(6) =   2
     Q(r) pseudized with 0 coefficients 


     PseudoPot. # 4 for Cr read from file:
     /home/pragov/projects/rrg-bengioy-ad/pragov/crystal_structure_design/SSSP/cr_pbe_v1.5.uspp.F.UPF
     MD5 check sum: 0d52af634a40206e4dee301ad30da4bf
     Pseudo is Ultrasoft + core correction, Zval = 14.0
     Generated by new atomic code, or converted to UPF format
     Using radial grid of  857 points,  6 beta functions with: 
                l(1) =   0
                l(2) =   0
                l(3) =   1
                l(4) =   1
                l(5) =   2
                l(6) =   2
     Q(r) pseudized with  8 coefficients,  rinner =    0.950   0.950   0.950
                                                       0.950   0.950

     PseudoPot. # 5 for O  read from file:
     /home/pragov/projects/rrg-bengioy-ad/pragov/crystal_structure_design/SSSP/O.pbe-n-kjpaw_psl.0.1.UPF
     MD5 check sum: 0234752ac141de4415c5fc33072bef88
     Pseudo is Projector augmented-wave + core cor, Zval =  6.0
     Generated using "atomic" code by A. Dal Corso  v.5.0.99 svn rev. 10869
     Shape of augmentation charge: BESSEL
     Using radial grid of 1095 points,  4 beta functions with: 
                l(1) =   0
                l(2) =   0
                l(3) =   1
                l(4) =   1
     Q(r) pseudized with 0 coefficients 


     atomic species   valence    mass     pseudopotential
        Sr            10.00    87.62000     Sr( 1.00)
        Eu            17.00   151.96400     Eu( 1.00)
        Nb            13.00    92.90637     Nb( 1.00)
        Cr            14.00    51.99610     Cr( 1.00)
        O              6.00    15.99900     O ( 1.00)

      6 Sym. Ops. (no inversion) found


                                    s                        frac. trans.

      isym =  1     identity                                     

 cryst.   s( 1) = (     1          0          0      )
                  (     0          1          0      )
                  (     0          0          1      )

 cart.    s( 1) = (  1.0000000  0.0000000  0.0000000 )
                  (  0.0000000  1.0000000 -0.0000000 )
                  (  0.0000000  0.0000000  1.0000000 )


      isym =  2     120 deg rotation - cryst. axis [0,0,1]       

 cryst.   s( 2) = (    -1          1          0      )
                  (    -1          0          0      )
                  (    -1          0          1      )

 cart.    s( 2) = ( -0.5000000 -0.8660254 -0.0000000 )
                  (  0.8660254 -0.5000000 -0.0000000 )
                  (  0.0000000  0.0000000  1.0000000 )


      isym =  3     120 deg rotation - cryst. axis [0,0,-1]      

 cryst.   s( 3) = (     0         -1          0      )
                  (     1         -1          0      )
                  (     0         -1          1      )

 cart.    s( 3) = ( -0.5000000  0.8660254  0.0000000 )
                  ( -0.8660254 -0.5000000 -0.0000000 )
                  (  0.0000000  0.0000000  1.0000000 )


      isym =  4     inv. 180 deg rotation - cart. axis [1,0,0]   

 cryst.   s( 4) = (    -1          0          0      )
                  (    -1          1          0      )
                  (    -1          0          1      )

 cart.    s( 4) = ( -1.0000000  0.0000000  0.0000000 )
                  (  0.0000000  1.0000000 -0.0000000 )
                  (  0.0000000  0.0000000  1.0000000 )


      isym =  5     inv. 180 deg rotation - cryst. axis [0,1,0]  

 cryst.   s( 5) = (     0          1          0      )
                  (     1          0          0      )
                  (     0          0          1      )

 cart.    s( 5) = (  0.5000000  0.8660254  0.0000000 )
                  (  0.8660254 -0.5000000 -0.0000000 )
                  (  0.0000000  0.0000000  1.0000000 )


      isym =  6     inv. 180 deg rotation - cryst. axis [1,1,0]  

 cryst.   s( 6) = (     1         -1          0      )
                  (     0         -1          0      )
                  (     0         -1          1      )

 cart.    s( 6) = (  0.5000000 -0.8660254 -0.0000000 )
                  ( -0.8660254 -0.5000000 -0.0000000 )
                  (  0.0000000  0.0000000  1.0000000 )


   Cartesian axes

     site n.     atom                  positions (alat units)
         1           Sr  tau(   1) = (   1.5000000   0.8660254   0.6123724  )
         2           Eu  tau(   2) = (   0.5000000   0.2886751   0.2041241  )
         3           Nb  tau(   3) = (   1.0000000   0.5773503   0.4082483  )
         4           Cr  tau(   4) = (   0.0000000   0.0000000   0.0000000  )
         5           O   tau(   5) = (   1.0000000   0.2873545   0.2031903  )
         6           O   tau(   6) = (   1.0000000   0.8673460   0.6133063  )
         7           O   tau(   7) = (   1.2511437   0.4323524   0.6133063  )
         8           O   tau(   8) = (   0.7488563   0.7223482   0.2031903  )
         9           O   tau(   9) = (   1.2511437   0.7223482   0.2031903  )
        10           O   tau(  10) = (   0.7488563   0.4323524   0.6133063  )

   Crystallographic axes

     site n.     atom                  positions (cryst. coord.)
         1           Sr  tau(   1) = (  0.7500000  0.7500000  0.7500000  )
         2           Eu  tau(   2) = (  0.2500000  0.2500000  0.2500000  )
         3           Nb  tau(   3) = (  0.5000000  0.5000000  0.5000000  )
         4           Cr  tau(   4) = (  0.0000000  0.0000000  0.0000000  )
         5           O   tau(   5) = (  0.7511437  0.2488563  0.2488563  )
         6           O   tau(   6) = (  0.2488563  0.7511437  0.7511437  )
         7           O   tau(   7) = (  0.7511437  0.2488563  0.7511437  )
         8           O   tau(   8) = (  0.2488563  0.7511437  0.2488563  )
         9           O   tau(   9) = (  0.7511437  0.7511437  0.2488563  )
        10           O   tau(  10) = (  0.2488563  0.2488563  0.7511437  )

     number of k points=     6
                       cart. coord. in units 2pi/alat
        k(    1) = (   0.0000000   0.0000000   0.0000000), wk =   0.0740741
        k(    2) = (   0.0000000   0.0000000   0.4082483), wk =   0.1481481
        k(    3) = (   0.0000000   0.3849002  -0.1360828), wk =   0.4444444
        k(    4) = (   0.0000000   0.3849002   0.2721655), wk =   0.4444444
        k(    5) = (   0.0000000   0.3849002  -0.5443311), wk =   0.4444444
        k(    6) = (   0.3333333  -0.5773503  -0.0000000), wk =   0.4444444

                       cryst. coord.
        k(    1) = (   0.0000000   0.0000000   0.0000000), wk =   0.0740741
        k(    2) = (   0.0000000   0.0000000   0.3333333), wk =   0.1481481
        k(    3) = (   0.0000000   0.3333333  -0.0000000), wk =   0.4444444
        k(    4) = (   0.0000000   0.3333333   0.3333333), wk =   0.4444444
        k(    5) = (   0.0000000   0.3333333  -0.3333333), wk =   0.4444444
        k(    6) = (   0.3333333  -0.3333333   0.0000000), wk =   0.4444444

     Dense  grid:    54601 G-vectors     FFT dimensions: (  54,  54,  54)

     Smooth grid:    19339 G-vectors     FFT dimensions: (  40,  40,  40)

     Dynamical RAM for                 wfc:       0.59 MB

     Dynamical RAM for     wfc (w. buffer):       2.35 MB

     Dynamical RAM for           str. fact:       1.04 MB

     Dynamical RAM for           local pot:       0.00 MB

     Dynamical RAM for          nlocal pot:       1.23 MB

     Dynamical RAM for                qrad:      14.93 MB

     Dynamical RAM for          rho,v,vnew:       1.56 MB

     Dynamical RAM for               rhoin:       0.52 MB

     Dynamical RAM for            rho*nmix:       3.33 MB

     Dynamical RAM for           G-vectors:       0.82 MB

     Dynamical RAM for          h,s,v(r/c):       0.19 MB

     Dynamical RAM for          <psi|beta>:       0.13 MB

     Dynamical RAM for                 psi:       1.18 MB

     Dynamical RAM for                hpsi:       1.18 MB

     Dynamical RAM for                spsi:       1.18 MB

     Dynamical RAM for      wfcinit/wfcrot:       1.82 MB

     Dynamical RAM for           addusdens:      58.53 MB

     Estimated static dynamical RAM per process >      25.26 MB

     Estimated max dynamical RAM per process >      87.12 MB

     Estimated total dynamical RAM >     683.61 MB

     Check: negative core charge=   -0.000017

     Initial potential from superposition of free atoms

     starting charge      88.9595, renormalised to      90.0000

     negative rho (up, down):  6.488E-02 0.000E+00
     Starting wfcs are   89 randomized atomic wfcs
     Checking if some PAW data can be deallocated... 
       PAW data deallocated on    7 nodes for type:  2
       PAW data deallocated on    7 nodes for type:  3
       PAW data deallocated on    2 nodes for type:  5

     total cpu time spent up to now is        2.7 secs

     Self-consistent Calculation

     iteration #  1     ecut=    30.00 Ry     beta= 0.70
     Davidson diagonalization with overlap

---- Real-time Memory Report at c_bands before calling an iterative solver
           242 MiB given to the printing process from OS
             0 MiB allocation reported by mallinfo(arena+hblkhd)
         85440 MiB available memory on the node where the printing process lives
------------------
     ethr =  1.00E-02,  avg # of iterations =  2.0

     negative rho (up, down):  6.309E-02 0.000E+00

     total cpu time spent up to now is        3.4 secs

     total energy              =   -1455.35970831 Ry
     estimated scf accuracy    <      19.40112009 Ry

     iteration #  2     ecut=    30.00 Ry     beta= 0.70
     Davidson diagonalization with overlap

---- Real-time Memory Report at c_bands before calling an iterative solver
           299 MiB given to the printing process from OS
             0 MiB allocation reported by mallinfo(arena+hblkhd)
         85191 MiB available memory on the node where the printing process lives
------------------
     ethr =  1.00E-02,  avg # of iterations =  6.3

     negative rho (up, down):  6.369E-02 0.000E+00

     total cpu time spent up to now is        4.4 secs

     total energy              =   -1457.26170852 Ry
     estimated scf accuracy    <     307.87472740 Ry

     iteration #  3     ecut=    30.00 Ry     beta= 0.70
     Davidson diagonalization with overlap

---- Real-time Memory Report at c_bands before calling an iterative solver
           307 MiB given to the printing process from OS
             0 MiB allocation reported by mallinfo(arena+hblkhd)
         85130 MiB available memory on the node where the printing process lives
------------------
     ethr =  1.00E-02,  avg # of iterations =  4.0

     negative rho (up, down):  6.464E-02 0.000E+00

     total cpu time spent up to now is        5.3 secs

     total energy              =   -1474.07261814 Ry
     estimated scf accuracy    <      22.95347336 Ry

     iteration #  4     ecut=    30.00 Ry     beta= 0.70
     Davidson diagonalization with overlap

---- Real-time Memory Report at c_bands before calling an iterative solver
           307 MiB given to the printing process from OS
             0 MiB allocation reported by mallinfo(arena+hblkhd)
         85125 MiB available memory on the node where the printing process lives
------------------
     ethr =  1.00E-02,  avg # of iterations =  2.2

     negative rho (up, down):  6.477E-02 0.000E+00

     total cpu time spent up to now is        6.0 secs

     total energy              =   -1471.83120289 Ry
     estimated scf accuracy    <      18.55385379 Ry

     iteration #  5     ecut=    30.00 Ry     beta= 0.70
     Davidson diagonalization with overlap

---- Real-time Memory Report at c_bands before calling an iterative solver
           311 MiB given to the printing process from OS
             0 MiB allocation reported by mallinfo(arena+hblkhd)
         85118 MiB available memory on the node where the printing process lives
------------------
     ethr =  1.00E-02,  avg # of iterations =  2.0

     negative rho (up, down):  6.515E-02 0.000E+00

     total cpu time spent up to now is        6.7 secs

     total energy              =   -1475.10135865 Ry
     estimated scf accuracy    <      48.23956235 Ry

     iteration #  6     ecut=    30.00 Ry     beta= 0.70
     Davidson diagonalization with overlap

---- Real-time Memory Report at c_bands before calling an iterative solver
           329 MiB given to the printing process from OS
             0 MiB allocation reported by mallinfo(arena+hblkhd)
         85118 MiB available memory on the node where the printing process lives
------------------
     ethr =  1.00E-02,  avg # of iterations =  1.0

     negative rho (up, down):  6.611E-02 0.000E+00

     total cpu time spent up to now is        7.6 secs

     total energy              =   -1473.71509690 Ry
     estimated scf accuracy    <      32.20122450 Ry

     iteration #  7     ecut=    30.00 Ry     beta= 0.70
     Davidson diagonalization with overlap

---- Real-time Memory Report at c_bands before calling an iterative solver
           329 MiB given to the printing process from OS
             0 MiB allocation reported by mallinfo(arena+hblkhd)
         85155 MiB available memory on the node where the printing process lives
------------------
     ethr =  1.00E-02,  avg # of iterations =  3.0

     negative rho (up, down):  6.658E-02 0.000E+00

     total cpu time spent up to now is        8.7 secs

     total energy              =   -1472.45756550 Ry
     estimated scf accuracy    <      26.67845407 Ry

     iteration #  8     ecut=    30.00 Ry     beta= 0.70
     Davidson diagonalization with overlap

---- Real-time Memory Report at c_bands before calling an iterative solver
           329 MiB given to the printing process from OS
             0 MiB allocation reported by mallinfo(arena+hblkhd)
         85141 MiB available memory on the node where the printing process lives
------------------
     ethr =  1.00E-02,  avg # of iterations =  1.3

     negative rho (up, down):  6.653E-02 0.000E+00

     total cpu time spent up to now is        9.4 secs

     total energy              =   -1472.39081538 Ry
     estimated scf accuracy    <       9.52546490 Ry

     iteration #  9     ecut=    30.00 Ry     beta= 0.70
     Davidson diagonalization with overlap

---- Real-time Memory Report at c_bands before calling an iterative solver
           330 MiB given to the printing process from OS
             0 MiB allocation reported by mallinfo(arena+hblkhd)
         85115 MiB available memory on the node where the printing process lives
------------------
     ethr =  1.00E-02,  avg # of iterations =  1.0

     negative rho (up, down):  6.673E-02 0.000E+00

     total cpu time spent up to now is       10.1 secs

     total energy              =   -1472.65952036 Ry
     estimated scf accuracy    <      10.73953502 Ry

     iteration # 10     ecut=    30.00 Ry     beta= 0.70
     Davidson diagonalization with overlap

---- Real-time Memory Report at c_bands before calling an iterative solver
           330 MiB given to the printing process from OS
             0 MiB allocation reported by mallinfo(arena+hblkhd)
         85138 MiB available memory on the node where the printing process lives
------------------
     ethr =  1.00E-02,  avg # of iterations =  1.0

     negative rho (up, down):  6.720E-02 0.000E+00

     total cpu time spent up to now is       10.8 secs

     total energy              =   -1472.52667826 Ry
     estimated scf accuracy    <       2.95020826 Ry

     iteration # 11     ecut=    30.00 Ry     beta= 0.70
     Davidson diagonalization with overlap

---- Real-time Memory Report at c_bands before calling an iterative solver
           330 MiB given to the printing process from OS
             0 MiB allocation reported by mallinfo(arena+hblkhd)
         85120 MiB available memory on the node where the printing process lives
------------------
     ethr =  3.28E-03,  avg # of iterations =  1.0

     negative rho (up, down):  6.719E-02 0.000E+00

     total cpu time spent up to now is       11.5 secs

     total energy              =   -1472.70984845 Ry
     estimated scf accuracy    <       9.58088984 Ry

     iteration # 12     ecut=    30.00 Ry     beta= 0.70
     Davidson diagonalization with overlap

---- Real-time Memory Report at c_bands before calling an iterative solver
           330 MiB given to the printing process from OS
             0 MiB allocation reported by mallinfo(arena+hblkhd)
         85158 MiB available memory on the node where the printing process lives
------------------
     ethr =  3.28E-03,  avg # of iterations =  1.0

     negative rho (up, down):  6.711E-02 0.000E+00

     total cpu time spent up to now is       12.2 secs

     total energy              =   -1472.53273302 Ry
     estimated scf accuracy    <       8.29082716 Ry

     iteration # 13     ecut=    30.00 Ry     beta= 0.70
     Davidson diagonalization with overlap

---- Real-time Memory Report at c_bands before calling an iterative solver
           330 MiB given to the printing process from OS
             0 MiB allocation reported by mallinfo(arena+hblkhd)
         85121 MiB available memory on the node where the printing process lives
------------------
     ethr =  3.28E-03,  avg # of iterations =  1.0

     negative rho (up, down):  6.719E-02 0.000E+00

     total cpu time spent up to now is       12.9 secs

     total energy              =   -1472.54610368 Ry
     estimated scf accuracy    <       0.30127554 Ry

     iteration # 14     ecut=    30.00 Ry     beta= 0.70
     Davidson diagonalization with overlap

---- Real-time Memory Report at c_bands before calling an iterative solver
           330 MiB given to the printing process from OS
             0 MiB allocation reported by mallinfo(arena+hblkhd)
         85143 MiB available memory on the node where the printing process lives
------------------
     ethr =  3.35E-04,  avg # of iterations =  3.0

     negative rho (up, down):  6.721E-02 0.000E+00

     total cpu time spent up to now is       13.6 secs

     total energy              =   -1472.48371071 Ry
     estimated scf accuracy    <       3.62218123 Ry

     iteration # 15     ecut=    30.00 Ry     beta= 0.70
     Davidson diagonalization with overlap

---- Real-time Memory Report at c_bands before calling an iterative solver
           330 MiB given to the printing process from OS
             0 MiB allocation reported by mallinfo(arena+hblkhd)
         85123 MiB available memory on the node where the printing process lives
------------------
     ethr =  3.35E-04,  avg # of iterations =  1.3

     negative rho (up, down):  6.720E-02 0.000E+00

     total cpu time spent up to now is       14.3 secs

     total energy              =   -1472.55397662 Ry
     estimated scf accuracy    <       0.18673383 Ry

     iteration # 16     ecut=    30.00 Ry     beta= 0.70
     Davidson diagonalization with overlap

---- Real-time Memory Report at c_bands before calling an iterative solver
           330 MiB given to the printing process from OS
             0 MiB allocation reported by mallinfo(arena+hblkhd)
         85140 MiB available memory on the node where the printing process lives
------------------
     ethr =  2.07E-04,  avg # of iterations =  1.2

     negative rho (up, down):  6.721E-02 0.000E+00

     total cpu time spent up to now is       15.0 secs

     total energy              =   -1472.56266086 Ry
     estimated scf accuracy    <       2.42200838 Ry

     iteration # 17     ecut=    30.00 Ry     beta= 0.70
     Davidson diagonalization with overlap

---- Real-time Memory Report at c_bands before calling an iterative solver
           330 MiB given to the printing process from OS
             0 MiB allocation reported by mallinfo(arena+hblkhd)
         85123 MiB available memory on the node where the printing process lives
------------------
     ethr =  2.07E-04,  avg # of iterations =  1.3

     negative rho (up, down):  6.721E-02 0.000E+00

     total cpu time spent up to now is       15.8 secs

     total energy              =   -1472.57151613 Ry
     estimated scf accuracy    <       0.05491231 Ry

     iteration # 18     ecut=    30.00 Ry     beta= 0.70
     Davidson diagonalization with overlap

---- Real-time Memory Report at c_bands before calling an iterative solver
           330 MiB given to the printing process from OS
             0 MiB allocation reported by mallinfo(arena+hblkhd)
         85122 MiB available memory on the node where the printing process lives
------------------
     ethr =  6.10E-05,  avg # of iterations =  3.3

     negative rho (up, down):  6.720E-02 0.000E+00

     total cpu time spent up to now is       16.5 secs

     total energy              =   -1472.56064929 Ry
     estimated scf accuracy    <       0.87014154 Ry

     iteration # 19     ecut=    30.00 Ry     beta= 0.70
     Davidson diagonalization with overlap

---- Real-time Memory Report at c_bands before calling an iterative solver
           330 MiB given to the printing process from OS
             0 MiB allocation reported by mallinfo(arena+hblkhd)
         85125 MiB available memory on the node where the printing process lives
------------------
     ethr =  6.10E-05,  avg # of iterations =  1.7

     negative rho (up, down):  6.722E-02 0.000E+00

     total cpu time spent up to now is       17.2 secs

     total energy              =   -1472.57326611 Ry
     estimated scf accuracy    <       0.08502936 Ry

     iteration # 20     ecut=    30.00 Ry     beta= 0.70
     Davidson diagonalization with overlap

---- Real-time Memory Report at c_bands before calling an iterative solver
           330 MiB given to the printing process from OS
             0 MiB allocation reported by mallinfo(arena+hblkhd)
         85127 MiB available memory on the node where the printing process lives
------------------
     ethr =  6.10E-05,  avg # of iterations =  1.3

     negative rho (up, down):  6.722E-02 0.000E+00

     total cpu time spent up to now is       17.9 secs

     total energy              =   -1472.57377379 Ry
     estimated scf accuracy    <       0.04468943 Ry

     iteration # 21     ecut=    30.00 Ry     beta= 0.70
     Davidson diagonalization with overlap

---- Real-time Memory Report at c_bands before calling an iterative solver
           330 MiB given to the printing process from OS
             0 MiB allocation reported by mallinfo(arena+hblkhd)
         85128 MiB available memory on the node where the printing process lives
------------------
     ethr =  4.97E-05,  avg # of iterations =  1.2

     negative rho (up, down):  6.725E-02 0.000E+00

     total cpu time spent up to now is       18.6 secs

     total energy              =   -1472.57708983 Ry
     estimated scf accuracy    <       0.00697130 Ry

     iteration # 22     ecut=    30.00 Ry     beta= 0.70
     Davidson diagonalization with overlap

---- Real-time Memory Report at c_bands before calling an iterative solver
           330 MiB given to the printing process from OS
             0 MiB allocation reported by mallinfo(arena+hblkhd)
         85145 MiB available memory on the node where the printing process lives
------------------
     ethr =  7.75E-06,  avg # of iterations =  6.8

     negative rho (up, down):  6.726E-02 0.000E+00

     total cpu time spent up to now is       19.4 secs

     total energy              =   -1472.57786543 Ry
     estimated scf accuracy    <       0.00252932 Ry

     iteration # 23     ecut=    30.00 Ry     beta= 0.70
     Davidson diagonalization with overlap

---- Real-time Memory Report at c_bands before calling an iterative solver
           330 MiB given to the printing process from OS
             0 MiB allocation reported by mallinfo(arena+hblkhd)
         85182 MiB available memory on the node where the printing process lives
------------------
     ethr =  2.81E-06,  avg # of iterations =  1.3

     negative rho (up, down):  6.726E-02 0.000E+00

     total cpu time spent up to now is       20.1 secs

     total energy              =   -1472.57780971 Ry
     estimated scf accuracy    <       0.00296824 Ry

     iteration # 24     ecut=    30.00 Ry     beta= 0.70
     Davidson diagonalization with overlap

---- Real-time Memory Report at c_bands before calling an iterative solver
           330 MiB given to the printing process from OS
             0 MiB allocation reported by mallinfo(arena+hblkhd)
         85161 MiB available memory on the node where the printing process lives
------------------
     ethr =  2.81E-06,  avg # of iterations =  1.3

     negative rho (up, down):  6.727E-02 0.000E+00

     total cpu time spent up to now is       20.8 secs

     total energy              =   -1472.57739912 Ry
     estimated scf accuracy    <       0.00492916 Ry

     iteration # 25     ecut=    30.00 Ry     beta= 0.70
     Davidson diagonalization with overlap

---- Real-time Memory Report at c_bands before calling an iterative solver
           330 MiB given to the printing process from OS
             0 MiB allocation reported by mallinfo(arena+hblkhd)
         85144 MiB available memory on the node where the printing process lives
------------------
     ethr =  2.81E-06,  avg # of iterations =  3.5

     negative rho (up, down):  6.727E-02 0.000E+00

     total cpu time spent up to now is       21.6 secs

     total energy              =   -1472.57725371 Ry
     estimated scf accuracy    <       0.00249733 Ry

     iteration # 26     ecut=    30.00 Ry     beta= 0.70
     Davidson diagonalization with overlap

---- Real-time Memory Report at c_bands before calling an iterative solver
           330 MiB given to the printing process from OS
             0 MiB allocation reported by mallinfo(arena+hblkhd)
         85145 MiB available memory on the node where the printing process lives
------------------
     ethr =  2.77E-06,  avg # of iterations =  1.0

     negative rho (up, down):  6.727E-02 0.000E+00

     total cpu time spent up to now is       22.2 secs

     total energy              =   -1472.57716265 Ry
     estimated scf accuracy    <       0.00421247 Ry

     iteration # 27     ecut=    30.00 Ry     beta= 0.70
     Davidson diagonalization with overlap

---- Real-time Memory Report at c_bands before calling an iterative solver
           330 MiB given to the printing process from OS
             0 MiB allocation reported by mallinfo(arena+hblkhd)
         85163 MiB available memory on the node where the printing process lives
------------------
     ethr =  2.77E-06,  avg # of iterations =  1.0

     negative rho (up, down):  6.727E-02 0.000E+00

     total cpu time spent up to now is       22.9 secs

     total energy              =   -1472.57718628 Ry
     estimated scf accuracy    <       0.00160812 Ry

     iteration # 28     ecut=    30.00 Ry     beta= 0.70
     Davidson diagonalization with overlap

---- Real-time Memory Report at c_bands before calling an iterative solver
           330 MiB given to the printing process from OS
             0 MiB allocation reported by mallinfo(arena+hblkhd)
         85145 MiB available memory on the node where the printing process lives
------------------
     ethr =  1.79E-06,  avg # of iterations =  1.0

     negative rho (up, down):  6.727E-02 0.000E+00

     total cpu time spent up to now is       23.6 secs

     total energy              =   -1472.57725463 Ry
     estimated scf accuracy    <       0.00015533 Ry

     iteration # 29     ecut=    30.00 Ry     beta= 0.70
     Davidson diagonalization with overlap

---- Real-time Memory Report at c_bands before calling an iterative solver
           330 MiB given to the printing process from OS
             0 MiB allocation reported by mallinfo(arena+hblkhd)
         85148 MiB available memory on the node where the printing process lives
------------------
     ethr =  1.73E-07,  avg # of iterations =  1.5

     negative rho (up, down):  6.727E-02 0.000E+00

     total cpu time spent up to now is       24.4 secs

     total energy              =   -1472.57724350 Ry
     estimated scf accuracy    <       0.00050880 Ry

     iteration # 30     ecut=    30.00 Ry     beta= 0.70
     Davidson diagonalization with overlap

---- Real-time Memory Report at c_bands before calling an iterative solver
           330 MiB given to the printing process from OS
             0 MiB allocation reported by mallinfo(arena+hblkhd)
         85146 MiB available memory on the node where the printing process lives
------------------
     ethr =  1.73E-07,  avg # of iterations =  1.0

     negative rho (up, down):  6.727E-02 0.000E+00

     total cpu time spent up to now is       25.4 secs

     total energy              =   -1472.57721877 Ry
     estimated scf accuracy    <       0.00014636 Ry

     iteration # 31     ecut=    30.00 Ry     beta= 0.70
     Davidson diagonalization with overlap

---- Real-time Memory Report at c_bands before calling an iterative solver
           330 MiB given to the printing process from OS
             0 MiB allocation reported by mallinfo(arena+hblkhd)
         85146 MiB available memory on the node where the printing process lives
------------------
     ethr =  1.63E-07,  avg # of iterations =  1.0

     negative rho (up, down):  6.727E-02 0.000E+00

     total cpu time spent up to now is       26.5 secs

     total energy              =   -1472.57727814 Ry
     estimated scf accuracy    <       0.00025255 Ry

     iteration # 32     ecut=    30.00 Ry     beta= 0.70
     Davidson diagonalization with overlap

---- Real-time Memory Report at c_bands before calling an iterative solver
           330 MiB given to the printing process from OS
             0 MiB allocation reported by mallinfo(arena+hblkhd)
         85146 MiB available memory on the node where the printing process lives
------------------
     ethr =  1.63E-07,  avg # of iterations =  1.0

     negative rho (up, down):  6.727E-02 0.000E+00

     total cpu time spent up to now is       27.2 secs

     total energy              =   -1472.57728920 Ry
     estimated scf accuracy    <       0.00008568 Ry

     iteration # 33     ecut=    30.00 Ry     beta= 0.70
     Davidson diagonalization with overlap

---- Real-time Memory Report at c_bands before calling an iterative solver
           330 MiB given to the printing process from OS
             0 MiB allocation reported by mallinfo(arena+hblkhd)
         85147 MiB available memory on the node where the printing process lives
------------------
     ethr =  9.52E-08,  avg # of iterations =  1.0

     negative rho (up, down):  6.727E-02 0.000E+00

     total cpu time spent up to now is       27.9 secs

     total energy              =   -1472.57729059 Ry
     estimated scf accuracy    <       0.00008857 Ry

     iteration # 34     ecut=    30.00 Ry     beta= 0.70
     Davidson diagonalization with overlap

---- Real-time Memory Report at c_bands before calling an iterative solver
           330 MiB given to the printing process from OS
             0 MiB allocation reported by mallinfo(arena+hblkhd)
         85165 MiB available memory on the node where the printing process lives
------------------
     ethr =  9.52E-08,  avg # of iterations =  1.0

     negative rho (up, down):  6.727E-02 0.000E+00

     total cpu time spent up to now is       28.6 secs

     total energy              =   -1472.57726659 Ry
     estimated scf accuracy    <       0.00005019 Ry

     iteration # 35     ecut=    30.00 Ry     beta= 0.70
     Davidson diagonalization with overlap

---- Real-time Memory Report at c_bands before calling an iterative solver
           330 MiB given to the printing process from OS
             0 MiB allocation reported by mallinfo(arena+hblkhd)
         85148 MiB available memory on the node where the printing process lives
------------------
     ethr =  5.58E-08,  avg # of iterations =  2.0

     negative rho (up, down):  6.727E-02 0.000E+00

     total cpu time spent up to now is       29.3 secs

     total energy              =   -1472.57731573 Ry
     estimated scf accuracy    <       0.00000810 Ry

     iteration # 36     ecut=    30.00 Ry     beta= 0.70
     Davidson diagonalization with overlap

---- Real-time Memory Report at c_bands before calling an iterative solver
           330 MiB given to the printing process from OS
             0 MiB allocation reported by mallinfo(arena+hblkhd)
         85171 MiB available memory on the node where the printing process lives
------------------
     ethr =  9.00E-09,  avg # of iterations =  2.0

     negative rho (up, down):  6.727E-02 0.000E+00

     total cpu time spent up to now is       30.0 secs

     total energy              =   -1472.57731334 Ry
     estimated scf accuracy    <       0.00000489 Ry

     iteration # 37     ecut=    30.00 Ry     beta= 0.70
     Davidson diagonalization with overlap

---- Real-time Memory Report at c_bands before calling an iterative solver
           330 MiB given to the printing process from OS
             0 MiB allocation reported by mallinfo(arena+hblkhd)
         85136 MiB available memory on the node where the printing process lives
------------------
     ethr =  5.44E-09,  avg # of iterations =  2.2

     negative rho (up, down):  6.727E-02 0.000E+00

     total cpu time spent up to now is       30.7 secs

     total energy              =   -1472.57730718 Ry
     estimated scf accuracy    <       0.00000150 Ry

     iteration # 38     ecut=    30.00 Ry     beta= 0.70
     Davidson diagonalization with overlap

---- Real-time Memory Report at c_bands before calling an iterative solver
           330 MiB given to the printing process from OS
             0 MiB allocation reported by mallinfo(arena+hblkhd)
         85132 MiB available memory on the node where the printing process lives
------------------
     ethr =  1.67E-09,  avg # of iterations =  2.2

     negative rho (up, down):  6.727E-02 0.000E+00

     total cpu time spent up to now is       31.4 secs

     total energy              =   -1472.57730715 Ry
     estimated scf accuracy    <       0.00000142 Ry

     iteration # 39     ecut=    30.00 Ry     beta= 0.70
     Davidson diagonalization with overlap

---- Real-time Memory Report at c_bands before calling an iterative solver
           330 MiB given to the printing process from OS
             0 MiB allocation reported by mallinfo(arena+hblkhd)
         85131 MiB available memory on the node where the printing process lives
------------------
     ethr =  1.58E-09,  avg # of iterations =  2.0

     negative rho (up, down):  6.727E-02 0.000E+00

     total cpu time spent up to now is       32.4 secs

     total energy              =   -1472.57731192 Ry
     estimated scf accuracy    <       0.00000232 Ry

     iteration # 40     ecut=    30.00 Ry     beta= 0.70
     Davidson diagonalization with overlap

---- Real-time Memory Report at c_bands before calling an iterative solver
           330 MiB given to the printing process from OS
             0 MiB allocation reported by mallinfo(arena+hblkhd)
         85131 MiB available memory on the node where the printing process lives
------------------
     ethr =  1.58E-09,  avg # of iterations =  2.0

     negative rho (up, down):  6.727E-02 0.000E+00

     total cpu time spent up to now is       33.1 secs

     total energy              =   -1472.57731518 Ry
     estimated scf accuracy    <       0.00000542 Ry

     iteration # 41     ecut=    30.00 Ry     beta= 0.70
     Davidson diagonalization with overlap

---- Real-time Memory Report at c_bands before calling an iterative solver
           330 MiB given to the printing process from OS
             0 MiB allocation reported by mallinfo(arena+hblkhd)
         85131 MiB available memory on the node where the printing process lives
------------------
     ethr =  1.58E-09,  avg # of iterations =  2.2

     negative rho (up, down):  6.727E-02 0.000E+00

     total cpu time spent up to now is       33.8 secs

     total energy              =   -1472.57725976 Ry
     estimated scf accuracy    <       0.00000425 Ry

     iteration # 42     ecut=    30.00 Ry     beta= 0.70
     Davidson diagonalization with overlap

---- Real-time Memory Report at c_bands before calling an iterative solver
           330 MiB given to the printing process from OS
             0 MiB allocation reported by mallinfo(arena+hblkhd)
         85149 MiB available memory on the node where the printing process lives
------------------
     ethr =  1.58E-09,  avg # of iterations =  4.0

     negative rho (up, down):  6.727E-02 0.000E+00

     total cpu time spent up to now is       34.5 secs

     total energy              =   -1472.57730806 Ry
     estimated scf accuracy    <       0.00000201 Ry

     iteration # 43     ecut=    30.00 Ry     beta= 0.70
     Davidson diagonalization with overlap

---- Real-time Memory Report at c_bands before calling an iterative solver
           330 MiB given to the printing process from OS
             0 MiB allocation reported by mallinfo(arena+hblkhd)
         85131 MiB available memory on the node where the printing process lives
------------------
     ethr =  1.58E-09,  avg # of iterations =  3.2

     negative rho (up, down):  6.727E-02 0.000E+00

     total cpu time spent up to now is       35.3 secs

     total energy              =   -1472.57733160 Ry
     estimated scf accuracy    <       0.00000565 Ry

     iteration # 44     ecut=    30.00 Ry     beta= 0.70
     Davidson diagonalization with overlap

---- Real-time Memory Report at c_bands before calling an iterative solver
           330 MiB given to the printing process from OS
             0 MiB allocation reported by mallinfo(arena+hblkhd)
         85153 MiB available memory on the node where the printing process lives
------------------
     ethr =  1.58E-09,  avg # of iterations =  1.0

     negative rho (up, down):  6.727E-02 0.000E+00

     total cpu time spent up to now is       35.9 secs

     total energy              =   -1472.57732958 Ry
     estimated scf accuracy    <       0.00000440 Ry

     iteration # 45     ecut=    30.00 Ry     beta= 0.70
     Davidson diagonalization with overlap

---- Real-time Memory Report at c_bands before calling an iterative solver
           330 MiB given to the printing process from OS
             0 MiB allocation reported by mallinfo(arena+hblkhd)
         85132 MiB available memory on the node where the printing process lives
------------------
     ethr =  1.58E-09,  avg # of iterations =  2.0

     negative rho (up, down):  6.727E-02 0.000E+00

     total cpu time spent up to now is       36.6 secs

     total energy              =   -1472.57730905 Ry
     estimated scf accuracy    <       0.00000345 Ry

     iteration # 46     ecut=    30.00 Ry     beta= 0.70
     Davidson diagonalization with overlap

---- Real-time Memory Report at c_bands before calling an iterative solver
           330 MiB given to the printing process from OS
             0 MiB allocation reported by mallinfo(arena+hblkhd)
         85133 MiB available memory on the node where the printing process lives
------------------
     ethr =  1.58E-09,  avg # of iterations =  3.2

     negative rho (up, down):  6.727E-02 0.000E+00

     total cpu time spent up to now is       37.4 secs

     total energy              =   -1472.57728941 Ry
     estimated scf accuracy    <       0.00000966 Ry

     iteration # 47     ecut=    30.00 Ry     beta= 0.70
     Davidson diagonalization with overlap

---- Real-time Memory Report at c_bands before calling an iterative solver
           330 MiB given to the printing process from OS
             0 MiB allocation reported by mallinfo(arena+hblkhd)
         85131 MiB available memory on the node where the printing process lives
------------------
     ethr =  1.58E-09,  avg # of iterations =  3.2

     negative rho (up, down):  6.727E-02 0.000E+00

     total cpu time spent up to now is       38.1 secs

     total energy              =   -1472.57732292 Ry
     estimated scf accuracy    <       0.00000190 Ry

     iteration # 48     ecut=    30.00 Ry     beta= 0.70
     Davidson diagonalization with overlap

---- Real-time Memory Report at c_bands before calling an iterative solver
           330 MiB given to the printing process from OS
             0 MiB allocation reported by mallinfo(arena+hblkhd)
         85149 MiB available memory on the node where the printing process lives
------------------
     ethr =  1.58E-09,  avg # of iterations =  2.3

     negative rho (up, down):  6.727E-02 0.000E+00

     total cpu time spent up to now is       38.8 secs

     End of self-consistent calculation

          k = 0.0000 0.0000 0.0000 (  2421 PWs)   bands (ev):

   -59.5300 -43.7231 -30.8648 -30.8648 -30.8434 -28.3961 -22.3508 -19.9342
   -19.9342 -19.9316  -7.3870  -7.3054  -7.3054  -6.9365  -6.1289  -6.1289
    -5.6785  -5.6785  -5.6784  -4.4451  -4.4451  -4.4439   5.8260   6.2113
     6.2113   6.6710   6.6737   6.6737   7.7631   7.7633   7.7633   9.2159
     9.2159   9.2197   9.9218   9.9226   9.9226  10.3282  10.3282  10.3304
    12.0504  12.0504  12.0576  12.7448  13.0235  13.0493  13.0493  13.2875
    13.2875  13.4793  14.2789  14.2789  14.9112  14.9112  14.9139  15.0655
    15.0655  15.5218  16.2985  16.3159  16.3159  18.4010  18.4049  18.4049

     occupation numbers 
     1.0000   1.0000   1.0000   1.0000   1.0000   1.0000   1.0000   1.0000
     1.0000   1.0000   1.0000   1.0000   1.0000   1.0000   1.0000   1.0000
     1.0000   1.0000   1.0000   1.0000   1.0000   1.0000   1.0000   1.0000
     1.0000   1.0000   1.0000   1.0000   1.0000   1.0000   1.0000   1.0000
     1.0000   1.0000   1.0000   1.0000   1.0000   1.0000   1.0000   1.0000
     1.0000   1.0000   1.0000   1.0000   1.0000   0.0000   0.0000   0.0000
     0.0000   0.0000   0.0000   0.0000   0.0000   0.0000   0.0000   0.0000
     0.0000   0.0000   0.0000   0.0000   0.0000   0.0000   0.0000   0.0000

          k = 0.0000 0.0000 0.4082 (  2424 PWs)   bands (ev):

   -59.5300 -43.7231 -30.8653 -30.8653 -30.8435 -28.3959 -22.3509 -19.9344
   -19.9344 -19.9310  -7.6798  -7.3680  -7.3680  -6.6310  -6.1354  -6.1354
    -5.8504  -5.6402  -5.6402  -4.3474  -4.3474  -4.1420   6.2459   6.4734
     6.4734   6.7751   6.9779   6.9779   7.0977   7.6834   7.6834   8.2061
     8.2061   8.5392   9.4120   9.4120   9.4604   9.7700   9.7700  10.0305
    12.5885  12.7942  12.7942  12.8902  13.0306  13.0394  13.0394  13.1999
    13.1999  13.4787  14.5393  14.5393  14.5410  15.1541  15.1541  16.1551
    16.1551  16.4770  17.1815  17.1815  17.3466  18.4202  18.4202  18.6740

     occupation numbers 
     1.0000   1.0000   1.0000   1.0000   1.0000   1.0000   1.0000   1.0000
     1.0000   1.0000   1.0000   1.0000   1.0000   1.0000   1.0000   1.0000
     1.0000   1.0000   1.0000   1.0000   1.0000   1.0000   1.0000   1.0000
     1.0000   1.0000   1.0000   1.0000   1.0000   1.0000   1.0000   1.0000
     1.0000   1.0000   1.0000   1.0000   1.0000   1.0000   1.0000   1.0000
     1.0000   1.0000   1.0000   1.0000   1.0000   0.0000   0.0000   0.0000
     0.0000   0.0000   0.0000   0.0000   0.0000   0.0000   0.0000   0.0000
     0.0000   0.0000   0.0000   0.0000   0.0000   0.0000   0.0000   0.0000

          k = 0.0000 0.3849-0.1361 (  2424 PWs)   bands (ev):

   -59.5300 -43.7231 -30.8653 -30.8649 -30.8439 -28.3959 -22.3509 -19.9344
   -19.9337 -19.9317  -7.6272  -7.4339  -7.3676  -6.6269  -6.1380  -6.1367
    -5.8360  -5.6419  -5.6391  -4.3476  -4.3465  -4.1431   6.2467   6.4732
     6.4733   6.7759   6.9763   6.9787   7.0968   7.6826   7.6832   8.2067
     8.2085   8.5393   9.4118   9.4133   9.4562   9.7693   9.7704  10.0294
    12.5935  12.7951  12.8054  12.8737  13.0214  13.0325  13.0526  13.2055
    13.2718  13.4027  14.5384  14.5393  14.5402  15.1542  15.1544  16.1476
    16.1518  16.4918  17.1660  17.1847  17.3524  18.4202  18.4306  18.6765

     occupation numbers 
     1.0000   1.0000   1.0000   1.0000   1.0000   1.0000   1.0000   1.0000
     1.0000   1.0000   1.0000   1.0000   1.0000   1.0000   1.0000   1.0000
     1.0000   1.0000   1.0000   1.0000   1.0000   1.0000   1.0000   1.0000
     1.0000   1.0000   1.0000   1.0000   1.0000   1.0000   1.0000   1.0000
     1.0000   1.0000   1.0000   1.0000   1.0000   1.0000   1.0000   1.0000
     1.0000   1.0000   1.0000   1.0000   1.0000   0.0000   0.0000   0.0000
     0.0000   0.0000   0.0000   0.0000   0.0000   0.0000   0.0000   0.0000
     0.0000   0.0000   0.0000   0.0000   0.0000   0.0000   0.0000   0.0000

          k = 0.0000 0.3849 0.2722 (  2397 PWs)   bands (ev):

   -59.5298 -43.7228 -30.8639 -30.8638 -30.8425 -28.3958 -22.3509 -19.9346
   -19.9336 -19.9308  -7.7515  -7.4606  -7.4136  -6.3928  -6.2930  -6.1051
    -5.7535  -5.6731  -5.6683  -4.2342  -4.2336  -4.1604   5.7131   6.0870
     6.2110   6.6559   7.1887   7.1902   7.7785   7.7791   7.9964   8.3257
     8.3749   8.3763   8.6944   9.3175   9.3179   9.6725   9.6730  10.3000
    12.1022  12.7904  13.0078  13.0132  13.0260  13.0869  13.1261  13.2226
    13.3368  13.4382  14.2826  14.7793  14.7796  14.7849  15.1542  16.2884
    16.3882  16.6124  17.5815  17.7551  17.7717  18.0673  18.3172  18.8282

     occupation numbers 
     1.0000   1.0000   1.0000   1.0000   1.0000   1.0000   1.0000   1.0000
     1.0000   1.0000   1.0000   1.0000   1.0000   1.0000   1.0000   1.0000
     1.0000   1.0000   1.0000   1.0000   1.0000   1.0000   1.0000   1.0000
     1.0000   1.0000   1.0000   1.0000   1.0000   1.0000   1.0000   1.0000
     1.0000   1.0000   1.0000   1.0000   1.0000   1.0000   1.0000   1.0000
     1.0000   1.0000   1.0000   1.0000   1.0000   0.0000   0.0000   0.0000
     0.0000   0.0000   0.0000   0.0000   0.0000   0.0000   0.0000   0.0000
     0.0000   0.0000   0.0000   0.0000   0.0000   0.0000   0.0000   0.0000

          k = 0.0000 0.3849-0.5443 (  2390 PWs)   bands (ev):

   -59.5298 -43.7228 -30.8634 -30.8634 -30.8420 -28.3958 -22.3509 -19.9346
   -19.9335 -19.9308  -7.6985  -7.6165  -7.4217  -6.4006  -6.2112  -6.1080
    -5.8683  -5.6526  -5.5679  -4.2398  -4.1453  -4.1158   5.8028   6.3397
     6.4703   6.7619   6.7901   7.2570   7.4003   7.7467   7.7758   8.0081
     8.4662   8.6911   8.8663   8.9086   9.3003   9.3101   9.4302   9.9388
    12.6117  12.8989  13.0079  13.0135  13.0542  13.1297  13.1370  13.2436
    13.2626  13.4181  14.4514  14.7332  14.7753  14.8245  15.1544  16.7199
    17.0446  17.3323  17.6155  17.8533  17.8990  18.3705  18.5320  18.6531

     occupation numbers 
     1.0000   1.0000   1.0000   1.0000   1.0000   1.0000   1.0000   1.0000
     1.0000   1.0000   1.0000   1.0000   1.0000   1.0000   1.0000   1.0000
     1.0000   1.0000   1.0000   1.0000   1.0000   1.0000   1.0000   1.0000
     1.0000   1.0000   1.0000   1.0000   1.0000   1.0000   1.0000   1.0000
     1.0000   1.0000   1.0000   1.0000   1.0000   1.0000   1.0000   1.0000
     1.0000   1.0000   1.0000   1.0000   1.0000   0.0000   0.0000   0.0000
     0.0000   0.0000   0.0000   0.0000   0.0000   0.0000   0.0000   0.0000
     0.0000   0.0000   0.0000   0.0000   0.0000   0.0000   0.0000   0.0000

          k = 0.3333-0.5774-0.0000 (  2390 PWs)   bands (ev):

   -59.5298 -43.7228 -30.8634 -30.8633 -30.8420 -28.3958 -22.3509 -19.9343
   -19.9335 -19.9310  -7.6900  -7.5867  -7.4665  -6.3962  -6.2105  -6.1100
    -5.8669  -5.6559  -5.5620  -4.2392  -4.1453  -4.1167   5.8028   6.3395
     6.4704   6.7619   6.7915   7.2558   7.4000   7.7460   7.7754   8.0091
     8.4673   8.6927   8.8661   8.9066   9.2997   9.3102   9.4298   9.9384
    12.6033  12.9353  12.9917  13.0198  13.0429  13.1138  13.1755  13.2180
    13.2989  13.3782  14.4499  14.7333  14.7752  14.8252  15.1544  16.7046
    17.0449  17.3484  17.6304  17.8362  17.9013  18.3696  18.5339  18.6545

     occupation numbers 
     1.0000   1.0000   1.0000   1.0000   1.0000   1.0000   1.0000   1.0000
     1.0000   1.0000   1.0000   1.0000   1.0000   1.0000   1.0000   1.0000
     1.0000   1.0000   1.0000   1.0000   1.0000   1.0000   1.0000   1.0000
     1.0000   1.0000   1.0000   1.0000   1.0000   1.0000   1.0000   1.0000
     1.0000   1.0000   1.0000   1.0000   1.0000   1.0000   1.0000   1.0000
     1.0000   1.0000   1.0000   1.0000   1.0000   0.0000   0.0000   0.0000
     0.0000   0.0000   0.0000   0.0000   0.0000   0.0000   0.0000   0.0000
     0.0000   0.0000   0.0000   0.0000   0.0000   0.0000   0.0000   0.0000

     highest occupied, lowest unoccupied level (ev):    13.0542   13.0325

!    total energy              =   -1472.57732919 Ry
     estimated scf accuracy    <       0.00000036 Ry

     The total energy is the sum of the following terms:
     one-electron contribution =    -232.91072095 Ry
     hartree contribution      =     174.46014958 Ry
     xc contribution           =    -134.36209465 Ry
     ewald contribution        =    -557.15868182 Ry
     one-center paw contrib.   =    -722.60598135 Ry
      -> PAW hartree energy AE =     156.18546241 Ry
      -> PAW hartree energy PS =    -148.90774776 Ry
      -> PAW xc energy AE      =    -483.31993614 Ry
      -> PAW xc energy PS      =      19.06327990 Ry
      -> total E_H with PAW    =     181.73786423 Ry
      -> total E_XC with PAW   =    -598.61875088 Ry

     convergence has been achieved in  48 iterations

     Writing all to output data dir calculations_bands/myprefix.save/
 
     init_run     :      6.84s CPU      2.08s WALL (       1 calls)
     electrons    :    138.03s CPU     36.44s WALL (       1 calls)

     Called by init_run:
     wfcinit      :      0.50s CPU      0.13s WALL (       1 calls)
     wfcinit:atom :      0.00s CPU      0.00s WALL (       3 calls)
     wfcinit:wfcr :      0.45s CPU      0.12s WALL (       3 calls)
     potinit      :      2.45s CPU      0.65s WALL (       1 calls)
     hinit0       :      2.40s CPU      0.82s WALL (       1 calls)

     Called by electrons:
     c_bands      :     40.22s CPU     10.46s WALL (      48 calls)
     sum_band     :     21.45s CPU      5.76s WALL (      48 calls)
     v_of_rho     :      2.19s CPU      0.57s WALL (      49 calls)
     v_h          :      0.17s CPU      0.04s WALL (      49 calls)
     v_xc         :      2.02s CPU      0.53s WALL (      49 calls)
     newd         :     14.82s CPU      4.08s WALL (      49 calls)
     PAW_pot      :     59.23s CPU     15.41s WALL (      49 calls)
     mix_rho      :      0.75s CPU      0.20s WALL (      48 calls)

     Called by c_bands:
     init_us_2    :      0.40s CPU      0.11s WALL (     291 calls)
     init_us_2:cp :      0.39s CPU      0.10s WALL (     291 calls)
     cegterg      :     36.12s CPU      9.39s WALL (     144 calls)

     Called by sum_band:
     sum_band:wei :      0.05s CPU      0.01s WALL (      48 calls)
     sum_band:loo :      6.45s CPU      1.68s WALL (      48 calls)
     sum_band:buf :      0.08s CPU      0.02s WALL (     144 calls)
     sum_band:ini :      0.19s CPU      0.05s WALL (     144 calls)
     sum_band:cal :      0.35s CPU      0.09s WALL (     144 calls)
     sum_band:bec :      0.09s CPU      0.02s WALL (     144 calls)
     addusdens    :     12.17s CPU      3.33s WALL (      48 calls)
     addusd:skk   :      0.03s CPU      0.01s WALL (     240 calls)
     addusd:dgemm :      1.33s CPU      0.59s WALL (     240 calls)
     addusd:qvan2 :      9.59s CPU      2.41s WALL (     240 calls)

     Called by *egterg:
     cdiaghg      :      7.10s CPU      1.85s WALL (     420 calls)
     cegterg:over :      1.11s CPU      0.29s WALL (     276 calls)
     cegterg:upda :      0.51s CPU      0.13s WALL (     276 calls)
     cegterg:last :      0.79s CPU      0.21s WALL (     214 calls)
     cdiaghg:chol :      0.59s CPU      0.15s WALL (     420 calls)
     cdiaghg:inve :      0.10s CPU      0.03s WALL (     420 calls)
     cdiaghg:para :      1.28s CPU      0.33s WALL (     840 calls)
     h_psi        :     25.93s CPU      6.73s WALL (     423 calls)
     s_psi        :      0.40s CPU      0.10s WALL (     423 calls)
     g_psi        :      0.04s CPU      0.01s WALL (     276 calls)

     Called by h_psi:
     h_psi:calbec :      0.87s CPU      0.23s WALL (     423 calls)
     vloc_psi     :     24.43s CPU      6.34s WALL (     423 calls)
     add_vuspsi   :      0.55s CPU      0.14s WALL (     423 calls)

     General routines
     calbec       :      1.20s CPU      0.31s WALL (     567 calls)
     fft          :      2.34s CPU      0.61s WALL (     635 calls)
     ffts         :      1.17s CPU      0.32s WALL (      97 calls)
     fftw         :     25.52s CPU      6.64s WALL (   48834 calls)
     interpolate  :      1.30s CPU      0.35s WALL (      49 calls)
 
     Parallel routines

     PAW routines
     PAW_pot      :     59.23s CPU     15.41s WALL (      49 calls)
     PAW_symme    :      0.14s CPU      0.04s WALL (      97 calls)
 
     PWSCF        :   2m25.91s CPU     39.53s WALL

 
   This run was terminated on:  12:25:25   7Jun2023            

=------------------------------------------------------------------------------=
   JOB DONE.
=------------------------------------------------------------------------------=
