
     Program PWSCF v.7.0 starts on  5Jun2023 at 22:52:17 

     This program is part of the open-source Quantum ESPRESSO suite
     for quantum simulation of materials; please cite
         "P. Giannozzi et al., J. Phys.:Condens. Matter 21 395502 (2009);
         "P. Giannozzi et al., J. Phys.:Condens. Matter 29 465901 (2017);
         "P. Giannozzi et al., J. Chem. Phys. 152 154105 (2020);
          URL http://www.quantum-espresso.org", 
     in publications or presentations arising from this work. More details at
     http://www.quantum-espresso.org/quote

     Parallel version (MPI & OpenMP), running on      32 processor cores
     Number of MPI processes:                 8
     Threads/MPI process:                     4

     MPI processes distributed on     1 nodes
     K-points division:     npool     =       2
     R & G space division:  proc/nbgrp/npool/nimage =       4
     38288 MiB available memory on the printing compute node when the environment starts
 
     Reading input from espresso_12201.pwi
Warning: card &CELL ignored
Warning: card / ignored

     Current dimensions of program PWSCF are:
     Max number of different atomic species (ntypx) = 10
     Max number of k-points (npk) =  40000
     Max angular momentum in pseudopotentials (lmaxx) =  4
     file Fe.pbe-spn-kjpaw_psl.0.2.1.UPF: wavefunction(s)  3D renormalized

     Subspace diagonalization in iterative solution of the eigenvalue problem:
     one sub-group per band group will be used
     scalapack distributed-memory algorithm (size of sub-group:  2*  2 procs)

 
     Parallelization info
     --------------------
     sticks:   dense  smooth     PW     G-vecs:    dense   smooth      PW
     Min         358     180     56                12000     4245     747
     Max         359     181     57                12002     4246     750
     Sum        1435     721    227                48003    16981    2995
 
     Using Slab Decomposition
 


     bravais-lattice index     =            0
     lattice parameter (alat)  =      11.7493  a.u.
     unit-cell volume          =     765.1778 (a.u.)^3
     number of atoms/cell      =            7
     number of atomic types    =            3
     number of electrons       =        74.00
     number of Kohn-Sham states=           64
     kinetic-energy cutoff     =      30.0000  Ry
     charge density cutoff     =     240.0000  Ry
     scf convergence threshold =      1.0E-06
     mixing beta               =       0.7000
     number of iterations used =            8  plain     mixing
     Exchange-correlation= SLA  PW   PBE  PBE
                           (   1   4   3   4   0   0   0)

     celldm(1)=  11.749338  celldm(2)=   0.000000  celldm(3)=   0.000000
     celldm(4)=   0.000000  celldm(5)=   0.000000  celldm(6)=   0.000000

     crystal axes: (cart. coord. in units of alat)
               a(1) = (   1.000000   0.000000   0.000000 )  
               a(2) = (   0.838421   0.545023   0.000000 )  
               a(3) = (   0.452272   0.134082   0.865580 )  

     reciprocal axes: (cart. coord. in units 2 pi/alat)
               b(1) = (  1.000000 -1.538323 -0.284215 )  
               b(2) = (  0.000000  1.834785 -0.284215 )  
               b(3) = (  0.000000  0.000000  1.155294 )  


     PseudoPot. # 1 for Fe read from file:
     /home/pragov/projects/rrg-bengioy-ad/pragov/crystal_structure_design/SSSP/Fe.pbe-spn-kjpaw_psl.0.2.1.UPF
     MD5 check sum: e86618425769142926afa95317d90200
     Pseudo is Projector augmented-wave + core cor, Zval = 16.0
     Generated using "atomic" code by A. Dal Corso  v.5.0.99 svn rev. 10869
     Shape of augmentation charge: PSQ
     Using radial grid of 1191 points,  6 beta functions with: 
                l(1) =   0
                l(2) =   0
                l(3) =   1
                l(4) =   1
                l(5) =   2
                l(6) =   2
     Q(r) pseudized with 0 coefficients 


     PseudoPot. # 2 for Co read from file:
     /home/pragov/projects/rrg-bengioy-ad/pragov/crystal_structure_design/SSSP/Co_pbe_v1.2.uspp.F.UPF
     MD5 check sum: 5f91765df6ddd3222702df6e7b74a16d
     Pseudo is Ultrasoft + core correction, Zval = 17.0
     Generated by new atomic code, or converted to UPF format
     Using radial grid of  863 points,  6 beta functions with: 
                l(1) =   0
                l(2) =   0
                l(3) =   1
                l(4) =   1
                l(5) =   2
                l(6) =   2
     Q(r) pseudized with  8 coefficients,  rinner =    1.200   1.200   1.200
                                                       1.200   1.200

     PseudoPot. # 3 for Se read from file:
     /home/pragov/projects/rrg-bengioy-ad/pragov/crystal_structure_design/SSSP/Se_pbe_v1.uspp.F.UPF
     MD5 check sum: 1b3568f3a8ae88f9a2a0ad0698632c85
     Pseudo is Ultrasoft + core correction, Zval =  6.0
     Generated by new atomic code, or converted to UPF format
     Using radial grid of  877 points,  6 beta functions with: 
                l(1) =   0
                l(2) =   0
                l(3) =   1
                l(4) =   1
                l(5) =   2
                l(6) =   2
     Q(r) pseudized with  8 coefficients,  rinner =    1.300   1.300   1.300
                                                       1.300   1.300

     atomic species   valence    mass     pseudopotential
        Fe            16.00    55.84500     Fe( 1.00)
        Co            17.00    58.93319     Co( 1.00)
        Se             6.00    78.97100     Se( 1.00)

     No symmetry found


                                    s                        frac. trans.

      isym =  1     identity                                     

 cryst.   s( 1) = (     1          0          0      )
                  (     0          1          0      )
                  (     0          0          1      )

 cart.    s( 1) = (  1.0000000 -0.0000000 -0.0000000 )
                  (  0.0000000  1.0000000 -0.0000000 )
                  (  0.0000000  0.0000000  1.0000000 )


   Cartesian axes

     site n.     atom                  positions (alat units)
         1           Fe  tau(   1) = (   1.4903155   0.4418227   0.2490603  )
         2           Co  tau(   2) = (   1.8350892   0.5440352   0.0020886  )
         3           Co  tau(   3) = (   0.8050816   0.2386765   0.6142712  )
         4           Se  tau(   4) = (   0.4654797   0.1379973   0.4775095  )
         5           Se  tau(   5) = (   1.8260283   0.5413490   0.3906303  )
         6           Se  tau(   6) = (   1.1115912   0.3295452   0.8437538  )
         7           Se  tau(   7) = (   1.1769139   0.3489109   0.0194271  )

   Crystallographic axes

     site n.     atom                  positions (cryst. coord.)
         1           Fe  tau(   1) = (  0.7398630  0.7398630  0.2877380  )
         2           Co  tau(   2) = (  0.9975940  0.9975940  0.0024130  )
         3           Co  tau(   3) = (  0.2633350  0.2633350  0.7096640  )
         4           Se  tau(   4) = (  0.1174800  0.1174800  0.5516640  )
         5           Se  tau(   5) = (  0.8822360  0.8822360  0.4512930  )
         6           Se  tau(   6) = (  0.3648370  0.3648370  0.9747840  )
         7           Se  tau(   7) = (  0.6346550  0.6346550  0.0224440  )

     number of k points=    14
                       cart. coord. in units 2pi/alat
        k(    1) = (   0.0000000   0.0000000   0.0000000), wk =   0.0740741
        k(    2) = (   0.0000000   0.0000000   0.3850981), wk =   0.1481481
        k(    3) = (   0.0000000   0.6115950  -0.0947383), wk =   0.1481481
        k(    4) = (   0.0000000   0.6115950   0.2903598), wk =   0.1481481
        k(    5) = (   0.0000000   0.6115950  -0.4798364), wk =   0.1481481
        k(    6) = (   0.3333333  -0.5127742  -0.0947383), wk =   0.1481481
        k(    7) = (   0.3333333  -0.5127742   0.2903598), wk =   0.1481481
        k(    8) = (   0.3333333  -0.5127742  -0.4798364), wk =   0.1481481
        k(    9) = (   0.3333333   0.0988208  -0.1894767), wk =   0.1481481
        k(   10) = (   0.3333333   0.0988208   0.1956214), wk =   0.1481481
        k(   11) = (   0.3333333   0.0988208  -0.5745748), wk =   0.1481481
        k(   12) = (   0.3333333  -1.1243692  -0.0000000), wk =   0.1481481
        k(   13) = (   0.3333333  -1.1243692   0.3850981), wk =   0.1481481
        k(   14) = (   0.3333333  -1.1243692  -0.3850981), wk =   0.1481481

                       cryst. coord.
        k(    1) = (   0.0000000   0.0000000   0.0000000), wk =   0.0740741
        k(    2) = (   0.0000000   0.0000000   0.3333333), wk =   0.1481481
        k(    3) = (   0.0000000   0.3333333  -0.0000000), wk =   0.1481481
        k(    4) = (   0.0000000   0.3333333   0.3333333), wk =   0.1481481
        k(    5) = (   0.0000000   0.3333333  -0.3333333), wk =   0.1481481
        k(    6) = (   0.3333333  -0.0000000  -0.0000000), wk =   0.1481481
        k(    7) = (   0.3333333  -0.0000000   0.3333333), wk =   0.1481481
        k(    8) = (   0.3333333  -0.0000000  -0.3333333), wk =   0.1481481
        k(    9) = (   0.3333333   0.3333333  -0.0000000), wk =   0.1481481
        k(   10) = (   0.3333333   0.3333333   0.3333333), wk =   0.1481481
        k(   11) = (   0.3333333   0.3333333  -0.3333333), wk =   0.1481481
        k(   12) = (   0.3333333  -0.3333333  -0.0000000), wk =   0.1481481
        k(   13) = (   0.3333333  -0.3333333   0.3333333), wk =   0.1481481
        k(   14) = (   0.3333333  -0.3333333  -0.3333333), wk =   0.1481481

     Dense  grid:    48003 G-vectors     FFT dimensions: (  60,  60,  60)

     Smooth grid:    16981 G-vectors     FFT dimensions: (  45,  45,  45)

     Dynamical RAM for                 wfc:       0.52 MB

     Dynamical RAM for     wfc (w. buffer):       4.14 MB

     Dynamical RAM for           str. fact:       0.55 MB

     Dynamical RAM for           local pot:       0.00 MB

     Dynamical RAM for          nlocal pot:       1.02 MB

     Dynamical RAM for                qrad:       3.73 MB

     Dynamical RAM for          rho,v,vnew:       1.79 MB

     Dynamical RAM for               rhoin:       0.60 MB

     Dynamical RAM for            rho*nmix:       2.93 MB

     Dynamical RAM for           G-vectors:       0.72 MB

     Dynamical RAM for          h,s,v(r/c):       0.19 MB

     Dynamical RAM for          <psi|beta>:       0.12 MB

     Dynamical RAM for                 psi:       1.04 MB

     Dynamical RAM for                hpsi:       1.04 MB

     Dynamical RAM for                spsi:       1.04 MB

     Dynamical RAM for      wfcinit/wfcrot:       1.13 MB

     Dynamical RAM for           addusdens:      17.49 MB

     Estimated static dynamical RAM per process >      15.33 MB

     Estimated max dynamical RAM per process >      35.75 MB

     Estimated total dynamical RAM >     274.30 MB

     Check: negative core charge=   -0.000052

     Initial potential from superposition of free atoms

     starting charge      71.9993, renormalised to      74.0000
     Starting wfcs are   55 randomized atomic wfcs +    9 random wfcs
     Checking if some PAW data can be deallocated... 
       PAW data deallocated on    6 nodes for type:  1

     total cpu time spent up to now is        2.4 secs

     Self-consistent Calculation

     iteration #  1     ecut=    30.00 Ry     beta= 0.70
     Davidson diagonalization with overlap

---- Real-time Memory Report at c_bands before calling an iterative solver
           157 MiB given to the printing process from OS
             0 MiB allocation reported by mallinfo(arena+hblkhd)
         37919 MiB available memory on the node where the printing process lives
------------------
     ethr =  1.00E-02,  avg # of iterations =  6.1

     negative rho (up, down):  4.932E-05 0.000E+00

     total cpu time spent up to now is        4.3 secs

     total energy              =   -1086.33228445 Ry
     estimated scf accuracy    <      17.99323855 Ry

     iteration #  2     ecut=    30.00 Ry     beta= 0.70
     Davidson diagonalization with overlap

---- Real-time Memory Report at c_bands before calling an iterative solver
           177 MiB given to the printing process from OS
             0 MiB allocation reported by mallinfo(arena+hblkhd)
         37657 MiB available memory on the node where the printing process lives
------------------
     ethr =  1.00E-02,  avg # of iterations =  3.0

     negative rho (up, down):  1.652E-04 0.000E+00

     total cpu time spent up to now is        5.7 secs

     total energy              =   -1096.27918912 Ry
     estimated scf accuracy    <      93.92389677 Ry

     iteration #  3     ecut=    30.00 Ry     beta= 0.70
     Davidson diagonalization with overlap

---- Real-time Memory Report at c_bands before calling an iterative solver
           183 MiB given to the printing process from OS
             0 MiB allocation reported by mallinfo(arena+hblkhd)
         37587 MiB available memory on the node where the printing process lives
------------------
     ethr =  1.00E-02,  avg # of iterations =  2.6

     negative rho (up, down):  2.718E-04 0.000E+00

     total cpu time spent up to now is        6.6 secs

     total energy              =   -1101.35532215 Ry
     estimated scf accuracy    <      30.97943982 Ry

     iteration #  4     ecut=    30.00 Ry     beta= 0.70
     Davidson diagonalization with overlap

---- Real-time Memory Report at c_bands before calling an iterative solver
           183 MiB given to the printing process from OS
             0 MiB allocation reported by mallinfo(arena+hblkhd)
         37557 MiB available memory on the node where the printing process lives
------------------
     ethr =  1.00E-02,  avg # of iterations =  1.0

     total cpu time spent up to now is        7.4 secs

     total energy              =   -1100.78548875 Ry
     estimated scf accuracy    <      19.88171968 Ry

     iteration #  5     ecut=    30.00 Ry     beta= 0.70
     Davidson diagonalization with overlap

---- Real-time Memory Report at c_bands before calling an iterative solver
           183 MiB given to the printing process from OS
             0 MiB allocation reported by mallinfo(arena+hblkhd)
         37538 MiB available memory on the node where the printing process lives
------------------
     ethr =  1.00E-02,  avg # of iterations =  1.1

     total cpu time spent up to now is        8.8 secs

     total energy              =   -1101.44795449 Ry
     estimated scf accuracy    <      10.27798889 Ry

     iteration #  6     ecut=    30.00 Ry     beta= 0.70
     Davidson diagonalization with overlap

---- Real-time Memory Report at c_bands before calling an iterative solver
           183 MiB given to the printing process from OS
             0 MiB allocation reported by mallinfo(arena+hblkhd)
         37492 MiB available memory on the node where the printing process lives
------------------
     ethr =  1.00E-02,  avg # of iterations =  1.0

     total cpu time spent up to now is        9.7 secs

     total energy              =   -1100.37140228 Ry
     estimated scf accuracy    <      10.96403922 Ry

     iteration #  7     ecut=    30.00 Ry     beta= 0.70
     Davidson diagonalization with overlap

---- Real-time Memory Report at c_bands before calling an iterative solver
           184 MiB given to the printing process from OS
             0 MiB allocation reported by mallinfo(arena+hblkhd)
         37477 MiB available memory on the node where the printing process lives
------------------
     ethr =  1.00E-02,  avg # of iterations =  1.0

     total cpu time spent up to now is       10.4 secs

     total energy              =   -1100.26896284 Ry
     estimated scf accuracy    <       6.82835617 Ry

     iteration #  8     ecut=    30.00 Ry     beta= 0.70
     Davidson diagonalization with overlap

---- Real-time Memory Report at c_bands before calling an iterative solver
           184 MiB given to the printing process from OS
             0 MiB allocation reported by mallinfo(arena+hblkhd)
         37458 MiB available memory on the node where the printing process lives
------------------
     ethr =  9.23E-03,  avg # of iterations =  1.0

     total cpu time spent up to now is       11.2 secs

     total energy              =   -1100.44701483 Ry
     estimated scf accuracy    <       1.21372805 Ry

     iteration #  9     ecut=    30.00 Ry     beta= 0.70
     Davidson diagonalization with overlap

---- Real-time Memory Report at c_bands before calling an iterative solver
           184 MiB given to the printing process from OS
             0 MiB allocation reported by mallinfo(arena+hblkhd)
         37436 MiB available memory on the node where the printing process lives
------------------
     ethr =  1.64E-03,  avg # of iterations =  1.1

     total cpu time spent up to now is       11.9 secs

     total energy              =   -1100.25217280 Ry
     estimated scf accuracy    <       3.32866129 Ry

     iteration # 10     ecut=    30.00 Ry     beta= 0.70
     Davidson diagonalization with overlap

---- Real-time Memory Report at c_bands before calling an iterative solver
           184 MiB given to the printing process from OS
             0 MiB allocation reported by mallinfo(arena+hblkhd)
         37406 MiB available memory on the node where the printing process lives
------------------
     ethr =  1.64E-03,  avg # of iterations =  1.0

     total cpu time spent up to now is       12.7 secs

     total energy              =   -1100.35853829 Ry
     estimated scf accuracy    <       0.05955425 Ry

     iteration # 11     ecut=    30.00 Ry     beta= 0.70
     Davidson diagonalization with overlap

---- Real-time Memory Report at c_bands before calling an iterative solver
           184 MiB given to the printing process from OS
             0 MiB allocation reported by mallinfo(arena+hblkhd)
         37366 MiB available memory on the node where the printing process lives
------------------
     ethr =  8.05E-05,  avg # of iterations =  4.4

     total cpu time spent up to now is       13.6 secs

     total energy              =   -1100.39239041 Ry
     estimated scf accuracy    <       1.83533168 Ry

     iteration # 12     ecut=    30.00 Ry     beta= 0.70
     Davidson diagonalization with overlap

---- Real-time Memory Report at c_bands before calling an iterative solver
           184 MiB given to the printing process from OS
             0 MiB allocation reported by mallinfo(arena+hblkhd)
         37323 MiB available memory on the node where the printing process lives
------------------
     ethr =  8.05E-05,  avg # of iterations =  1.0

     total cpu time spent up to now is       14.4 secs

     total energy              =   -1100.36070482 Ry
     estimated scf accuracy    <       1.35579268 Ry

     iteration # 13     ecut=    30.00 Ry     beta= 0.70
     Davidson diagonalization with overlap

---- Real-time Memory Report at c_bands before calling an iterative solver
           184 MiB given to the printing process from OS
             0 MiB allocation reported by mallinfo(arena+hblkhd)
         37284 MiB available memory on the node where the printing process lives
------------------
     ethr =  8.05E-05,  avg # of iterations =  1.0

     total cpu time spent up to now is       15.1 secs

     total energy              =   -1100.36424140 Ry
     estimated scf accuracy    <       0.28035138 Ry

     iteration # 14     ecut=    30.00 Ry     beta= 0.70
     Davidson diagonalization with overlap

---- Real-time Memory Report at c_bands before calling an iterative solver
           184 MiB given to the printing process from OS
             0 MiB allocation reported by mallinfo(arena+hblkhd)
         37089 MiB available memory on the node where the printing process lives
------------------
     ethr =  8.05E-05,  avg # of iterations =  1.0

     total cpu time spent up to now is       15.9 secs

     total energy              =   -1100.35410685 Ry
     estimated scf accuracy    <       0.08531425 Ry

     iteration # 15     ecut=    30.00 Ry     beta= 0.70
     Davidson diagonalization with overlap

---- Real-time Memory Report at c_bands before calling an iterative solver
           184 MiB given to the printing process from OS
             0 MiB allocation reported by mallinfo(arena+hblkhd)
         36871 MiB available memory on the node where the printing process lives
------------------
     ethr =  8.05E-05,  avg # of iterations =  1.0

     total cpu time spent up to now is       16.6 secs

     total energy              =   -1100.36237411 Ry
     estimated scf accuracy    <       0.12737382 Ry

     iteration # 16     ecut=    30.00 Ry     beta= 0.70
     Davidson diagonalization with overlap

---- Real-time Memory Report at c_bands before calling an iterative solver
           184 MiB given to the printing process from OS
             0 MiB allocation reported by mallinfo(arena+hblkhd)
         36644 MiB available memory on the node where the printing process lives
------------------
     ethr =  8.05E-05,  avg # of iterations =  1.0

     total cpu time spent up to now is       17.4 secs

     total energy              =   -1100.36444792 Ry
     estimated scf accuracy    <       0.00856471 Ry

     iteration # 17     ecut=    30.00 Ry     beta= 0.70
     Davidson diagonalization with overlap

---- Real-time Memory Report at c_bands before calling an iterative solver
           184 MiB given to the printing process from OS
             0 MiB allocation reported by mallinfo(arena+hblkhd)
         36419 MiB available memory on the node where the printing process lives
------------------
     ethr =  1.16E-05,  avg # of iterations =  2.4

     total cpu time spent up to now is       18.2 secs

     total energy              =   -1100.36452132 Ry
     estimated scf accuracy    <       0.01400483 Ry

     iteration # 18     ecut=    30.00 Ry     beta= 0.70
     Davidson diagonalization with overlap

---- Real-time Memory Report at c_bands before calling an iterative solver
           184 MiB given to the printing process from OS
             0 MiB allocation reported by mallinfo(arena+hblkhd)
         36239 MiB available memory on the node where the printing process lives
------------------
     ethr =  1.16E-05,  avg # of iterations =  1.0

     total cpu time spent up to now is       19.0 secs

     total energy              =   -1100.36470382 Ry
     estimated scf accuracy    <       0.00647562 Ry

     iteration # 19     ecut=    30.00 Ry     beta= 0.70
     Davidson diagonalization with overlap

---- Real-time Memory Report at c_bands before calling an iterative solver
           184 MiB given to the printing process from OS
             0 MiB allocation reported by mallinfo(arena+hblkhd)
         36203 MiB available memory on the node where the printing process lives
------------------
     ethr =  8.75E-06,  avg # of iterations =  1.0

     total cpu time spent up to now is       19.7 secs

     total energy              =   -1100.36470145 Ry
     estimated scf accuracy    <       0.00455603 Ry

     iteration # 20     ecut=    30.00 Ry     beta= 0.70
     Davidson diagonalization with overlap

---- Real-time Memory Report at c_bands before calling an iterative solver
           184 MiB given to the printing process from OS
             0 MiB allocation reported by mallinfo(arena+hblkhd)
         36161 MiB available memory on the node where the printing process lives
------------------
     ethr =  6.16E-06,  avg # of iterations =  1.1

     total cpu time spent up to now is       20.5 secs

     total energy              =   -1100.36469448 Ry
     estimated scf accuracy    <       0.00293157 Ry

     iteration # 21     ecut=    30.00 Ry     beta= 0.70
     Davidson diagonalization with overlap

---- Real-time Memory Report at c_bands before calling an iterative solver
           184 MiB given to the printing process from OS
             0 MiB allocation reported by mallinfo(arena+hblkhd)
         36137 MiB available memory on the node where the printing process lives
------------------
     ethr =  3.96E-06,  avg # of iterations =  1.0

     total cpu time spent up to now is       21.2 secs

     total energy              =   -1100.36458970 Ry
     estimated scf accuracy    <       0.00186316 Ry

     iteration # 22     ecut=    30.00 Ry     beta= 0.70
     Davidson diagonalization with overlap

---- Real-time Memory Report at c_bands before calling an iterative solver
           184 MiB given to the printing process from OS
             0 MiB allocation reported by mallinfo(arena+hblkhd)
         36010 MiB available memory on the node where the printing process lives
------------------
     ethr =  2.52E-06,  avg # of iterations =  1.6

     total cpu time spent up to now is       22.0 secs

     total energy              =   -1100.36466143 Ry
     estimated scf accuracy    <       0.00016009 Ry

     iteration # 23     ecut=    30.00 Ry     beta= 0.70
     Davidson diagonalization with overlap

---- Real-time Memory Report at c_bands before calling an iterative solver
           184 MiB given to the printing process from OS
             0 MiB allocation reported by mallinfo(arena+hblkhd)
         36539 MiB available memory on the node where the printing process lives
------------------
     ethr =  2.16E-07,  avg # of iterations =  1.0

     total cpu time spent up to now is       22.8 secs

     total energy              =   -1100.36467308 Ry
     estimated scf accuracy    <       0.00001231 Ry

     iteration # 24     ecut=    30.00 Ry     beta= 0.70
     Davidson diagonalization with overlap

---- Real-time Memory Report at c_bands before calling an iterative solver
           184 MiB given to the printing process from OS
             0 MiB allocation reported by mallinfo(arena+hblkhd)
         37887 MiB available memory on the node where the printing process lives
------------------
     ethr =  1.66E-08,  avg # of iterations =  1.1

     total cpu time spent up to now is       23.5 secs

     total energy              =   -1100.36467488 Ry
     estimated scf accuracy    <       0.00000202 Ry

     iteration # 25     ecut=    30.00 Ry     beta= 0.70
     Davidson diagonalization with overlap

---- Real-time Memory Report at c_bands before calling an iterative solver
           184 MiB given to the printing process from OS
             0 MiB allocation reported by mallinfo(arena+hblkhd)
         37840 MiB available memory on the node where the printing process lives
------------------
     ethr =  2.73E-09,  avg # of iterations =  4.7

     total cpu time spent up to now is       24.5 secs

     total energy              =   -1100.36467554 Ry
     estimated scf accuracy    <       0.00000139 Ry

     iteration # 26     ecut=    30.00 Ry     beta= 0.70
     Davidson diagonalization with overlap

---- Real-time Memory Report at c_bands before calling an iterative solver
           184 MiB given to the printing process from OS
             0 MiB allocation reported by mallinfo(arena+hblkhd)
         37871 MiB available memory on the node where the printing process lives
------------------
     ethr =  1.88E-09,  avg # of iterations =  1.0

     total cpu time spent up to now is       25.2 secs

     End of self-consistent calculation

          k = 0.0000 0.0000 0.0000 (  2129 PWs)   bands (ev):

   -83.4771 -83.4694 -75.3305 -46.8568 -46.7971 -46.7332 -46.7184 -46.7111
   -46.6971 -41.0499 -40.9481 -40.9164  -4.1219  -2.0196  -1.8217  -1.5701
     4.2916   4.7182   5.3014   7.3416   7.3723   7.8275   8.3462   8.4114
     8.5379   9.5257   9.8694   9.9258   9.9539  10.1021  10.1356  10.3043
    10.6580  10.9163  11.3594  11.3662  11.6728  11.9122  12.0303  12.6167
    13.1855  13.7332  13.7781  16.0395  16.1952  16.4070  17.2360  18.9918
    19.1263  19.5117  19.6769  22.4233  22.7072  22.8349  22.9075  23.2928
    23.5485  23.6869  24.0191  24.1434  24.7607  25.0688  25.4506  25.9194

     occupation numbers 
     1.0000   1.0000   1.0000   1.0000   1.0000   1.0000   1.0000   1.0000
     1.0000   1.0000   1.0000   1.0000   1.0000   1.0000   1.0000   1.0000
     1.0000   1.0000   1.0000   1.0000   1.0000   1.0000   1.0000   1.0000
     1.0000   1.0000   1.0000   1.0000   1.0000   1.0000   1.0000   1.0000
     1.0000   1.0000   1.0000   1.0000   1.0000   0.0000   0.0000   0.0000
     0.0000   0.0000   0.0000   0.0000   0.0000   0.0000   0.0000   0.0000
     0.0000   0.0000   0.0000   0.0000   0.0000   0.0000   0.0000   0.0000
     0.0000   0.0000   0.0000   0.0000   0.0000   0.0000   0.0000   0.0000

          k = 0.0000 0.0000 0.3851 (  2118 PWs)   bands (ev):

   -83.4769 -83.4692 -75.3289 -46.8556 -46.7961 -46.7318 -46.7184 -46.7092
   -46.6955 -41.0468 -40.9405 -40.9096  -3.7270  -2.6709  -1.8431  -1.6647
     4.8362   5.6715   5.9020   7.2841   7.3627   7.9407   8.0530   8.4476
     8.4913   8.6314   9.2583   9.4120   9.6802  10.1201  10.2186  10.3653
    10.4273  10.6834  10.7911  11.4526  11.5025  11.8564  12.0939  12.6469
    13.0100  13.7530  13.9257  16.3825  16.9944  17.7733  18.4255  19.3286
    19.7170  20.0503  20.1574  20.5461  21.0541  21.4778  22.3734  22.8603
    23.4221  23.5695  23.9342  23.9825  24.8193  25.2004  25.2810  26.1704

     occupation numbers 
     1.0000   1.0000   1.0000   1.0000   1.0000   1.0000   1.0000   1.0000
     1.0000   1.0000   1.0000   1.0000   1.0000   1.0000   1.0000   1.0000
     1.0000   1.0000   1.0000   1.0000   1.0000   1.0000   1.0000   1.0000
     1.0000   1.0000   1.0000   1.0000   1.0000   1.0000   1.0000   1.0000
     1.0000   1.0000   1.0000   1.0000   1.0000   0.0000   0.0000   0.0000
     0.0000   0.0000   0.0000   0.0000   0.0000   0.0000   0.0000   0.0000
     0.0000   0.0000   0.0000   0.0000   0.0000   0.0000   0.0000   0.0000
     0.0000   0.0000   0.0000   0.0000   0.0000   0.0000   0.0000   0.0000

          k = 0.0000 0.6116-0.0947 (  2119 PWs)   bands (ev):

   -83.4766 -83.4690 -75.3279 -46.8551 -46.7947 -46.7334 -46.7167 -46.7084
   -46.6971 -41.0409 -40.9465 -40.9060  -3.1255  -1.8550  -1.7077  -1.5928
     5.3241   5.5967   5.7803   5.9235   6.6784   6.9514   7.4514   7.6896
     8.1230   8.3070   8.6315   9.0802   9.6715  10.1442  10.2222  10.3429
    10.5177  10.6256  10.8317  10.9565  11.2522  11.4231  12.1931  12.5663
    13.2336  13.4195  13.5982  17.4078  18.1221  18.5274  18.8132  19.0152
    19.2790  19.6179  20.2559  20.6623  21.5172  22.1912  22.2253  22.3678
    23.2181  23.6489  23.9313  24.8370  25.3412  25.5674  26.1258  27.8081

     occupation numbers 
     1.0000   1.0000   1.0000   1.0000   1.0000   1.0000   1.0000   1.0000
     1.0000   1.0000   1.0000   1.0000   1.0000   1.0000   1.0000   1.0000
     1.0000   1.0000   1.0000   1.0000   1.0000   1.0000   1.0000   1.0000
     1.0000   1.0000   1.0000   1.0000   1.0000   1.0000   1.0000   1.0000
     1.0000   1.0000   1.0000   1.0000   1.0000   0.0000   0.0000   0.0000
     0.0000   0.0000   0.0000   0.0000   0.0000   0.0000   0.0000   0.0000
     0.0000   0.0000   0.0000   0.0000   0.0000   0.0000   0.0000   0.0000
     0.0000   0.0000   0.0000   0.0000   0.0000   0.0000   0.0000   0.0000

          k = 0.0000 0.6116 0.2904 (  2130 PWs)   bands (ev):

   -83.4768 -83.4692 -75.3296 -46.8563 -46.7972 -46.7337 -46.7188 -46.7103
   -46.6974 -41.0495 -40.9474 -40.9158  -2.9617  -2.0460  -1.8412  -1.4818
     5.0504   5.2349   5.7228   6.1438   6.9822   7.3588   7.5614   7.7274
     8.2228   8.5295   8.7581   8.8723   9.6060  10.0427  10.2327  10.4262
    10.4767  10.5923  10.8361  11.0654  11.1992  11.3337  11.6708  12.8884
    13.3258  13.4248  14.0059  16.7687  17.3508  17.7319  18.1307  18.5562
    19.4430  19.6712  19.9022  21.1595  21.3830  22.0527  22.7958  23.0297
    23.6294  23.8263  24.0387  25.7408  26.1202  26.7450  27.0235  27.8972

     occupation numbers 
     1.0000   1.0000   1.0000   1.0000   1.0000   1.0000   1.0000   1.0000
     1.0000   1.0000   1.0000   1.0000   1.0000   1.0000   1.0000   1.0000
     1.0000   1.0000   1.0000   1.0000   1.0000   1.0000   1.0000   1.0000
     1.0000   1.0000   1.0000   1.0000   1.0000   1.0000   1.0000   1.0000
     1.0000   1.0000   1.0000   1.0000   1.0000   0.0000   0.0000   0.0000
     0.0000   0.0000   0.0000   0.0000   0.0000   0.0000   0.0000   0.0000
     0.0000   0.0000   0.0000   0.0000   0.0000   0.0000   0.0000   0.0000
     0.0000   0.0000   0.0000   0.0000   0.0000   0.0000   0.0000   0.0000

          k = 0.0000 0.6116-0.4798 (  2132 PWs)   bands (ev):

   -83.4768 -83.4692 -75.3297 -46.8568 -46.7968 -46.7338 -46.7188 -46.7101
   -46.6976 -41.0508 -40.9486 -40.9140  -2.7122  -2.3027  -1.8345  -1.5712
     5.0353   5.2480   5.9077   6.1841   6.9969   7.4291   7.6613   7.8618
     8.1005   8.1634   8.9311   9.1878   9.7346  10.0730  10.2137  10.3288
    10.4170  10.6692  10.7796  11.1099  11.2965  11.6901  11.9470  12.3338
    12.6275  13.1088  13.3666  16.3612  16.8002  17.6196  18.1795  19.0217
    19.9114  20.2764  20.9120  21.3092  21.7152  22.4116  22.9581  23.5266
    23.9499  24.0691  24.5108  25.2178  25.4903  26.3616  27.5988  27.7068

     occupation numbers 
     1.0000   1.0000   1.0000   1.0000   1.0000   1.0000   1.0000   1.0000
     1.0000   1.0000   1.0000   1.0000   1.0000   1.0000   1.0000   1.0000
     1.0000   1.0000   1.0000   1.0000   1.0000   1.0000   1.0000   1.0000
     1.0000   1.0000   1.0000   1.0000   1.0000   1.0000   1.0000   1.0000
     1.0000   1.0000   1.0000   1.0000   1.0000   0.0000   0.0000   0.0000
     0.0000   0.0000   0.0000   0.0000   0.0000   0.0000   0.0000   0.0000
     0.0000   0.0000   0.0000   0.0000   0.0000   0.0000   0.0000   0.0000
     0.0000   0.0000   0.0000   0.0000   0.0000   0.0000   0.0000   0.0000

          k = 0.3333-0.5128-0.0947 (  2119 PWs)   bands (ev):

   -83.4766 -83.4690 -75.3279 -46.8551 -46.7947 -46.7334 -46.7167 -46.7084
   -46.6971 -41.0409 -40.9465 -40.9060  -3.1255  -1.8550  -1.7077  -1.5928
     5.3241   5.5967   5.7803   5.9235   6.6784   6.9514   7.4514   7.6896
     8.1230   8.3070   8.6315   9.0802   9.6715  10.1442  10.2222  10.3429
    10.5177  10.6256  10.8317  10.9565  11.2522  11.4231  12.1931  12.5663
    13.2336  13.4195  13.5982  17.4078  18.1221  18.5274  18.8132  19.0152
    19.2790  19.6179  20.2559  20.6623  21.5172  22.1912  22.2253  22.3678
    23.2181  23.6489  23.9313  24.8370  25.3412  25.5674  26.1258  27.8081

     occupation numbers 
     1.0000   1.0000   1.0000   1.0000   1.0000   1.0000   1.0000   1.0000
     1.0000   1.0000   1.0000   1.0000   1.0000   1.0000   1.0000   1.0000
     1.0000   1.0000   1.0000   1.0000   1.0000   1.0000   1.0000   1.0000
     1.0000   1.0000   1.0000   1.0000   1.0000   1.0000   1.0000   1.0000
     1.0000   1.0000   1.0000   1.0000   1.0000   0.0000   0.0000   0.0000
     0.0000   0.0000   0.0000   0.0000   0.0000   0.0000   0.0000   0.0000
     0.0000   0.0000   0.0000   0.0000   0.0000   0.0000   0.0000   0.0000
     0.0000   0.0000   0.0000   0.0000   0.0000   0.0000   0.0000   0.0000

          k = 0.3333-0.5128 0.2904 (  2130 PWs)   bands (ev):

   -83.4768 -83.4692 -75.3296 -46.8563 -46.7972 -46.7337 -46.7188 -46.7103
   -46.6974 -41.0495 -40.9474 -40.9158  -2.9617  -2.0460  -1.8412  -1.4818
     5.0504   5.2349   5.7228   6.1438   6.9822   7.3588   7.5614   7.7274
     8.2228   8.5295   8.7581   8.8723   9.6060  10.0427  10.2327  10.4262
    10.4767  10.5923  10.8361  11.0654  11.1992  11.3337  11.6708  12.8884
    13.3258  13.4248  14.0059  16.7687  17.3508  17.7319  18.1307  18.5562
    19.4430  19.6712  19.9022  21.1595  21.3830  22.0527  22.7958  23.0297
    23.6294  23.8263  24.0387  25.7408  26.1202  26.7450  27.0235  27.8972

     occupation numbers 
     1.0000   1.0000   1.0000   1.0000   1.0000   1.0000   1.0000   1.0000
     1.0000   1.0000   1.0000   1.0000   1.0000   1.0000   1.0000   1.0000
     1.0000   1.0000   1.0000   1.0000   1.0000   1.0000   1.0000   1.0000
     1.0000   1.0000   1.0000   1.0000   1.0000   1.0000   1.0000   1.0000
     1.0000   1.0000   1.0000   1.0000   1.0000   0.0000   0.0000   0.0000
     0.0000   0.0000   0.0000   0.0000   0.0000   0.0000   0.0000   0.0000
     0.0000   0.0000   0.0000   0.0000   0.0000   0.0000   0.0000   0.0000
     0.0000   0.0000   0.0000   0.0000   0.0000   0.0000   0.0000   0.0000

          k = 0.3333-0.5128-0.4798 (  2132 PWs)   bands (ev):

   -83.4768 -83.4692 -75.3297 -46.8568 -46.7968 -46.7338 -46.7188 -46.7101
   -46.6976 -41.0508 -40.9486 -40.9140  -2.7122  -2.3027  -1.8345  -1.5712
     5.0353   5.2480   5.9077   6.1841   6.9969   7.4291   7.6613   7.8618
     8.1005   8.1634   8.9311   9.1878   9.7346  10.0730  10.2137  10.3288
    10.4170  10.6692  10.7796  11.1099  11.2965  11.6901  11.9470  12.3338
    12.6275  13.1088  13.3666  16.3612  16.8002  17.6196  18.1795  19.0217
    19.9114  20.2764  20.9120  21.3092  21.7152  22.4116  22.9581  23.5266
    23.9499  24.0691  24.5108  25.2178  25.4903  26.3616  27.5988  27.7068

     occupation numbers 
     1.0000   1.0000   1.0000   1.0000   1.0000   1.0000   1.0000   1.0000
     1.0000   1.0000   1.0000   1.0000   1.0000   1.0000   1.0000   1.0000
     1.0000   1.0000   1.0000   1.0000   1.0000   1.0000   1.0000   1.0000
     1.0000   1.0000   1.0000   1.0000   1.0000   1.0000   1.0000   1.0000
     1.0000   1.0000   1.0000   1.0000   1.0000   0.0000   0.0000   0.0000
     0.0000   0.0000   0.0000   0.0000   0.0000   0.0000   0.0000   0.0000
     0.0000   0.0000   0.0000   0.0000   0.0000   0.0000   0.0000   0.0000
     0.0000   0.0000   0.0000   0.0000   0.0000   0.0000   0.0000   0.0000

          k = 0.3333 0.0988-0.1895 (  2115 PWs)   bands (ev):

   -83.4770 -83.4691 -75.3291 -46.8565 -46.7955 -46.7321 -46.7183 -46.7091
   -46.6956 -41.0436 -40.9415 -40.9118  -3.6840  -2.4368  -2.1259  -1.7704
     4.7751   5.7801   6.4903   7.4065   7.5588   7.8917   7.9388   8.1848
     8.3493   8.8002   9.2173   9.2362   9.7706  10.0161  10.0310  10.2681
    10.4007  10.5854  10.6838  10.9297  11.4186  12.2774  12.4519  13.0273
    13.3694  13.7805  13.8231  16.2133  16.8094  17.0089  18.1227  18.9173
    19.2091  19.6066  19.8705  20.8176  21.2236  21.4207  21.6629  22.6372
    23.5639  24.4937  25.1628  25.3058  25.7129  26.6849  26.7713  27.0405

     occupation numbers 
     1.0000   1.0000   1.0000   1.0000   1.0000   1.0000   1.0000   1.0000
     1.0000   1.0000   1.0000   1.0000   1.0000   1.0000   1.0000   1.0000
     1.0000   1.0000   1.0000   1.0000   1.0000   1.0000   1.0000   1.0000
     1.0000   1.0000   1.0000   1.0000   1.0000   1.0000   1.0000   1.0000
     1.0000   1.0000   1.0000   1.0000   1.0000   0.0000   0.0000   0.0000
     0.0000   0.0000   0.0000   0.0000   0.0000   0.0000   0.0000   0.0000
     0.0000   0.0000   0.0000   0.0000   0.0000   0.0000   0.0000   0.0000
     0.0000   0.0000   0.0000   0.0000   0.0000   0.0000   0.0000   0.0000

          k = 0.3333 0.0988 0.1956 (  2132 PWs)   bands (ev):

   -83.4772 -83.4695 -75.3316 -46.8576 -46.7999 -46.7323 -46.7197 -46.7129
   -46.6962 -41.0612 -40.9426 -40.9206  -3.6771  -2.5963  -1.9985  -1.7011
     4.9991   5.4941   6.0781   7.1060   7.5307   7.8148   8.0793   8.3763
     8.4322   8.5518   9.4411   9.5091   9.8771   9.9811  10.1159  10.3910
    10.4927  10.8269  11.1125  11.3966  11.7438  11.8978  11.9065  12.7850
    12.8347  13.2589  13.6557  16.3048  16.9218  17.4158  18.5551  19.2053
    19.6178  20.0324  20.2978  21.0295  21.0753  21.4097  22.0283  22.7553
    23.0941  23.6241  24.1228  24.1830  24.6130  25.5813  25.5836  26.3409

     occupation numbers 
     1.0000   1.0000   1.0000   1.0000   1.0000   1.0000   1.0000   1.0000
     1.0000   1.0000   1.0000   1.0000   1.0000   1.0000   1.0000   1.0000
     1.0000   1.0000   1.0000   1.0000   1.0000   1.0000   1.0000   1.0000
     1.0000   1.0000   1.0000   1.0000   1.0000   1.0000   1.0000   1.0000
     1.0000   1.0000   1.0000   1.0000   1.0000   0.0000   0.0000   0.0000
     0.0000   0.0000   0.0000   0.0000   0.0000   0.0000   0.0000   0.0000
     0.0000   0.0000   0.0000   0.0000   0.0000   0.0000   0.0000   0.0000
     0.0000   0.0000   0.0000   0.0000   0.0000   0.0000   0.0000   0.0000

          k = 0.3333 0.0988-0.5746 (  2108 PWs)   bands (ev):

   -83.4768 -83.4690 -75.3280 -46.8562 -46.7945 -46.7309 -46.7170 -46.7092
   -46.6943 -41.0391 -40.9349 -40.9107  -3.1154  -2.9396  -2.6149  -1.4851
     5.7294   5.9385   6.6364   6.8412   7.3529   7.5337   8.0059   8.4365
     8.6077   8.6132   8.8032   8.9579   9.6559   9.9500  10.1145  10.3314
    10.3749  10.6114  10.7748  11.1613  11.5553  12.2719  12.2791  12.5758
    13.0720  13.2606  13.9863  16.8099  17.5190  18.0028  18.5803  18.7067
    19.1402  19.4470  19.7523  20.6583  21.4683  21.6887  22.1671  22.6728
    23.0369  23.8663  23.9583  25.2983  25.5313  25.9137  26.1049  26.2959

     occupation numbers 
     1.0000   1.0000   1.0000   1.0000   1.0000   1.0000   1.0000   1.0000
     1.0000   1.0000   1.0000   1.0000   1.0000   1.0000   1.0000   1.0000
     1.0000   1.0000   1.0000   1.0000   1.0000   1.0000   1.0000   1.0000
     1.0000   1.0000   1.0000   1.0000   1.0000   1.0000   1.0000   1.0000
     1.0000   1.0000   1.0000   1.0000   1.0000   0.0000   0.0000   0.0000
     0.0000   0.0000   0.0000   0.0000   0.0000   0.0000   0.0000   0.0000
     0.0000   0.0000   0.0000   0.0000   0.0000   0.0000   0.0000   0.0000
     0.0000   0.0000   0.0000   0.0000   0.0000   0.0000   0.0000   0.0000

          k = 0.3333-1.1244-0.0000 (  2118 PWs)   bands (ev):

   -83.4767 -83.4688 -75.3273 -46.8541 -46.7959 -46.7314 -46.7180 -46.7087
   -46.6954 -41.0449 -40.9371 -40.9062  -2.5718  -2.3419  -1.8353  -1.7457
     4.9576   5.8729   5.9909   6.4045   6.5084   7.3912   7.5932   7.9800
     8.1665   8.3615   8.7348   9.0061   9.8392  10.1088  10.2052  10.2628
    10.5634  10.6700  10.8556  10.9529  11.3166  11.4846  11.8072  11.8608
    12.4141  12.7789  13.1453  15.6841  18.0858  18.2336  19.8645  19.9580
    20.4199  20.5157  20.6412  21.0507  21.2595  22.5170  22.6857  22.9116
    23.2327  23.2896  25.1540  25.5092  25.8933  26.3518  26.9840  27.3201

     occupation numbers 
     1.0000   1.0000   1.0000   1.0000   1.0000   1.0000   1.0000   1.0000
     1.0000   1.0000   1.0000   1.0000   1.0000   1.0000   1.0000   1.0000
     1.0000   1.0000   1.0000   1.0000   1.0000   1.0000   1.0000   1.0000
     1.0000   1.0000   1.0000   1.0000   1.0000   1.0000   1.0000   1.0000
     1.0000   1.0000   1.0000   1.0000   1.0000   0.0000   0.0000   0.0000
     0.0000   0.0000   0.0000   0.0000   0.0000   0.0000   0.0000   0.0000
     0.0000   0.0000   0.0000   0.0000   0.0000   0.0000   0.0000   0.0000
     0.0000   0.0000   0.0000   0.0000   0.0000   0.0000   0.0000   0.0000

          k = 0.3333-1.1244 0.3851 (  2126 PWs)   bands (ev):

   -83.4768 -83.4691 -75.3291 -46.8572 -46.7967 -46.7323 -46.7180 -46.7111
   -46.6960 -41.0468 -40.9409 -40.9188  -2.5973  -2.2574  -1.9753  -1.6415
     4.8895   5.5060   5.9235   6.2443   7.0380   7.3058   7.7736   8.0621
     8.1989   8.3214   8.6804   8.8409   9.6238   9.9247  10.2346  10.4121
    10.5656  10.6887  10.8267  11.0254  11.1195  11.4252  11.8361  12.5916
    12.9501  13.2933  13.3731  16.1474  16.9645  17.4568  18.2688  18.7095
    19.5177  20.3487  21.0840  21.3316  21.7885  22.5258  22.6732  23.6561
    23.7950  24.0919  24.7999  24.9822  25.8094  27.0686  27.3208  27.8704

     occupation numbers 
     1.0000   1.0000   1.0000   1.0000   1.0000   1.0000   1.0000   1.0000
     1.0000   1.0000   1.0000   1.0000   1.0000   1.0000   1.0000   1.0000
     1.0000   1.0000   1.0000   1.0000   1.0000   1.0000   1.0000   1.0000
     1.0000   1.0000   1.0000   1.0000   1.0000   1.0000   1.0000   1.0000
     1.0000   1.0000   1.0000   1.0000   1.0000   0.0000   0.0000   0.0000
     0.0000   0.0000   0.0000   0.0000   0.0000   0.0000   0.0000   0.0000
     0.0000   0.0000   0.0000   0.0000   0.0000   0.0000   0.0000   0.0000
     0.0000   0.0000   0.0000   0.0000   0.0000   0.0000   0.0000   0.0000

          k = 0.3333-1.1244-0.3851 (  2126 PWs)   bands (ev):

   -83.4768 -83.4691 -75.3291 -46.8572 -46.7967 -46.7323 -46.7180 -46.7111
   -46.6960 -41.0468 -40.9409 -40.9188  -2.5973  -2.2574  -1.9753  -1.6415
     4.8895   5.5060   5.9235   6.2443   7.0380   7.3058   7.7736   8.0621
     8.1989   8.3214   8.6804   8.8409   9.6238   9.9247  10.2346  10.4121
    10.5656  10.6887  10.8267  11.0254  11.1195  11.4252  11.8361  12.5916
    12.9501  13.2933  13.3731  16.1474  16.9645  17.4568  18.2688  18.7095
    19.5177  20.3487  21.0840  21.3316  21.7885  22.5258  22.6732  23.6561
    23.7950  24.0919  24.7999  24.9822  25.8094  27.0686  27.3208  27.8704

     occupation numbers 
     1.0000   1.0000   1.0000   1.0000   1.0000   1.0000   1.0000   1.0000
     1.0000   1.0000   1.0000   1.0000   1.0000   1.0000   1.0000   1.0000
     1.0000   1.0000   1.0000   1.0000   1.0000   1.0000   1.0000   1.0000
     1.0000   1.0000   1.0000   1.0000   1.0000   1.0000   1.0000   1.0000
     1.0000   1.0000   1.0000   1.0000   1.0000   0.0000   0.0000   0.0000
     0.0000   0.0000   0.0000   0.0000   0.0000   0.0000   0.0000   0.0000
     0.0000   0.0000   0.0000   0.0000   0.0000   0.0000   0.0000   0.0000
     0.0000   0.0000   0.0000   0.0000   0.0000   0.0000   0.0000   0.0000

     highest occupied, lowest unoccupied level (ev):    11.7438   11.3337

!    total energy              =   -1100.36467543 Ry
     estimated scf accuracy    <       0.00000033 Ry

     The total energy is the sum of the following terms:
     one-electron contribution =    -681.11491575 Ry
     hartree contribution      =     377.26565877 Ry
     xc contribution           =    -219.12674762 Ry
     ewald contribution        =    -501.31792898 Ry
     one-center paw contrib.   =     -76.07074187 Ry
      -> PAW hartree energy AE =     214.38326944 Ry
      -> PAW hartree energy PS =    -213.59978680 Ry
      -> PAW xc energy AE      =    -111.36419968 Ry
      -> PAW xc energy PS      =      34.50997518 Ry
      -> total E_H with PAW    =     378.04914141 Ry
      -> total E_XC with PAW   =    -295.98097212 Ry

     convergence has been achieved in  26 iterations

     Writing all to output data dir calculations_bands/myprefix.save/
 
     init_run     :      6.86s CPU      2.04s WALL (       1 calls)
     electrons    :     86.63s CPU     22.90s WALL (       1 calls)

     Called by init_run:
     wfcinit      :      1.09s CPU      0.29s WALL (       1 calls)
     wfcinit:atom :      0.01s CPU      0.00s WALL (       7 calls)
     wfcinit:wfcr :      1.06s CPU      0.28s WALL (       7 calls)
     potinit      :      1.77s CPU      0.47s WALL (       1 calls)
     hinit0       :      3.23s CPU      1.03s WALL (       1 calls)

     Called by electrons:
     c_bands      :     59.59s CPU     15.48s WALL (      26 calls)
     sum_band     :     14.12s CPU      3.88s WALL (      26 calls)
     v_of_rho     :      1.33s CPU      0.35s WALL (      27 calls)
     v_h          :      0.07s CPU      0.02s WALL (      27 calls)
     v_xc         :      1.25s CPU      0.33s WALL (      27 calls)
     newd         :      4.52s CPU      1.29s WALL (      27 calls)
     PAW_pot      :      6.84s CPU      1.82s WALL (      27 calls)
     mix_rho      :      0.47s CPU      0.13s WALL (      26 calls)

     Called by c_bands:
     init_us_2    :      0.29s CPU      0.08s WALL (     371 calls)
     init_us_2:cp :      0.28s CPU      0.08s WALL (     371 calls)
     cegterg      :     44.78s CPU     11.60s WALL (     182 calls)

     Called by sum_band:
     sum_band:wei :      0.02s CPU      0.01s WALL (      26 calls)
     sum_band:loo :      7.86s CPU      2.03s WALL (      26 calls)
     sum_band:buf :      0.07s CPU      0.02s WALL (     182 calls)
     sum_band:ini :      0.14s CPU      0.04s WALL (     182 calls)
     sum_band:cal :      0.32s CPU      0.08s WALL (     182 calls)
     sum_band:bec :      0.06s CPU      0.01s WALL (     182 calls)
     addusdens    :      2.64s CPU      0.90s WALL (      26 calls)
     addusd:skk   :      0.01s CPU      0.00s WALL (      78 calls)
     addusd:dgemm :      0.32s CPU      0.29s WALL (      78 calls)
     addusd:qvan2 :      1.70s CPU      0.43s WALL (      78 calls)

     Called by *egterg:
     cdiaghg      :      7.34s CPU      1.91s WALL (     481 calls)
     cegterg:over :      1.08s CPU      0.28s WALL (     299 calls)
     cegterg:upda :      0.50s CPU      0.13s WALL (     299 calls)
     cegterg:last :      0.66s CPU      0.17s WALL (     234 calls)
     cdiaghg:chol :      0.56s CPU      0.14s WALL (     481 calls)
     cdiaghg:inve :      0.10s CPU      0.03s WALL (     481 calls)
     cdiaghg:para :      1.15s CPU      0.30s WALL (     962 calls)
     h_psi        :     35.15s CPU      9.09s WALL (     488 calls)
     s_psi        :      0.37s CPU      0.09s WALL (     488 calls)
     g_psi        :      0.04s CPU      0.01s WALL (     299 calls)

     Called by h_psi:
     h_psi:calbec :      0.83s CPU      0.22s WALL (     488 calls)
     vloc_psi     :     33.77s CPU      8.73s WALL (     488 calls)
     add_vuspsi   :      0.46s CPU      0.12s WALL (     488 calls)

     General routines
     calbec       :      1.13s CPU      0.29s WALL (     670 calls)
     fft          :      2.95s CPU      0.85s WALL (     349 calls)
     ffts         :      0.68s CPU      0.18s WALL (      53 calls)
     fftw         :     36.08s CPU      9.34s WALL (   62352 calls)
     interpolate  :      0.80s CPU      0.21s WALL (      27 calls)
 
     Parallel routines

     PAW routines
     PAW_pot      :      6.84s CPU      1.82s WALL (      27 calls)
 
     PWSCF        :   1m35.53s CPU     26.56s WALL

 
   This run was terminated on:  22:52:44   5Jun2023            

=------------------------------------------------------------------------------=
   JOB DONE.
=------------------------------------------------------------------------------=
