
     Program PWSCF v.7.0 starts on 23Jun2023 at  6:50: 7 

     This program is part of the open-source Quantum ESPRESSO suite
     for quantum simulation of materials; please cite
         "P. Giannozzi et al., J. Phys.:Condens. Matter 21 395502 (2009);
         "P. Giannozzi et al., J. Phys.:Condens. Matter 29 465901 (2017);
         "P. Giannozzi et al., J. Chem. Phys. 152 154105 (2020);
          URL http://www.quantum-espresso.org", 
     in publications or presentations arising from this work. More details at
     http://www.quantum-espresso.org/quote

     Parallel version (MPI & OpenMP), running on      32 processor cores
     Number of MPI processes:                 8
     Threads/MPI process:                     4

     MPI processes distributed on     1 nodes
     K-points division:     npool     =       2
     R & G space division:  proc/nbgrp/npool/nimage =       4
     168882 MiB available memory on the printing compute node when the environment starts
 
     Reading input from espresso_9122.pwi
Warning: card &CELL ignored
Warning: card / ignored

     Current dimensions of program PWSCF are:
     Max number of different atomic species (ntypx) = 10
     Max number of k-points (npk) =  40000
     Max angular momentum in pseudopotentials (lmaxx) =  4
     file K.pbe-spn-kjpaw_psl.1.0.0.UPF: wavefunction(s)  3S renormalized
     file O.pbe-n-kjpaw_psl.0.1.UPF: wavefunction(s)  2P renormalized
     Message from routine setup:
     using ibrav=0 with symmetry is DISCOURAGED, use correct ibrav instead

     Subspace diagonalization in iterative solution of the eigenvalue problem:
     one sub-group per band group will be used
     scalapack distributed-memory algorithm (size of sub-group:  2*  2 procs)

 
     Parallelization info
     --------------------
     sticks:   dense  smooth     PW     G-vecs:    dense   smooth      PW
     Min         560     279     76                28873    10207    1501
     Max         561     280     77                28878    10209    1503
     Sum        2241    1117    307               115499    40831    6007
 
     Using Slab Decomposition
 


     bravais-lattice index     =            0
     lattice parameter (alat)  =      10.8236  a.u.
     unit-cell volume          =    1840.4591 (a.u.)^3
     number of atoms/cell      =           20
     number of atomic types    =            5
     number of electrons       =       170.00
     number of Kohn-Sham states=           90
     kinetic-energy cutoff     =      30.0000  Ry
     charge density cutoff     =     240.0000  Ry
     scf convergence threshold =      1.0E-06
     mixing beta               =       0.7000
     number of iterations used =            8  plain     mixing
     Exchange-correlation= SLA  PW   PBX  PBC
                           (   1   4   3   4   0   0   0)

     celldm(1)=  10.823583  celldm(2)=   0.000000  celldm(3)=   0.000000
     celldm(4)=   0.000000  celldm(5)=   0.000000  celldm(6)=   0.000000

     crystal axes: (cart. coord. in units of alat)
               a(1) = (   1.000000   0.000000   0.000000 )  
               a(2) = (   0.000000   1.006051   0.000000 )  
               a(3) = (  -0.011349   0.000000   1.442756 )  

     reciprocal axes: (cart. coord. in units 2 pi/alat)
               b(1) = (  1.000000  0.000000  0.007866 )  
               b(2) = (  0.000000  0.993985  0.000000 )  
               b(3) = (  0.000000  0.000000  0.693118 )  


     PseudoPot. # 1 for K  read from file:
     /home/pragov/projects/rrg-bengioy-ad/pragov/crystal_structure_design/SSSP/K.pbe-spn-kjpaw_psl.1.0.0.UPF
     MD5 check sum: 7d58810084cac21f60fbe77ea2b688fd
     Pseudo is Projector augmented-wave + core cor, Zval =  9.0
     Generated using "atomic" code by A. Dal Corso  v.5.1
     Shape of augmentation charge: PSQ
     Using radial grid of 1165 points,  6 beta functions with: 
                l(1) =   0
                l(2) =   0
                l(3) =   1
                l(4) =   1
                l(5) =   2
                l(6) =   2
     Q(r) pseudized with 0 coefficients 


     PseudoPot. # 2 for La read from file:
     /home/pragov/projects/rrg-bengioy-ad/pragov/crystal_structure_design/SSSP/La.GGA-PBE-paw-v1.0.UPF
     MD5 check sum: 436541e95c1ad8901025bd0b0ed42ae2
     Pseudo is Projector augmented-wave + core cor, Zval = 11.0
     Generated using ATOMPAW code
     Shape of augmentation charge: BESSEL
     Using radial grid of 1101 points,  8 beta functions with: 
                l(1) =   0
                l(2) =   0
                l(3) =   1
                l(4) =   1
                l(5) =   2
                l(6) =   2
                l(7) =   3
                l(8) =   3
     Q(r) pseudized with 0 coefficients 


     PseudoPot. # 3 for Mn read from file:
     /home/pragov/projects/rrg-bengioy-ad/pragov/crystal_structure_design/SSSP/mn_pbe_v1.5.uspp.F.UPF
     MD5 check sum: 82ef2b46521d7a7d9e736dc3972e4928
     Pseudo is Ultrasoft + core correction, Zval = 15.0
     Generated by new atomic code, or converted to UPF format
     Using radial grid of  859 points,  6 beta functions with: 
                l(1) =   0
                l(2) =   0
                l(3) =   1
                l(4) =   1
                l(5) =   2
                l(6) =   2
     Q(r) pseudized with  8 coefficients,  rinner =    0.950   0.950   0.950
                                                       0.950   0.950

     PseudoPot. # 4 for W  read from file:
     /home/pragov/projects/rrg-bengioy-ad/pragov/crystal_structure_design/SSSP/W_pbe_v1.2.uspp.F.UPF
     MD5 check sum: 9c083fa34c2a2ea0f02f1f893e16e1c8
     Pseudo is Ultrasoft + core correction, Zval = 14.0
     Generated by new atomic code, or converted to UPF format
     Using radial grid of  923 points,  8 beta functions with: 
                l(1) =   0
                l(2) =   0
                l(3) =   0
                l(4) =   1
                l(5) =   1
                l(6) =   2
                l(7) =   2
                l(8) =   3
     Q(r) pseudized with  6 coefficients,  rinner =    1.350   1.350   1.350
                                                       1.350   1.350   1.350
                                                       1.350

     PseudoPot. # 5 for O  read from file:
     /home/pragov/projects/rrg-bengioy-ad/pragov/crystal_structure_design/SSSP/O.pbe-n-kjpaw_psl.0.1.UPF
     MD5 check sum: 0234752ac141de4415c5fc33072bef88
     Pseudo is Projector augmented-wave + core cor, Zval =  6.0
     Generated using "atomic" code by A. Dal Corso  v.5.0.99 svn rev. 10869
     Shape of augmentation charge: BESSEL
     Using radial grid of 1095 points,  4 beta functions with: 
                l(1) =   0
                l(2) =   0
                l(3) =   1
                l(4) =   1
     Q(r) pseudized with 0 coefficients 


     atomic species   valence    mass     pseudopotential
        K              9.00    39.09830     K ( 1.00)
        La            11.00   138.90547     La( 1.00)
        Mn            15.00    54.93804     Mn( 1.00)
        W             14.00   183.84000     W ( 1.00)
        O              6.00    15.99900     O ( 1.00)

      2 Sym. Ops. (no inversion) found ( 1 have fractional translation)


                                    s                        frac. trans.

      isym =  1     identity                                     

 cryst.   s( 1) = (     1          0          0      )
                  (     0          1          0      )
                  (     0          0          1      )

 cart.    s( 1) = (  1.0000000  0.0000000 -0.0000000 )
                  (  0.0000000  1.0000000  0.0000000 )
                  (  0.0000000  0.0000000  1.0000000 )


      isym =  2     180 deg rotation - cart. axis [0,1,0]        

 cryst.   s( 2) = (    -1          0          0      )    f =(  0.0000000 )
                  (     0          1          0      )       ( -0.5000000 )
                  (     0          0         -1      )       (  0.0000000 )

 cart.    s( 2) = ( -1.0000000  0.0000000  0.0000000 )    f =(  0.0000000 )
                  (  0.0000000  1.0000000  0.0000000 )       ( -0.5030257 )
                  (  0.0000000  0.0000000 -1.0000000 )       (  0.0000000 )


   Cartesian axes

     site n.     atom                  positions (alat units)
         1           K   tau(   1) = (   0.2430976   0.7622801   0.0010648  )
         2           K   tau(   2) = (   0.7455538   0.2592544   1.4416914  )
         3           La  tau(   3) = (   0.2436165   0.8125535   0.7212828  )
         4           La  tau(   4) = (   0.7450350   0.3095278   0.7214733  )
         5           Mn  tau(   5) = (   0.7434692   0.7798598   0.3521277  )
         6           Mn  tau(   6) = (   0.2451822   0.2768342   1.0906284  )
         7           W   tau(   7) = (   0.7490296   0.7739231   1.0825634  )
         8           W   tau(   8) = (   0.2396218   0.2708974   0.3601927  )
         9           O   tau(   9) = (   0.5344509   0.0276855   1.0001532  )
        10           O   tau(  10) = (   0.4542005   0.5307112   0.4426030  )
        11           O   tau(  11) = (   0.5072916   0.0594184   0.4436057  )
        12           O   tau(  12) = (   0.4813598   0.5624441   0.9991505  )
        13           O   tau(  13) = (   0.9759579   0.4748643   0.3549671  )
        14           O   tau(  14) = (   0.0126935   0.9778900   1.0877891  )
        15           O   tau(  15) = (   0.9414531   0.4968888   1.0920466  )
        16           O   tau(  16) = (   0.0471983   0.9999145   0.3507095  )
        17           O   tau(  17) = (   0.8200095   0.7513453   0.7292844  )
        18           O   tau(  18) = (   0.1686419   0.2483196   0.7134718  )
        19           O   tau(  19) = (   0.6963093   0.7789624   1.4061520  )
        20           O   tau(  20) = (   0.2923421   0.2759368   0.0366042  )

   Crystallographic axes

     site n.     atom                  positions (cryst. coord.)
         1           K   tau(   1) = (  0.2431060  0.7576950  0.0007380  )
         2           K   tau(   2) = (  0.7568940  0.2576950  0.9992620  )
         3           La  tau(   3) = (  0.2492900  0.8076660  0.4999340  )
         4           La  tau(   4) = (  0.7507100  0.3076660  0.5000660  )
         5           Mn  tau(   5) = (  0.7462390  0.7751690  0.2440660  )
         6           Mn  tau(   6) = (  0.2537610  0.2751690  0.7559340  )
         7           W   tau(   7) = (  0.7575450  0.7692680  0.7503440  )
         8           W   tau(   8) = (  0.2424550  0.2692680  0.2496560  )
         9           O   tau(   9) = (  0.5423180  0.0275190  0.6932240  )
        10           O   tau(  10) = (  0.4576820  0.5275190  0.3067760  )
        11           O   tau(  11) = (  0.5107810  0.0590610  0.3074710  )
        12           O   tau(  12) = (  0.4892190  0.5590610  0.6925290  )
        13           O   tau(  13) = (  0.9787500  0.4720080  0.2460340  )
        14           O   tau(  14) = (  0.0212500  0.9720080  0.7539660  )
        15           O   tau(  15) = (  0.9500430  0.4939000  0.7569170  )
        16           O   tau(  16) = (  0.0499570  0.9939000  0.2430830  )
        17           O   tau(  17) = (  0.8257460  0.7468260  0.5054800  )
        18           O   tau(  18) = (  0.1742540  0.2468260  0.4945200  )
        19           O   tau(  19) = (  0.7073700  0.7742770  0.9746290  )
        20           O   tau(  20) = (  0.2926300  0.2742770  0.0253710  )

     number of k points=    10
                       cart. coord. in units 2pi/alat
        k(    1) = (   0.0000000   0.0000000   0.0000000), wk =   0.0740741
        k(    2) = (   0.0000000   0.0000000   0.2310393), wk =   0.1481481
        k(    3) = (   0.0000000   0.3313283   0.0000000), wk =   0.1481481
        k(    4) = (   0.0000000   0.3313283   0.2310393), wk =   0.2962963
        k(    5) = (   0.3333333   0.0000000   0.0026220), wk =   0.1481481
        k(    6) = (   0.3333333   0.0000000   0.2336612), wk =   0.1481481
        k(    7) = (   0.3333333   0.0000000  -0.2284173), wk =   0.1481481
        k(    8) = (   0.3333333   0.3313283   0.0026220), wk =   0.2962963
        k(    9) = (   0.3333333   0.3313283   0.2336612), wk =   0.2962963
        k(   10) = (   0.3333333   0.3313283  -0.2284173), wk =   0.2962963

                       cryst. coord.
        k(    1) = (   0.0000000   0.0000000   0.0000000), wk =   0.0740741
        k(    2) = (   0.0000000   0.0000000   0.3333333), wk =   0.1481481
        k(    3) = (   0.0000000   0.3333333   0.0000000), wk =   0.1481481
        k(    4) = (   0.0000000   0.3333333   0.3333333), wk =   0.2962963
        k(    5) = (   0.3333333   0.0000000   0.0000000), wk =   0.1481481
        k(    6) = (   0.3333333   0.0000000   0.3333333), wk =   0.1481481
        k(    7) = (   0.3333333   0.0000000  -0.3333333), wk =   0.1481481
        k(    8) = (   0.3333333   0.3333333   0.0000000), wk =   0.2962963
        k(    9) = (   0.3333333   0.3333333   0.3333333), wk =   0.2962963
        k(   10) = (   0.3333333   0.3333333  -0.3333333), wk =   0.2962963

     Dense  grid:   115499 G-vectors     FFT dimensions: (  54,  54,  80)

     Smooth grid:    40831 G-vectors     FFT dimensions: (  40,  40,  60)

     Dynamical RAM for                 wfc:       1.75 MB

     Dynamical RAM for     wfc (w. buffer):      10.51 MB

     Dynamical RAM for           str. fact:       2.20 MB

     Dynamical RAM for           local pot:       0.00 MB

     Dynamical RAM for          nlocal pot:       5.53 MB

     Dynamical RAM for                qrad:      14.93 MB

     Dynamical RAM for          rho,v,vnew:       2.66 MB

     Dynamical RAM for               rhoin:       0.89 MB

     Dynamical RAM for            rho*nmix:       7.05 MB

     Dynamical RAM for           G-vectors:       1.73 MB

     Dynamical RAM for          h,s,v(r/c):       0.37 MB

     Dynamical RAM for          <psi|beta>:       0.39 MB

     Dynamical RAM for                 psi:       3.50 MB

     Dynamical RAM for                hpsi:       3.50 MB

     Dynamical RAM for                spsi:       3.50 MB

     Dynamical RAM for      wfcinit/wfcrot:       7.75 MB

     Dynamical RAM for           addusdens:     125.14 MB

     Estimated static dynamical RAM per process >      43.32 MB

     Estimated max dynamical RAM per process >     175.51 MB

     Estimated total dynamical RAM >       1.34 GB

     Check: negative core charge=   -0.000015

     Initial potential from superposition of free atoms

     starting charge     168.7444, renormalised to     170.0000

     negative rho (up, down):  1.265E-01 0.000E+00
     Starting wfcs are  180 randomized atomic wfcs
     Checking if some PAW data can be deallocated... 
       PAW data deallocated on    7 nodes for type:  1
       PAW data deallocated on    6 nodes for type:  2
       PAW data deallocated on    2 nodes for type:  5

     total cpu time spent up to now is        5.9 secs

     Self-consistent Calculation

     iteration #  1     ecut=    30.00 Ry     beta= 0.70
     Davidson diagonalization with overlap

---- Real-time Memory Report at c_bands before calling an iterative solver
           313 MiB given to the printing process from OS
             0 MiB allocation reported by mallinfo(arena+hblkhd)
        167774 MiB available memory on the node where the printing process lives
------------------
     ethr =  1.00E-02,  avg # of iterations =  1.2

     negative rho (up, down):  1.192E-01 0.000E+00

     total cpu time spent up to now is        8.1 secs

     total energy              =   -2380.35262952 Ry
     estimated scf accuracy    <       5.99227877 Ry

     iteration #  2     ecut=    30.00 Ry     beta= 0.70
     Davidson diagonalization with overlap

---- Real-time Memory Report at c_bands before calling an iterative solver
           434 MiB given to the printing process from OS
             0 MiB allocation reported by mallinfo(arena+hblkhd)
        167068 MiB available memory on the node where the printing process lives
------------------
     ethr =  3.52E-03,  avg # of iterations =  7.2

     negative rho (up, down):  1.256E-01 0.000E+00

     total cpu time spent up to now is       10.6 secs

     total energy              =   -2377.02268007 Ry
     estimated scf accuracy    <      37.03201290 Ry

     iteration #  3     ecut=    30.00 Ry     beta= 0.70
     Davidson diagonalization with overlap

---- Real-time Memory Report at c_bands before calling an iterative solver
           453 MiB given to the printing process from OS
             0 MiB allocation reported by mallinfo(arena+hblkhd)
        166916 MiB available memory on the node where the printing process lives
------------------
     ethr =  3.52E-03,  avg # of iterations =  6.9

     negative rho (up, down):  1.259E-01 0.000E+00

     total cpu time spent up to now is       13.0 secs

     total energy              =   -2382.40800101 Ry
     estimated scf accuracy    <      28.55897026 Ry

     iteration #  4     ecut=    30.00 Ry     beta= 0.70
     Davidson diagonalization with overlap

---- Real-time Memory Report at c_bands before calling an iterative solver
           461 MiB given to the printing process from OS
             0 MiB allocation reported by mallinfo(arena+hblkhd)
        166903 MiB available memory on the node where the printing process lives
------------------
     ethr =  3.52E-03,  avg # of iterations =  7.3

     negative rho (up, down):  1.240E-01 0.000E+00

     total cpu time spent up to now is       15.0 secs

     total energy              =   -2383.62531112 Ry
     estimated scf accuracy    <       1.03989507 Ry

     iteration #  5     ecut=    30.00 Ry     beta= 0.70
     Davidson diagonalization with overlap

---- Real-time Memory Report at c_bands before calling an iterative solver
           461 MiB given to the printing process from OS
             0 MiB allocation reported by mallinfo(arena+hblkhd)
        166905 MiB available memory on the node where the printing process lives
------------------
     ethr =  6.12E-04,  avg # of iterations = 10.9

     negative rho (up, down):  1.226E-01 0.000E+00

     total cpu time spent up to now is       17.5 secs

     total energy              =   -2383.73995993 Ry
     estimated scf accuracy    <       0.31810270 Ry

     iteration #  6     ecut=    30.00 Ry     beta= 0.70
     Davidson diagonalization with overlap

---- Real-time Memory Report at c_bands before calling an iterative solver
           465 MiB given to the printing process from OS
             0 MiB allocation reported by mallinfo(arena+hblkhd)
        166866 MiB available memory on the node where the printing process lives
------------------
     ethr =  1.87E-04,  avg # of iterations =  6.7

     negative rho (up, down):  1.218E-01 0.000E+00

     total cpu time spent up to now is       19.5 secs

     total energy              =   -2383.72868427 Ry
     estimated scf accuracy    <       0.17564018 Ry

     iteration #  7     ecut=    30.00 Ry     beta= 0.70
     Davidson diagonalization with overlap

---- Real-time Memory Report at c_bands before calling an iterative solver
           466 MiB given to the printing process from OS
             0 MiB allocation reported by mallinfo(arena+hblkhd)
        166867 MiB available memory on the node where the printing process lives
------------------
     ethr =  1.03E-04,  avg # of iterations =  4.7

     negative rho (up, down):  1.215E-01 0.000E+00

     total cpu time spent up to now is       21.5 secs

     total energy              =   -2383.73904845 Ry
     estimated scf accuracy    <       0.06682316 Ry

     iteration #  8     ecut=    30.00 Ry     beta= 0.70
     Davidson diagonalization with overlap

---- Real-time Memory Report at c_bands before calling an iterative solver
           469 MiB given to the printing process from OS
             0 MiB allocation reported by mallinfo(arena+hblkhd)
        166937 MiB available memory on the node where the printing process lives
------------------
     ethr =  3.93E-05,  avg # of iterations =  9.2

     negative rho (up, down):  1.215E-01 0.000E+00

     total cpu time spent up to now is       23.8 secs

     total energy              =   -2383.75497906 Ry
     estimated scf accuracy    <       0.06209440 Ry

     iteration #  9     ecut=    30.00 Ry     beta= 0.70
     Davidson diagonalization with overlap

---- Real-time Memory Report at c_bands before calling an iterative solver
           469 MiB given to the printing process from OS
             0 MiB allocation reported by mallinfo(arena+hblkhd)
        166916 MiB available memory on the node where the printing process lives
------------------
     ethr =  3.65E-05,  avg # of iterations =  1.2

     negative rho (up, down):  1.215E-01 0.000E+00

     total cpu time spent up to now is       25.5 secs

     total energy              =   -2383.75679113 Ry
     estimated scf accuracy    <       0.02544449 Ry

     iteration # 10     ecut=    30.00 Ry     beta= 0.70
     Davidson diagonalization with overlap

---- Real-time Memory Report at c_bands before calling an iterative solver
           474 MiB given to the printing process from OS
             0 MiB allocation reported by mallinfo(arena+hblkhd)
        166879 MiB available memory on the node where the printing process lives
------------------
     ethr =  1.50E-05,  avg # of iterations =  4.3

     negative rho (up, down):  1.215E-01 0.000E+00

     total cpu time spent up to now is       28.2 secs

     total energy              =   -2383.75616666 Ry
     estimated scf accuracy    <       0.01487319 Ry

     iteration # 11     ecut=    30.00 Ry     beta= 0.70
     Davidson diagonalization with overlap

---- Real-time Memory Report at c_bands before calling an iterative solver
           474 MiB given to the printing process from OS
             0 MiB allocation reported by mallinfo(arena+hblkhd)
        166815 MiB available memory on the node where the printing process lives
------------------
     ethr =  8.75E-06,  avg # of iterations =  4.9

     negative rho (up, down):  1.216E-01 0.000E+00

     total cpu time spent up to now is       30.3 secs

     total energy              =   -2383.75636475 Ry
     estimated scf accuracy    <       0.00444201 Ry

     iteration # 12     ecut=    30.00 Ry     beta= 0.70
     Davidson diagonalization with overlap

---- Real-time Memory Report at c_bands before calling an iterative solver
           475 MiB given to the printing process from OS
             0 MiB allocation reported by mallinfo(arena+hblkhd)
        166820 MiB available memory on the node where the printing process lives
------------------
     ethr =  2.61E-06,  avg # of iterations =  9.4

     negative rho (up, down):  1.215E-01 0.000E+00

     total cpu time spent up to now is       32.9 secs

     total energy              =   -2383.75663821 Ry
     estimated scf accuracy    <       0.00081256 Ry

     iteration # 13     ecut=    30.00 Ry     beta= 0.70
     Davidson diagonalization with overlap

---- Real-time Memory Report at c_bands before calling an iterative solver
           475 MiB given to the printing process from OS
             0 MiB allocation reported by mallinfo(arena+hblkhd)
        166820 MiB available memory on the node where the printing process lives
------------------
     ethr =  4.78E-07,  avg # of iterations =  9.5

     negative rho (up, down):  1.215E-01 0.000E+00

     total cpu time spent up to now is       35.6 secs

     total energy              =   -2383.75696254 Ry
     estimated scf accuracy    <       0.00259053 Ry

     iteration # 14     ecut=    30.00 Ry     beta= 0.70
     Davidson diagonalization with overlap

---- Real-time Memory Report at c_bands before calling an iterative solver
           475 MiB given to the printing process from OS
             0 MiB allocation reported by mallinfo(arena+hblkhd)
        166944 MiB available memory on the node where the printing process lives
------------------
     ethr =  4.78E-07,  avg # of iterations =  1.4

     negative rho (up, down):  1.215E-01 0.000E+00

     total cpu time spent up to now is       37.3 secs

     total energy              =   -2383.75695645 Ry
     estimated scf accuracy    <       0.00083932 Ry

     iteration # 15     ecut=    30.00 Ry     beta= 0.70
     Davidson diagonalization with overlap

---- Real-time Memory Report at c_bands before calling an iterative solver
           476 MiB given to the printing process from OS
             0 MiB allocation reported by mallinfo(arena+hblkhd)
        166868 MiB available memory on the node where the printing process lives
------------------
     ethr =  4.78E-07,  avg # of iterations =  4.0

     negative rho (up, down):  1.215E-01 0.000E+00

     total cpu time spent up to now is       39.2 secs

     total energy              =   -2383.75696177 Ry
     estimated scf accuracy    <       0.00022244 Ry

     iteration # 16     ecut=    30.00 Ry     beta= 0.70
     Davidson diagonalization with overlap

---- Real-time Memory Report at c_bands before calling an iterative solver
           476 MiB given to the printing process from OS
             0 MiB allocation reported by mallinfo(arena+hblkhd)
        166868 MiB available memory on the node where the printing process lives
------------------
     ethr =  1.31E-07,  avg # of iterations =  7.6

     negative rho (up, down):  1.215E-01 0.000E+00

     total cpu time spent up to now is       41.3 secs

     total energy              =   -2383.75702673 Ry
     estimated scf accuracy    <       0.00005600 Ry

     iteration # 17     ecut=    30.00 Ry     beta= 0.70
     Davidson diagonalization with overlap

---- Real-time Memory Report at c_bands before calling an iterative solver
           477 MiB given to the printing process from OS
             0 MiB allocation reported by mallinfo(arena+hblkhd)
        166860 MiB available memory on the node where the printing process lives
------------------
     ethr =  3.29E-08,  avg # of iterations =  2.0

     negative rho (up, down):  1.216E-01 0.000E+00

     total cpu time spent up to now is       43.2 secs

     total energy              =   -2383.75702534 Ry
     estimated scf accuracy    <       0.00002820 Ry

     iteration # 18     ecut=    30.00 Ry     beta= 0.70
     Davidson diagonalization with overlap

---- Real-time Memory Report at c_bands before calling an iterative solver
           477 MiB given to the printing process from OS
             0 MiB allocation reported by mallinfo(arena+hblkhd)
        166861 MiB available memory on the node where the printing process lives
------------------
     ethr =  1.66E-08,  avg # of iterations =  4.2

     negative rho (up, down):  1.216E-01 0.000E+00

     total cpu time spent up to now is       45.1 secs

     total energy              =   -2383.75702552 Ry
     estimated scf accuracy    <       0.00000987 Ry

     iteration # 19     ecut=    30.00 Ry     beta= 0.70
     Davidson diagonalization with overlap

---- Real-time Memory Report at c_bands before calling an iterative solver
           477 MiB given to the printing process from OS
             0 MiB allocation reported by mallinfo(arena+hblkhd)
        166860 MiB available memory on the node where the printing process lives
------------------
     ethr =  5.81E-09,  avg # of iterations =  7.6

     negative rho (up, down):  1.215E-01 0.000E+00

     total cpu time spent up to now is       47.2 secs

     End of self-consistent calculation

          k = 0.0000 0.0000 0.0000 (  5125 PWs)   bands (ev):

   -68.5293 -68.5286 -65.5326 -65.5323 -37.3035 -37.2966 -37.2508 -37.2440
   -37.2311 -37.2290 -29.7781 -29.7780 -29.7655 -29.7655 -29.7414 -29.7413
   -21.4683 -21.3884 -18.7636 -18.7377  -8.9947  -8.7670  -8.4117  -8.3646
    -8.1181  -8.0933  -7.9548  -7.9285  -7.6484  -7.6080  -7.6059  -7.5077
    -5.1669  -5.1171  -4.9710  -4.6305  -4.5907  -4.4346  -2.3920  -2.3911
    -2.3233  -2.2793  -2.2538  -2.2482   3.5994   3.6902   4.2809   4.3959
     4.4023   4.4209   4.5534   4.9964   5.0093   5.0532   5.0906   5.1622
     5.8825   5.9092   5.9409   6.1405   6.1630   6.4423   6.5813   6.8366
     7.1526   7.2038   7.2940   7.2984   7.3903   7.4504   7.5508   7.6721
     7.7540   7.9656   8.0021   8.1277   8.1699   8.2288   8.2901   8.3005
    10.1707  10.1723  10.3099  10.3306  10.7329  10.7532  11.2400  11.2908
    11.3459  11.4519

     occupation numbers 
     1.0000   1.0000   1.0000   1.0000   1.0000   1.0000   1.0000   1.0000
     1.0000   1.0000   1.0000   1.0000   1.0000   1.0000   1.0000   1.0000
     1.0000   1.0000   1.0000   1.0000   1.0000   1.0000   1.0000   1.0000
     1.0000   1.0000   1.0000   1.0000   1.0000   1.0000   1.0000   1.0000
     1.0000   1.0000   1.0000   1.0000   1.0000   1.0000   1.0000   1.0000
     1.0000   1.0000   1.0000   1.0000   1.0000   1.0000   1.0000   1.0000
     1.0000   1.0000   1.0000   1.0000   1.0000   1.0000   1.0000   1.0000
     1.0000   1.0000   1.0000   1.0000   1.0000   1.0000   1.0000   1.0000
     1.0000   1.0000   1.0000   1.0000   1.0000   1.0000   1.0000   1.0000
     1.0000   1.0000   1.0000   1.0000   1.0000   1.0000   1.0000   1.0000
     1.0000   1.0000   1.0000   1.0000   1.0000   0.0000   0.0000   0.0000
     0.0000   0.0000

          k = 0.0000 0.0000 0.2310 (  5104 PWs)   bands (ev):

   -68.5289 -68.5287 -65.5324 -65.5324 -37.2981 -37.2971 -37.2466 -37.2447
   -37.2325 -37.2306 -29.7780 -29.7778 -29.7655 -29.7655 -29.7414 -29.7413
   -21.4683 -21.3884 -18.7636 -18.7377  -8.9966  -8.7415  -8.3909  -8.3689
    -8.1118  -8.0951  -7.9551  -7.9440  -7.6650  -7.6262  -7.6155  -7.5067
    -5.1678  -5.1171  -4.9686  -4.6286  -4.5851  -4.4285  -2.3970  -2.3946
    -2.3290  -2.2818  -2.2546  -2.2491   3.7438   3.8317   4.3524   4.4029
     4.4220   4.4580   4.5395   4.9266   4.9469   5.0338   5.1320   5.1936
     5.8306   5.9063   5.9474   6.1042   6.1189   6.3445   6.6291   6.7755
     7.0886   7.1363   7.2588   7.2818   7.3827   7.4900   7.6486   7.6668
     7.7158   7.7506   7.9166   8.1397   8.1594   8.2076   8.2750   8.2860
    10.1701  10.1858  10.4483  10.4611  10.7064  10.7279  11.2893  11.3288
    11.5551  11.6945

     occupation numbers 
     1.0000   1.0000   1.0000   1.0000   1.0000   1.0000   1.0000   1.0000
     1.0000   1.0000   1.0000   1.0000   1.0000   1.0000   1.0000   1.0000
     1.0000   1.0000   1.0000   1.0000   1.0000   1.0000   1.0000   1.0000
     1.0000   1.0000   1.0000   1.0000   1.0000   1.0000   1.0000   1.0000
     1.0000   1.0000   1.0000   1.0000   1.0000   1.0000   1.0000   1.0000
     1.0000   1.0000   1.0000   1.0000   1.0000   1.0000   1.0000   1.0000
     1.0000   1.0000   1.0000   1.0000   1.0000   1.0000   1.0000   1.0000
     1.0000   1.0000   1.0000   1.0000   1.0000   1.0000   1.0000   1.0000
     1.0000   1.0000   1.0000   1.0000   1.0000   1.0000   1.0000   1.0000
     1.0000   1.0000   1.0000   1.0000   1.0000   1.0000   1.0000   1.0000
     1.0000   1.0000   1.0000   1.0000   1.0000   0.0000   0.0000   0.0000
     0.0000   0.0000

          k = 0.0000 0.3313 0.0000 (  5125 PWs)   bands (ev):

   -68.5291 -68.5290 -65.5324 -65.5324 -37.3014 -37.2999 -37.2468 -37.2449
   -37.2330 -37.2321 -29.7780 -29.7779 -29.7655 -29.7655 -29.7413 -29.7413
   -21.4476 -21.4076 -18.7566 -18.7437  -8.8907  -8.8143  -8.4275  -8.3513
    -8.2091  -8.0894  -7.9153  -7.8753  -7.8129  -7.7009  -7.5856  -7.5843
    -4.9636  -4.9091  -4.8492  -4.6806  -4.6359  -4.5210  -2.3680  -2.3226
    -2.3136  -2.2992  -2.2600  -2.2198   3.8130   3.9529   4.2925   4.3452
     4.4148   4.4874   4.7392   4.7576   4.9024   5.0351   5.0530   5.0960
     5.7627   5.8140   6.0501   6.1478   6.2436   6.3508   6.7105   6.8596
     6.8918   7.0626   7.0731   7.1999   7.3057   7.3332   7.4514   7.5712
     7.5955   7.7308   7.7428   7.9170   7.9315   8.0857   8.2536   8.2824
    10.3735  10.3802  10.5565  10.5724  10.6731  10.6770  11.2952  11.3855
    11.5279  11.6184

     occupation numbers 
     1.0000   1.0000   1.0000   1.0000   1.0000   1.0000   1.0000   1.0000
     1.0000   1.0000   1.0000   1.0000   1.0000   1.0000   1.0000   1.0000
     1.0000   1.0000   1.0000   1.0000   1.0000   1.0000   1.0000   1.0000
     1.0000   1.0000   1.0000   1.0000   1.0000   1.0000   1.0000   1.0000
     1.0000   1.0000   1.0000   1.0000   1.0000   1.0000   1.0000   1.0000
     1.0000   1.0000   1.0000   1.0000   1.0000   1.0000   1.0000   1.0000
     1.0000   1.0000   1.0000   1.0000   1.0000   1.0000   1.0000   1.0000
     1.0000   1.0000   1.0000   1.0000   1.0000   1.0000   1.0000   1.0000
     1.0000   1.0000   1.0000   1.0000   1.0000   1.0000   1.0000   1.0000
     1.0000   1.0000   1.0000   1.0000   1.0000   1.0000   1.0000   1.0000
     1.0000   1.0000   1.0000   1.0000   1.0000   0.0000   0.0000   0.0000
     0.0000   0.0000

          k = 0.0000 0.3313 0.2310 (  5110 PWs)   bands (ev):

   -68.5289 -68.5288 -65.5324 -65.5324 -37.2996 -37.2987 -37.2464 -37.2451
   -37.2317 -37.2312 -29.7780 -29.7779 -29.7655 -29.7655 -29.7413 -29.7413
   -21.4476 -21.4076 -18.7567 -18.7437  -8.8932  -8.7937  -8.3823  -8.3455
    -8.2084  -8.1012  -7.9804  -7.8920  -7.8294  -7.6861  -7.5845  -7.5690
    -4.9658  -4.9100  -4.8475  -4.6791  -4.6395  -4.5193  -2.3692  -2.3221
    -2.3124  -2.2991  -2.2602  -2.2199   4.0122   4.1439   4.2842   4.3338
     4.4053   4.4398   4.7198   4.7993   4.9514   5.0593   5.0820   5.1055
     5.6170   5.6610   6.0775   6.1765   6.2974   6.3388   6.5708   6.7379
     6.7836   6.8893   6.9652   7.0041   7.4173   7.4602   7.5364   7.5955
     7.6298   7.7046   7.8252   7.8672   7.9823   8.0530   8.2362   8.2606
    10.4667  10.4790  10.5616  10.5729  10.6523  10.6707  11.4617  11.5348
    11.6054  11.6860

     occupation numbers 
     1.0000   1.0000   1.0000   1.0000   1.0000   1.0000   1.0000   1.0000
     1.0000   1.0000   1.0000   1.0000   1.0000   1.0000   1.0000   1.0000
     1.0000   1.0000   1.0000   1.0000   1.0000   1.0000   1.0000   1.0000
     1.0000   1.0000   1.0000   1.0000   1.0000   1.0000   1.0000   1.0000
     1.0000   1.0000   1.0000   1.0000   1.0000   1.0000   1.0000   1.0000
     1.0000   1.0000   1.0000   1.0000   1.0000   1.0000   1.0000   1.0000
     1.0000   1.0000   1.0000   1.0000   1.0000   1.0000   1.0000   1.0000
     1.0000   1.0000   1.0000   1.0000   1.0000   1.0000   1.0000   1.0000
     1.0000   1.0000   1.0000   1.0000   1.0000   1.0000   1.0000   1.0000
     1.0000   1.0000   1.0000   1.0000   1.0000   1.0000   1.0000   1.0000
     1.0000   1.0000   1.0000   1.0000   1.0000   0.0000   0.0000   0.0000
     0.0000   0.0000

          k = 0.3333 0.0000 0.0026 (  5127 PWs)   bands (ev):

   -68.5290 -68.5290 -65.5325 -65.5324 -37.3017 -37.2997 -37.2479 -37.2475
   -37.2319 -37.2306 -29.7781 -29.7779 -29.7656 -29.7655 -29.7414 -29.7413
   -21.4475 -21.4075 -18.7567 -18.7435  -8.9344  -8.8516  -8.5094  -8.2252
    -8.1795  -8.0940  -7.9413  -7.9006  -7.7749  -7.7056  -7.5652  -7.5276
    -5.0925  -5.0466  -4.8389  -4.6388  -4.5740  -4.3978  -2.3626  -2.3388
    -2.3103  -2.2726  -2.2639  -2.2203   3.8015   3.9409   4.3003   4.3790
     4.3975   4.4335   4.7076   4.7211   4.8598   5.0222   5.0784   5.1194
     5.6809   5.7867   6.0622   6.1114   6.2419   6.3475   6.6975   6.7947
     6.9307   6.9714   7.1837   7.2367   7.3327   7.3664   7.4269   7.5061
     7.6097   7.7532   7.8571   7.9261   8.0829   8.1336   8.1954   8.3541
    10.3130  10.4046  10.5229  10.5630  10.6493  10.6900  11.2411  11.4655
    11.5494  11.5829

     occupation numbers 
     1.0000   1.0000   1.0000   1.0000   1.0000   1.0000   1.0000   1.0000
     1.0000   1.0000   1.0000   1.0000   1.0000   1.0000   1.0000   1.0000
     1.0000   1.0000   1.0000   1.0000   1.0000   1.0000   1.0000   1.0000
     1.0000   1.0000   1.0000   1.0000   1.0000   1.0000   1.0000   1.0000
     1.0000   1.0000   1.0000   1.0000   1.0000   1.0000   1.0000   1.0000
     1.0000   1.0000   1.0000   1.0000   1.0000   1.0000   1.0000   1.0000
     1.0000   1.0000   1.0000   1.0000   1.0000   1.0000   1.0000   1.0000
     1.0000   1.0000   1.0000   1.0000   1.0000   1.0000   1.0000   1.0000
     1.0000   1.0000   1.0000   1.0000   1.0000   1.0000   1.0000   1.0000
     1.0000   1.0000   1.0000   1.0000   1.0000   1.0000   1.0000   1.0000
     1.0000   1.0000   1.0000   1.0000   1.0000   0.0000   0.0000   0.0000
     0.0000   0.0000

          k = 0.3333 0.0000 0.2337 (  5102 PWs)   bands (ev):

   -68.5290 -68.5288 -65.5324 -65.5324 -37.2999 -37.2980 -37.2475 -37.2452
   -37.2302 -37.2295 -29.7781 -29.7778 -29.7655 -29.7654 -29.7413 -29.7413
   -21.4475 -21.4075 -18.7568 -18.7435  -8.9359  -8.8302  -8.4773  -8.2073
    -8.1692  -8.0885  -8.0059  -7.9650  -7.8040  -7.6623  -7.5559  -7.5151
    -5.0919  -5.0489  -4.8356  -4.6425  -4.5724  -4.4005  -2.3638  -2.3399
    -2.3090  -2.2699  -2.2647  -2.2201   3.9711   4.1098   4.3350   4.3720
     4.4090   4.4427   4.6465   4.7757   4.9326   5.0122   5.0883   5.1058
     5.5143   5.6201   6.1372   6.2238   6.2590   6.3683   6.5272   6.6466
     6.8389   6.9060   7.0024   7.0081   7.3650   7.4435   7.5052   7.6294
     7.7341   7.7653   7.8238   7.9657   8.0663   8.1260   8.1746   8.3261
    10.4261  10.4627  10.5257  10.5688  10.6519  10.6940  11.4656  11.5175
    11.5550  11.7461

     occupation numbers 
     1.0000   1.0000   1.0000   1.0000   1.0000   1.0000   1.0000   1.0000
     1.0000   1.0000   1.0000   1.0000   1.0000   1.0000   1.0000   1.0000
     1.0000   1.0000   1.0000   1.0000   1.0000   1.0000   1.0000   1.0000
     1.0000   1.0000   1.0000   1.0000   1.0000   1.0000   1.0000   1.0000
     1.0000   1.0000   1.0000   1.0000   1.0000   1.0000   1.0000   1.0000
     1.0000   1.0000   1.0000   1.0000   1.0000   1.0000   1.0000   1.0000
     1.0000   1.0000   1.0000   1.0000   1.0000   1.0000   1.0000   1.0000
     1.0000   1.0000   1.0000   1.0000   1.0000   1.0000   1.0000   1.0000
     1.0000   1.0000   1.0000   1.0000   1.0000   1.0000   1.0000   1.0000
     1.0000   1.0000   1.0000   1.0000   1.0000   1.0000   1.0000   1.0000
     1.0000   1.0000   1.0000   1.0000   1.0000   0.0000   0.0000   0.0000
     0.0000   0.0000

          k = 0.3333 0.0000-0.2284 (  5097 PWs)   bands (ev):

   -68.5288 -68.5288 -65.5324 -65.5324 -37.2989 -37.2981 -37.2468 -37.2455
   -37.2306 -37.2290 -29.7781 -29.7778 -29.7655 -29.7654 -29.7414 -29.7413
   -21.4475 -21.4075 -18.7568 -18.7435  -8.9314  -8.8365  -8.4900  -8.2217
    -8.1647  -8.0763  -7.9637  -7.9440  -7.8249  -7.6937  -7.5601  -7.5105
    -5.0916  -5.0493  -4.8357  -4.6393  -4.5765  -4.3988  -2.3632  -2.3373
    -2.3102  -2.2707  -2.2643  -2.2201   3.9971   4.1213   4.2803   4.3788
     4.3957   4.4310   4.6609   4.7601   4.9307   5.0464   5.0827   5.1167
     5.5844   5.6748   6.1409   6.1801   6.2289   6.2725   6.5053   6.6760
     6.7769   6.9250   6.9410   7.1611   7.3857   7.4540   7.5091   7.6024
     7.6892   7.7621   7.7964   7.9717   8.0835   8.1533   8.1962   8.3313
    10.4274  10.4809  10.5271  10.5569  10.6446  10.6721  11.4549  11.5707
    11.5824  11.6646

     occupation numbers 
     1.0000   1.0000   1.0000   1.0000   1.0000   1.0000   1.0000   1.0000
     1.0000   1.0000   1.0000   1.0000   1.0000   1.0000   1.0000   1.0000
     1.0000   1.0000   1.0000   1.0000   1.0000   1.0000   1.0000   1.0000
     1.0000   1.0000   1.0000   1.0000   1.0000   1.0000   1.0000   1.0000
     1.0000   1.0000   1.0000   1.0000   1.0000   1.0000   1.0000   1.0000
     1.0000   1.0000   1.0000   1.0000   1.0000   1.0000   1.0000   1.0000
     1.0000   1.0000   1.0000   1.0000   1.0000   1.0000   1.0000   1.0000
     1.0000   1.0000   1.0000   1.0000   1.0000   1.0000   1.0000   1.0000
     1.0000   1.0000   1.0000   1.0000   1.0000   1.0000   1.0000   1.0000
     1.0000   1.0000   1.0000   1.0000   1.0000   1.0000   1.0000   1.0000
     1.0000   1.0000   1.0000   1.0000   1.0000   0.0000   0.0000   0.0000
     0.0000   0.0000

          k = 0.3333 0.3313 0.0026 (  5106 PWs)   bands (ev):

   -68.5289 -68.5289 -65.5324 -65.5324 -37.3004 -37.2979 -37.2468 -37.2450
   -37.2312 -37.2300 -29.7780 -29.7779 -29.7656 -29.7656 -29.7414 -29.7414
   -21.4365 -21.4165 -18.7529 -18.7463  -9.0055  -8.9708  -8.4637  -8.2628
    -8.0820  -8.0514  -7.9407  -7.8317  -7.7606  -7.7080  -7.6714  -7.5823
    -5.0688  -4.9248  -4.8676  -4.6546  -4.4775  -4.3493  -2.3240  -2.2959
    -2.2869  -2.2809  -2.2372  -2.2207   3.6492   3.6850   4.3296   4.3993
     4.4336   4.5450   4.6019   4.6863   4.8642   4.9632   5.0191   5.1769
     5.9137   6.0226   6.0752   6.1966   6.2464   6.2897   6.6351   6.7697
     6.8005   6.9134   7.0858   7.1596   7.2237   7.3077   7.3807   7.5458
     7.6241   7.6660   7.7500   7.7874   7.9278   7.9829   8.1709   8.3562
    10.3210  10.3975  10.6455  10.7112  10.7320  10.7640  11.2125  11.3719
    11.5621  11.6257

     occupation numbers 
     1.0000   1.0000   1.0000   1.0000   1.0000   1.0000   1.0000   1.0000
     1.0000   1.0000   1.0000   1.0000   1.0000   1.0000   1.0000   1.0000
     1.0000   1.0000   1.0000   1.0000   1.0000   1.0000   1.0000   1.0000
     1.0000   1.0000   1.0000   1.0000   1.0000   1.0000   1.0000   1.0000
     1.0000   1.0000   1.0000   1.0000   1.0000   1.0000   1.0000   1.0000
     1.0000   1.0000   1.0000   1.0000   1.0000   1.0000   1.0000   1.0000
     1.0000   1.0000   1.0000   1.0000   1.0000   1.0000   1.0000   1.0000
     1.0000   1.0000   1.0000   1.0000   1.0000   1.0000   1.0000   1.0000
     1.0000   1.0000   1.0000   1.0000   1.0000   1.0000   1.0000   1.0000
     1.0000   1.0000   1.0000   1.0000   1.0000   1.0000   1.0000   1.0000
     1.0000   1.0000   1.0000   1.0000   1.0000   0.0000   0.0000   0.0000
     0.0000   0.0000

          k = 0.3333 0.3313 0.2337 (  5103 PWs)   bands (ev):

   -68.5289 -68.5288 -65.5324 -65.5324 -37.2996 -37.2985 -37.2466 -37.2450
   -37.2313 -37.2303 -29.7780 -29.7779 -29.7656 -29.7655 -29.7414 -29.7414
   -21.4365 -21.4165 -18.7530 -18.7463  -8.9911  -8.9483  -8.4587  -8.2729
    -8.1134  -8.0842  -7.9417  -7.8314  -7.7710  -7.7147  -7.6413  -7.5669
    -5.0689  -4.9250  -4.8696  -4.6548  -4.4802  -4.3515  -2.3246  -2.2963
    -2.2856  -2.2803  -2.2383  -2.2223   3.7839   3.8282   4.3445   4.3967
     4.4402   4.4924   4.6547   4.7691   4.8713   4.9512   5.0336   5.1531
     5.7597   5.9299   6.0081   6.1390   6.2003   6.3155   6.6196   6.7199
     6.8138   6.8926   7.0057   7.0863   7.1596   7.3148   7.3866   7.5734
     7.6109   7.6710   7.7209   7.8620   7.9101   7.9954   8.1781   8.2785
    10.4642  10.5002  10.6202  10.6981  10.7132  10.7409  11.4457  11.5180
    11.5889  11.6385

     occupation numbers 
     1.0000   1.0000   1.0000   1.0000   1.0000   1.0000   1.0000   1.0000
     1.0000   1.0000   1.0000   1.0000   1.0000   1.0000   1.0000   1.0000
     1.0000   1.0000   1.0000   1.0000   1.0000   1.0000   1.0000   1.0000
     1.0000   1.0000   1.0000   1.0000   1.0000   1.0000   1.0000   1.0000
     1.0000   1.0000   1.0000   1.0000   1.0000   1.0000   1.0000   1.0000
     1.0000   1.0000   1.0000   1.0000   1.0000   1.0000   1.0000   1.0000
     1.0000   1.0000   1.0000   1.0000   1.0000   1.0000   1.0000   1.0000
     1.0000   1.0000   1.0000   1.0000   1.0000   1.0000   1.0000   1.0000
     1.0000   1.0000   1.0000   1.0000   1.0000   1.0000   1.0000   1.0000
     1.0000   1.0000   1.0000   1.0000   1.0000   1.0000   1.0000   1.0000
     1.0000   1.0000   1.0000   1.0000   1.0000   0.0000   0.0000   0.0000
     0.0000   0.0000

          k = 0.3333 0.3313-0.2284 (  5102 PWs)   bands (ev):

   -68.5290 -68.5288 -65.5324 -65.5324 -37.2992 -37.2985 -37.2469 -37.2450
   -37.2311 -37.2298 -29.7780 -29.7779 -29.7656 -29.7656 -29.7414 -29.7414
   -21.4365 -21.4165 -18.7530 -18.7463  -8.9879  -8.9514  -8.4657  -8.2941
    -8.1159  -8.0431  -7.9320  -7.8253  -7.7664  -7.7077  -7.6625  -7.5848
    -5.0687  -4.9253  -4.8692  -4.6546  -4.4809  -4.3500  -2.3246  -2.2967
    -2.2858  -2.2804  -2.2380  -2.2218   3.7939   3.8078   4.3593   4.3813
     4.4489   4.5477   4.6430   4.7948   4.8300   4.9513   5.0068   5.1580
     5.7487   5.8904   6.0109   6.1825   6.2314   6.2911   6.6443   6.7339
     6.7950   6.8719   7.0280   7.0688   7.1705   7.3158   7.3623   7.5163
     7.6103   7.6906   7.7271   7.8595   7.9252   8.0354   8.1608   8.2864
    10.4568  10.4778  10.6500  10.6852  10.7224  10.7419  11.4090  11.5208
    11.5706  11.6926

     occupation numbers 
     1.0000   1.0000   1.0000   1.0000   1.0000   1.0000   1.0000   1.0000
     1.0000   1.0000   1.0000   1.0000   1.0000   1.0000   1.0000   1.0000
     1.0000   1.0000   1.0000   1.0000   1.0000   1.0000   1.0000   1.0000
     1.0000   1.0000   1.0000   1.0000   1.0000   1.0000   1.0000   1.0000
     1.0000   1.0000   1.0000   1.0000   1.0000   1.0000   1.0000   1.0000
     1.0000   1.0000   1.0000   1.0000   1.0000   1.0000   1.0000   1.0000
     1.0000   1.0000   1.0000   1.0000   1.0000   1.0000   1.0000   1.0000
     1.0000   1.0000   1.0000   1.0000   1.0000   1.0000   1.0000   1.0000
     1.0000   1.0000   1.0000   1.0000   1.0000   1.0000   1.0000   1.0000
     1.0000   1.0000   1.0000   1.0000   1.0000   1.0000   1.0000   1.0000
     1.0000   1.0000   1.0000   1.0000   1.0000   0.0000   0.0000   0.0000
     0.0000   0.0000

     highest occupied, lowest unoccupied level (ev):    10.7329   10.6707

!    total energy              =   -2383.75702777 Ry
     estimated scf accuracy    <       0.00000069 Ry

     The total energy is the sum of the following terms:
     one-electron contribution =    -516.68749132 Ry
     hartree contribution      =     351.06379637 Ry
     xc contribution           =    -264.29924455 Ry
     ewald contribution        =    -932.52672542 Ry
     one-center paw contrib.   =   -1021.30736284 Ry
      -> PAW hartree energy AE =     110.46456869 Ry
      -> PAW hartree energy PS =    -110.09406342 Ry
      -> PAW xc energy AE      =    -537.80676877 Ry
      -> PAW xc energy PS      =      28.50592973 Ry
      -> total E_H with PAW    =     351.43430165 Ry
      -> total E_XC with PAW   =    -773.60008360 Ry

     convergence has been achieved in  19 iterations

     Writing all to output data dir calculations_bands/myprefix.save/
 
     init_run     :     15.82s CPU      5.22s WALL (       1 calls)
     electrons    :    152.81s CPU     41.40s WALL (       1 calls)

     Called by init_run:
     wfcinit      :      3.90s CPU      1.02s WALL (       1 calls)
     wfcinit:atom :      0.03s CPU      0.01s WALL (       5 calls)
     wfcinit:wfcr :      3.64s CPU      0.95s WALL (       5 calls)
     potinit      :      4.84s CPU      1.29s WALL (       1 calls)
     hinit0       :      5.71s CPU      2.52s WALL (       1 calls)

     Called by electrons:
     c_bands      :     80.34s CPU     21.23s WALL (      19 calls)
     sum_band     :     22.93s CPU      6.79s WALL (      19 calls)
     v_of_rho     :      1.36s CPU      0.35s WALL (      20 calls)
     v_h          :      0.11s CPU      0.03s WALL (      20 calls)
     v_xc         :      1.25s CPU      0.33s WALL (      20 calls)
     newd         :     14.29s CPU      4.10s WALL (      20 calls)
     PAW_pot      :     35.75s CPU      9.42s WALL (      20 calls)
     mix_rho      :      0.45s CPU      0.12s WALL (      19 calls)

     Called by c_bands:
     init_us_2    :      0.70s CPU      0.18s WALL (     195 calls)
     init_us_2:cp :      0.69s CPU      0.18s WALL (     195 calls)
     cegterg      :     70.21s CPU     18.57s WALL (      95 calls)

     Called by sum_band:
     sum_band:wei :      0.01s CPU      0.00s WALL (      19 calls)
     sum_band:loo :      8.30s CPU      2.14s WALL (      19 calls)
     sum_band:buf :      0.14s CPU      0.04s WALL (      95 calls)
     sum_band:ini :      0.32s CPU      0.08s WALL (      95 calls)
     sum_band:cal :      0.73s CPU      0.19s WALL (      95 calls)
     sum_band:bec :      0.17s CPU      0.04s WALL (      95 calls)
     addusdens    :     12.92s CPU      4.19s WALL (      19 calls)
     addusd:skk   :      0.04s CPU      0.01s WALL (      95 calls)
     addusd:dgemm :      2.88s CPU      1.62s WALL (      95 calls)
     addusd:qvan2 :      8.81s CPU      2.21s WALL (      95 calls)

     Called by *egterg:
     cdiaghg      :     18.14s CPU      4.79s WALL (     652 calls)
     cegterg:over :      2.82s CPU      0.77s WALL (     557 calls)
     cegterg:upda :      1.92s CPU      0.51s WALL (     557 calls)
     cegterg:last :      2.87s CPU      0.75s WALL (     198 calls)
     cdiaghg:chol :      1.18s CPU      0.31s WALL (     652 calls)
     cdiaghg:inve :      0.23s CPU      0.06s WALL (     652 calls)
     cdiaghg:para :      3.39s CPU      0.91s WALL (    1304 calls)
     h_psi        :     44.21s CPU     11.68s WALL (     657 calls)
     s_psi        :      2.09s CPU      0.54s WALL (     657 calls)
     g_psi        :      0.09s CPU      0.02s WALL (     557 calls)

     Called by h_psi:
     h_psi:calbec :      2.50s CPU      0.66s WALL (     657 calls)
     vloc_psi     :     39.08s CPU     10.33s WALL (     657 calls)
     add_vuspsi   :      2.41s CPU      0.62s WALL (     657 calls)

     General routines
     calbec       :      3.21s CPU      0.84s WALL (     752 calls)
     fft          :      1.97s CPU      0.51s WALL (     258 calls)
     ffts         :      1.21s CPU      0.34s WALL (      39 calls)
     fftw         :     38.68s CPU     10.17s WALL (   53162 calls)
     interpolate  :      1.29s CPU      0.36s WALL (      20 calls)
 
     Parallel routines

     PAW routines
     PAW_pot      :     35.75s CPU      9.42s WALL (      20 calls)
     PAW_symme    :      0.07s CPU      0.02s WALL (      39 calls)
 
     PWSCF        :   2m50.14s CPU     47.84s WALL

 
   This run was terminated on:   6:50:55  23Jun2023            

=------------------------------------------------------------------------------=
   JOB DONE.
=------------------------------------------------------------------------------=
