
     Program PWSCF v.7.0 starts on  5Jun2023 at 22:48:10 

     This program is part of the open-source Quantum ESPRESSO suite
     for quantum simulation of materials; please cite
         "P. Giannozzi et al., J. Phys.:Condens. Matter 21 395502 (2009);
         "P. Giannozzi et al., J. Phys.:Condens. Matter 29 465901 (2017);
         "P. Giannozzi et al., J. Chem. Phys. 152 154105 (2020);
          URL http://www.quantum-espresso.org", 
     in publications or presentations arising from this work. More details at
     http://www.quantum-espresso.org/quote

     Parallel version (MPI & OpenMP), running on      32 processor cores
     Number of MPI processes:                 8
     Threads/MPI process:                     4

     MPI processes distributed on     1 nodes
     K-points division:     npool     =       2
     R & G space division:  proc/nbgrp/npool/nimage =       4
     31729 MiB available memory on the printing compute node when the environment starts
 
     Reading input from espresso_12181.pwi
Warning: card &CELL ignored
Warning: card / ignored

     Current dimensions of program PWSCF are:
     Max number of different atomic species (ntypx) = 10
     Max number of k-points (npk) =  40000
     Max angular momentum in pseudopotentials (lmaxx) =  4
     file Al.pbe-n-kjpaw_psl.1.0.0.UPF: wavefunction(s)  3S 3P renormalized
     file C.pbe-n-kjpaw_psl.1.0.0.UPF: wavefunction(s)  2S 2P renormalized
     Message from routine setup:
     using ibrav=0 with symmetry is DISCOURAGED, use correct ibrav instead

     Subspace diagonalization in iterative solution of the eigenvalue problem:
     one sub-group per band group will be used
     scalapack distributed-memory algorithm (size of sub-group:  2*  2 procs)

 
     Parallelization info
     --------------------
     sticks:   dense  smooth     PW     G-vecs:    dense   smooth      PW
     Min         162      78     24                21728     7638    1334
     Max         163      79     25                21743     7667    1345
     Sum         649     313     97                86939    30587    5349
 
     Using Slab Decomposition
 


     bravais-lattice index     =            0
     lattice parameter (alat)  =       6.2210  a.u.
     unit-cell volume          =    1383.0215 (a.u.)^3
     number of atoms/cell      =           18
     number of atomic types    =            3
     number of electrons       =        64.00
     number of Kohn-Sham states=           64
     kinetic-energy cutoff     =      30.0000  Ry
     charge density cutoff     =     240.0000  Ry
     scf convergence threshold =      1.0E-06
     mixing beta               =       0.7000
     number of iterations used =            8  plain     mixing
     Exchange-correlation= SLA  PW   PBX  PBC
                           (   1   4   3   4   0   0   0)

     celldm(1)=   6.220964  celldm(2)=   0.000000  celldm(3)=   0.000000
     celldm(4)=   0.000000  celldm(5)=   0.000000  celldm(6)=   0.000000

     crystal axes: (cart. coord. in units of alat)
               a(1) = (   1.000000   0.000000   0.000000 )  
               a(2) = (  -0.500000   0.866025   0.000000 )  
               a(3) = (   0.000000   0.000000   6.633234 )  

     reciprocal axes: (cart. coord. in units 2 pi/alat)
               b(1) = (  1.000000  0.577350  0.000000 )  
               b(2) = (  0.000000  1.154701  0.000000 )  
               b(3) = (  0.000000  0.000000  0.150756 )  


     PseudoPot. # 1 for Al read from file:
     /home/pragov/projects/rrg-bengioy-ad/pragov/crystal_structure_design/SSSP/Al.pbe-n-kjpaw_psl.1.0.0.UPF
     MD5 check sum: cfc449ca30b5f3223ec38ddd88ac046d
     Pseudo is Projector augmented-wave + core cor, Zval =  3.0
     Generated using "atomic" code by A. Dal Corso  v.5.1
     Shape of augmentation charge: PSQ
     Using radial grid of 1135 points,  6 beta functions with: 
                l(1) =   0
                l(2) =   0
                l(3) =   1
                l(4) =   1
                l(5) =   2
                l(6) =   2
     Q(r) pseudized with 0 coefficients 


     PseudoPot. # 2 for Si read from file:
     /home/pragov/projects/rrg-bengioy-ad/pragov/crystal_structure_design/SSSP/Si.pbe-n-rrkjus_psl.1.0.0.UPF
     MD5 check sum: 0b0bb1205258b0d07b9f9672cf965d36
     Pseudo is Ultrasoft + core correction, Zval =  4.0
     Generated using "atomic" code by A. Dal Corso  v.5.1
     Using radial grid of 1141 points,  6 beta functions with: 
                l(1) =   0
                l(2) =   0
                l(3) =   1
                l(4) =   1
                l(5) =   2
                l(6) =   2
     Q(r) pseudized with 0 coefficients 


     PseudoPot. # 3 for C  read from file:
     /home/pragov/projects/rrg-bengioy-ad/pragov/crystal_structure_design/SSSP/C.pbe-n-kjpaw_psl.1.0.0.UPF
     MD5 check sum: 5d2aebdfa2cae82b50a7e79e9516da0f
     Pseudo is Projector augmented-wave + core cor, Zval =  4.0
     Generated using "atomic" code by A. Dal Corso  v.5.1
     Shape of augmentation charge: PSQ
     Using radial grid of 1073 points,  4 beta functions with: 
                l(1) =   0
                l(2) =   0
                l(3) =   1
                l(4) =   1
     Q(r) pseudized with 0 coefficients 


     atomic species   valence    mass     pseudopotential
        Al             3.00    26.98154     Al( 1.00)
        Si             4.00    28.08500     Si( 1.00)
        C              4.00    12.01100     C ( 1.00)

     12 Sym. Ops. (no inversion) found ( 6 have fractional translation)


                                    s                        frac. trans.

      isym =  1     identity                                     

 cryst.   s( 1) = (     1          0          0      )
                  (     0          1          0      )
                  (     0          0          1      )

 cart.    s( 1) = (  1.0000000 -0.0000000  0.0000000 )
                  (  0.0000000  1.0000000  0.0000000 )
                  (  0.0000000  0.0000000  1.0000000 )


      isym =  2     180 deg rotation - cart. axis [0,0,1]        

 cryst.   s( 2) = (    -1          0          0      )    f =(  0.0000000 )
                  (     0         -1          0      )       (  0.0000000 )
                  (     0          0          1      )       (  0.5000000 )

 cart.    s( 2) = ( -1.0000000  0.0000000  0.0000000 )    f =(  0.0000000 )
                  (  0.0000000 -1.0000000  0.0000000 )       (  0.0000000 )
                  (  0.0000000  0.0000000  1.0000000 )       (  3.3166169 )


      isym =  3      60 deg rotation - cryst. axis [0,0,1]       

 cryst.   s( 3) = (     1          1          0      )    f =(  0.0000000 )
                  (    -1          0          0      )       (  0.0000000 )
                  (     0          0          1      )       (  0.5000000 )

 cart.    s( 3) = (  0.4999999 -0.8660254  0.0000000 )    f =(  0.0000000 )
                  (  0.8660254  0.5000001  0.0000000 )       (  0.0000000 )
                  (  0.0000000  0.0000000  1.0000000 )       (  3.3166169 )


      isym =  4      60 deg rotation - cryst. axis [0,0,-1]      

 cryst.   s( 4) = (     0         -1          0      )    f =(  0.0000000 )
                  (     1          1          0      )       (  0.0000000 )
                  (     0          0          1      )       (  0.5000000 )

 cart.    s( 4) = (  0.5000001  0.8660254  0.0000000 )    f =(  0.0000000 )
                  ( -0.8660254  0.4999999  0.0000000 )       (  0.0000000 )
                  (  0.0000000  0.0000000  1.0000000 )       (  3.3166169 )


      isym =  5     120 deg rotation - cryst. axis [0,0,1]       

 cryst.   s( 5) = (     0          1          0      )
                  (    -1         -1          0      )
                  (     0          0          1      )

 cart.    s( 5) = ( -0.5000001 -0.8660254  0.0000000 )
                  (  0.8660254 -0.4999999  0.0000000 )
                  (  0.0000000  0.0000000  1.0000000 )


      isym =  6     120 deg rotation - cryst. axis [0,0,-1]      

 cryst.   s( 6) = (    -1         -1          0      )
                  (     1          0          0      )
                  (     0          0          1      )

 cart.    s( 6) = ( -0.4999999  0.8660254  0.0000000 )
                  ( -0.8660254 -0.5000001  0.0000000 )
                  (  0.0000000  0.0000000  1.0000000 )


      isym =  7     inv. 180 deg rotation - cart. axis [0,1,0]   

 cryst.   s( 7) = (     1          0          0      )    f =(  0.0000000 )
                  (    -1         -1          0      )       (  0.0000000 )
                  (     0          0          1      )       (  0.5000000 )

 cart.    s( 7) = (  1.0000000  0.0000002  0.0000000 )    f =(  0.0000000 )
                  (  0.0000000 -1.0000000  0.0000000 )       (  0.0000000 )
                  (  0.0000000  0.0000000  1.0000000 )       (  3.3166169 )


      isym =  8     inv. 180 deg rotation - cart. axis [1,0,0]   

 cryst.   s( 8) = (    -1          0          0      )
                  (     1          1          0      )
                  (     0          0          1      )

 cart.    s( 8) = ( -1.0000000 -0.0000002  0.0000000 )
                  (  0.0000000  1.0000000  0.0000000 )
                  (  0.0000000  0.0000000  1.0000000 )


      isym =  9     inv. 180 deg rotation - cryst. axis [1,-1,0] 

 cryst.   s( 9) = (     0          1          0      )    f =(  0.0000000 )
                  (     1          0          0      )       (  0.0000000 )
                  (     0          0          1      )       (  0.5000000 )

 cart.    s( 9) = ( -0.5000001  0.8660254  0.0000000 )    f =(  0.0000000 )
                  (  0.8660254  0.5000001  0.0000000 )       (  0.0000000 )
                  (  0.0000000  0.0000000  1.0000000 )       (  3.3166169 )


      isym = 10     inv. 180 deg rotation - cryst. axis [2,1,0]  

 cryst.   s(10) = (    -1         -1          0      )    f =(  0.0000000 )
                  (     0          1          0      )       (  0.0000000 )
                  (     0          0          1      )       (  0.5000000 )

 cart.    s(10) = ( -0.4999999 -0.8660255  0.0000000 )    f =(  0.0000000 )
                  ( -0.8660254  0.4999999  0.0000000 )       (  0.0000000 )
                  (  0.0000000  0.0000000  1.0000000 )       (  3.3166169 )


      isym = 11     inv. 180 deg rotation - cryst. axis [0,1,0]  

 cryst.   s(11) = (     1          1          0      )
                  (     0         -1          0      )
                  (     0          0          1      )

 cart.    s(11) = (  0.4999999  0.8660255  0.0000000 )
                  (  0.8660254 -0.4999999  0.0000000 )
                  (  0.0000000  0.0000000  1.0000000 )


      isym = 12     inv. 180 deg rotation - cryst. axis [1,1,0]  

 cryst.   s(12) = (     0         -1          0      )
                  (    -1          0          0      )
                  (     0          0          1      )

 cart.    s(12) = (  0.5000001 -0.8660254  0.0000000 )
                  ( -0.8660254 -0.5000001  0.0000000 )
                  (  0.0000000  0.0000000  1.0000000 )


   Cartesian axes

     site n.     atom                  positions (alat units)
         1           Al  tau(   1) = (   0.0000000   0.0000000   5.6241995  )
         2           Al  tau(   2) = (   0.0000000   0.0000000   2.3075826  )
         3           Al  tau(   3) = (   0.5000005   0.2886748   5.0582851  )
         4           Al  tau(   4) = (  -0.0000006   0.5773505   1.7416683  )
         5           Al  tau(   5) = (   0.5000005   0.2886748   6.3152630  )
         6           Al  tau(   6) = (  -0.0000006   0.5773505   2.9986462  )
         7           Al  tau(   7) = (   0.5000005   0.2886748   3.6095537  )
         8           Al  tau(   8) = (  -0.0000006   0.5773505   0.2929369  )
         9           Si  tau(   9) = (   0.0000000   0.0000000   4.3888525  )
        10           Si  tau(  10) = (   0.0000000   0.0000000   1.0722357  )
        11           C   tau(  11) = (   0.0000000   0.0000000   4.9584815  )
        12           C   tau(  12) = (   0.0000000   0.0000000   1.6418646  )
        13           C   tau(  13) = (   0.5000005   0.2886748   5.7310940  )
        14           C   tau(  14) = (  -0.0000006   0.5773505   2.4144772  )
        15           C   tau(  15) = (   0.5000005   0.2886748   4.2085281  )
        16           C   tau(  16) = (  -0.0000006   0.5773505   0.8919112  )
        17           C   tau(  17) = (   0.0000000   0.0000000   6.6246105  )
        18           C   tau(  18) = (   0.0000000   0.0000000   3.3079936  )

   Crystallographic axes

     site n.     atom                  positions (cryst. coord.)
         1           Al  tau(   1) = (  0.0000000  0.0000000  0.8478820  )
         2           Al  tau(   2) = (  0.0000000  0.0000000  0.3478820  )
         3           Al  tau(   3) = (  0.6666670  0.3333330  0.7625670  )
         4           Al  tau(   4) = (  0.3333330  0.6666670  0.2625670  )
         5           Al  tau(   5) = (  0.6666670  0.3333330  0.9520640  )
         6           Al  tau(   6) = (  0.3333330  0.6666670  0.4520640  )
         7           Al  tau(   7) = (  0.6666670  0.3333330  0.5441620  )
         8           Al  tau(   8) = (  0.3333330  0.6666670  0.0441620  )
         9           Si  tau(   9) = (  0.0000000  0.0000000  0.6616460  )
        10           Si  tau(  10) = (  0.0000000  0.0000000  0.1616460  )
        11           C   tau(  11) = (  0.0000000  0.0000000  0.7475210  )
        12           C   tau(  12) = (  0.0000000  0.0000000  0.2475210  )
        13           C   tau(  13) = (  0.6666670  0.3333330  0.8639970  )
        14           C   tau(  14) = (  0.3333330  0.6666670  0.3639970  )
        15           C   tau(  15) = (  0.6666670  0.3333330  0.6344610  )
        16           C   tau(  16) = (  0.3333330  0.6666670  0.1344610  )
        17           C   tau(  17) = (  0.0000000  0.0000000  0.9987000  )
        18           C   tau(  18) = (  0.0000000  0.0000000  0.4987000  )

     number of k points=     6
                       cart. coord. in units 2pi/alat
        k(    1) = (   0.0000000   0.0000000   0.0000000), wk =   0.0740741
        k(    2) = (   0.0000000   0.0000000   0.0502520), wk =   0.1481481
        k(    3) = (   0.0000000   0.3849002   0.0000000), wk =   0.4444444
        k(    4) = (   0.0000000   0.3849002   0.0502520), wk =   0.8888889
        k(    5) = (   0.3333333   0.5773503   0.0000000), wk =   0.1481481
        k(    6) = (   0.3333333   0.5773503   0.0502520), wk =   0.2962963

                       cryst. coord.
        k(    1) = (   0.0000000   0.0000000   0.0000000), wk =   0.0740741
        k(    2) = (   0.0000000   0.0000000   0.3333333), wk =   0.1481481
        k(    3) = (   0.0000000   0.3333333   0.0000000), wk =   0.4444444
        k(    4) = (   0.0000000   0.3333333   0.3333333), wk =   0.8888889
        k(    5) = (   0.3333333   0.3333333   0.0000000), wk =   0.1481481
        k(    6) = (   0.3333333   0.3333333   0.3333333), wk =   0.2962963

     Dense  grid:    86939 G-vectors     FFT dimensions: (  32,  32, 216)

     Smooth grid:    30587 G-vectors     FFT dimensions: (  24,  24, 144)

     Dynamical RAM for                 wfc:       0.94 MB

     Dynamical RAM for     wfc (w. buffer):       3.75 MB

     Dynamical RAM for           str. fact:       0.99 MB

     Dynamical RAM for           local pot:       0.00 MB

     Dynamical RAM for          nlocal pot:       3.57 MB

     Dynamical RAM for                qrad:       3.73 MB

     Dynamical RAM for          rho,v,vnew:       2.26 MB

     Dynamical RAM for               rhoin:       0.75 MB

     Dynamical RAM for            rho*nmix:       5.30 MB

     Dynamical RAM for           G-vectors:       1.30 MB

     Dynamical RAM for          h,s,v(r/c):       0.19 MB

     Dynamical RAM for          <psi|beta>:       0.24 MB

     Dynamical RAM for                 psi:       1.87 MB

     Dynamical RAM for                hpsi:       1.87 MB

     Dynamical RAM for                spsi:       1.87 MB

     Dynamical RAM for      wfcinit/wfcrot:       2.23 MB

     Dynamical RAM for           addusdens:      32.33 MB

     Estimated static dynamical RAM per process >      19.79 MB

     Estimated max dynamical RAM per process >      57.42 MB

     Estimated total dynamical RAM >     438.18 MB

     Check: negative core charge=   -0.000010

     Initial potential from superposition of free atoms

     starting charge      63.9802, renormalised to      64.0000
     Starting wfcs are   72 randomized atomic wfcs
     Checking if some PAW data can be deallocated... 
       PAW data deallocated on    5 nodes for type:  1
       PAW data deallocated on    4 nodes for type:  3

     total cpu time spent up to now is        2.8 secs

     Self-consistent Calculation

     iteration #  1     ecut=    30.00 Ry     beta= 0.70
     Davidson diagonalization with overlap

---- Real-time Memory Report at c_bands before calling an iterative solver
           195 MiB given to the printing process from OS
             0 MiB allocation reported by mallinfo(arena+hblkhd)
         30525 MiB available memory on the node where the printing process lives
------------------
     ethr =  1.00E-02,  avg # of iterations =  4.2

     total cpu time spent up to now is        3.8 secs

     total energy              =    -484.36993376 Ry
     estimated scf accuracy    <       4.69754968 Ry

     iteration #  2     ecut=    30.00 Ry     beta= 0.70
     Davidson diagonalization with overlap

---- Real-time Memory Report at c_bands before calling an iterative solver
           258 MiB given to the printing process from OS
             0 MiB allocation reported by mallinfo(arena+hblkhd)
         29748 MiB available memory on the node where the printing process lives
------------------
     ethr =  7.34E-03,  avg # of iterations =  4.0

     total cpu time spent up to now is        5.3 secs

     total energy              =    -480.61832443 Ry
     estimated scf accuracy    <      23.55306176 Ry

     iteration #  3     ecut=    30.00 Ry     beta= 0.70
     Davidson diagonalization with overlap

---- Real-time Memory Report at c_bands before calling an iterative solver
           265 MiB given to the printing process from OS
             0 MiB allocation reported by mallinfo(arena+hblkhd)
         28954 MiB available memory on the node where the printing process lives
------------------
     ethr =  7.34E-03,  avg # of iterations =  4.7

     total cpu time spent up to now is        6.6 secs

     total energy              =    -482.30529862 Ry
     estimated scf accuracy    <      51.81281332 Ry

     iteration #  4     ecut=    30.00 Ry     beta= 0.70
     Davidson diagonalization with overlap

---- Real-time Memory Report at c_bands before calling an iterative solver
           270 MiB given to the printing process from OS
             0 MiB allocation reported by mallinfo(arena+hblkhd)
         28607 MiB available memory on the node where the printing process lives
------------------
     ethr =  7.34E-03,  avg # of iterations =  3.0

     total cpu time spent up to now is        7.6 secs

     total energy              =    -486.28843035 Ry
     estimated scf accuracy    <       0.64858780 Ry

     iteration #  5     ecut=    30.00 Ry     beta= 0.70
     Davidson diagonalization with overlap

---- Real-time Memory Report at c_bands before calling an iterative solver
           270 MiB given to the printing process from OS
             0 MiB allocation reported by mallinfo(arena+hblkhd)
         27889 MiB available memory on the node where the printing process lives
------------------
     ethr =  1.01E-03,  avg # of iterations =  5.7

     total cpu time spent up to now is        8.8 secs

     total energy              =    -486.31945376 Ry
     estimated scf accuracy    <       0.16834940 Ry

     iteration #  6     ecut=    30.00 Ry     beta= 0.70
     Davidson diagonalization with overlap

---- Real-time Memory Report at c_bands before calling an iterative solver
           270 MiB given to the printing process from OS
             0 MiB allocation reported by mallinfo(arena+hblkhd)
         27331 MiB available memory on the node where the printing process lives
------------------
     ethr =  2.63E-04,  avg # of iterations =  4.5

     total cpu time spent up to now is       10.0 secs

     total energy              =    -486.30989706 Ry
     estimated scf accuracy    <       0.06943466 Ry

     iteration #  7     ecut=    30.00 Ry     beta= 0.70
     Davidson diagonalization with overlap

---- Real-time Memory Report at c_bands before calling an iterative solver
           270 MiB given to the printing process from OS
             0 MiB allocation reported by mallinfo(arena+hblkhd)
         26606 MiB available memory on the node where the printing process lives
------------------
     ethr =  1.08E-04,  avg # of iterations =  3.7

     total cpu time spent up to now is       10.7 secs

     total energy              =    -486.31271358 Ry
     estimated scf accuracy    <       0.01765589 Ry

     iteration #  8     ecut=    30.00 Ry     beta= 0.70
     Davidson diagonalization with overlap

---- Real-time Memory Report at c_bands before calling an iterative solver
           270 MiB given to the printing process from OS
             0 MiB allocation reported by mallinfo(arena+hblkhd)
         26925 MiB available memory on the node where the printing process lives
------------------
     ethr =  2.76E-05,  avg # of iterations =  7.0

     total cpu time spent up to now is       11.5 secs

     total energy              =    -486.31309208 Ry
     estimated scf accuracy    <       0.00570436 Ry

     iteration #  9     ecut=    30.00 Ry     beta= 0.70
     Davidson diagonalization with overlap

---- Real-time Memory Report at c_bands before calling an iterative solver
           270 MiB given to the printing process from OS
             0 MiB allocation reported by mallinfo(arena+hblkhd)
         26412 MiB available memory on the node where the printing process lives
------------------
     ethr =  8.91E-06,  avg # of iterations =  7.7

     total cpu time spent up to now is       13.2 secs

     total energy              =    -486.31271060 Ry
     estimated scf accuracy    <       0.00296626 Ry

     iteration # 10     ecut=    30.00 Ry     beta= 0.70
     Davidson diagonalization with overlap

---- Real-time Memory Report at c_bands before calling an iterative solver
           270 MiB given to the printing process from OS
             0 MiB allocation reported by mallinfo(arena+hblkhd)
         25872 MiB available memory on the node where the printing process lives
------------------
     ethr =  4.63E-06,  avg # of iterations =  7.5

     total cpu time spent up to now is       15.4 secs

     total energy              =    -486.31256631 Ry
     estimated scf accuracy    <       0.00096854 Ry

     iteration # 11     ecut=    30.00 Ry     beta= 0.70
     Davidson diagonalization with overlap

---- Real-time Memory Report at c_bands before calling an iterative solver
           270 MiB given to the printing process from OS
             0 MiB allocation reported by mallinfo(arena+hblkhd)
         24423 MiB available memory on the node where the printing process lives
------------------
     ethr =  1.51E-06,  avg # of iterations =  5.7

     total cpu time spent up to now is       16.3 secs

     total energy              =    -486.31259825 Ry
     estimated scf accuracy    <       0.00011303 Ry

     iteration # 12     ecut=    30.00 Ry     beta= 0.70
     Davidson diagonalization with overlap

---- Real-time Memory Report at c_bands before calling an iterative solver
           271 MiB given to the printing process from OS
             0 MiB allocation reported by mallinfo(arena+hblkhd)
         25136 MiB available memory on the node where the printing process lives
------------------
     ethr =  1.77E-07,  avg # of iterations =  1.5

     total cpu time spent up to now is       16.9 secs

     total energy              =    -486.31260727 Ry
     estimated scf accuracy    <       0.00000882 Ry

     iteration # 13     ecut=    30.00 Ry     beta= 0.70
     Davidson diagonalization with overlap

---- Real-time Memory Report at c_bands before calling an iterative solver
           271 MiB given to the printing process from OS
             0 MiB allocation reported by mallinfo(arena+hblkhd)
         24902 MiB available memory on the node where the printing process lives
------------------
     ethr =  1.38E-08,  avg # of iterations =  2.0

     total cpu time spent up to now is       17.5 secs

     End of self-consistent calculation

          k = 0.0000 0.0000 0.0000 (  3911 PWs)   bands (ev):

    -5.8068  -5.7316  -5.2754  -5.0255  -4.3424  -3.9704  -2.8107  -2.4821
     0.8490   1.7848   2.2070   4.0825   4.4367   6.4930   6.8920   6.9877
     6.9877   7.0066   7.0066   7.2584   7.2584   7.3008   7.3008   7.8762
     7.8763   7.9156   7.9156   8.0983   8.4595   8.4595   8.4834   8.4834
    11.7010  11.7629  11.7789  12.0415  13.1817  13.2484  14.0391  14.0391
    14.1311  14.1311  14.2084  14.2126  14.5143  14.5143  14.6437  14.6438
    15.1566  15.4480  15.9360  15.9429  16.3149  16.3545  16.3876  16.3876
    16.4681  16.4681  17.6236  17.6236  17.8902  17.8902  17.9249  17.9760

     occupation numbers 
     1.0000   1.0000   1.0000   1.0000   1.0000   1.0000   1.0000   1.0000
     1.0000   1.0000   1.0000   1.0000   1.0000   1.0000   1.0000   1.0000
     1.0000   1.0000   1.0000   1.0000   1.0000   1.0000   1.0000   1.0000
     1.0000   1.0000   1.0000   1.0000   1.0000   1.0000   1.0000   1.0000
     0.0000   0.0000   0.0000   0.0000   0.0000   0.0000   0.0000   0.0000
     0.0000   0.0000   0.0000   0.0000   0.0000   0.0000   0.0000   0.0000
     0.0000   0.0000   0.0000   0.0000   0.0000   0.0000   0.0000   0.0000
     0.0000   0.0000   0.0000   0.0000   0.0000   0.0000   0.0000   0.0000

          k = 0.0000 0.0000 0.0503 (  3924 PWs)   bands (ev):

    -5.7912  -5.7544  -5.2184  -5.0971  -4.2451  -4.0638  -2.7209  -2.5585
     0.9961   1.3856   2.7139   3.4456   5.0938   5.8879   6.9922   6.9922
     7.0016   7.0016   7.2685   7.2685   7.2894   7.2894   7.4094   7.8859
     7.8859   7.9048   7.9054   7.9054   8.4650   8.4651   8.4753   8.4754
    11.7400  11.7584  11.8271  11.9710  13.1882  13.2195  14.0583  14.0583
    14.1035  14.1035  14.2266  14.2282  14.5510  14.5510  14.6148  14.6148
    15.1965  15.3365  15.9799  15.9965  16.3007  16.3256  16.4075  16.4075
    16.4479  16.4479  17.6671  17.6671  17.7958  17.7958  17.9360  17.9619

     occupation numbers 
     1.0000   1.0000   1.0000   1.0000   1.0000   1.0000   1.0000   1.0000
     1.0000   1.0000   1.0000   1.0000   1.0000   1.0000   1.0000   1.0000
     1.0000   1.0000   1.0000   1.0000   1.0000   1.0000   1.0000   1.0000
     1.0000   1.0000   1.0000   1.0000   1.0000   1.0000   1.0000   1.0000
     0.0000   0.0000   0.0000   0.0000   0.0000   0.0000   0.0000   0.0000
     0.0000   0.0000   0.0000   0.0000   0.0000   0.0000   0.0000   0.0000
     0.0000   0.0000   0.0000   0.0000   0.0000   0.0000   0.0000   0.0000
     0.0000   0.0000   0.0000   0.0000   0.0000   0.0000   0.0000   0.0000

          k = 0.0000 0.3849 0.0000 (  3830 PWs)   bands (ev):

    -4.2619  -4.2008  -3.7425  -3.5283  -2.9443  -2.6329  -1.8396  -1.6457
     1.7230   1.8873   2.3058   2.4295   2.7193   2.8873   3.2516   3.7372
     4.2753   4.5601   4.7404   5.6182   5.6608   5.9211   5.9738   6.0709
     6.1775   6.7552   6.8495   6.9560   6.9736   7.2761   7.9259   7.9880
    10.3660  10.4580  11.2428  11.5735  11.5824  12.1528  12.2863  12.6479
    13.0703  13.7004  13.9469  14.4977  15.0973  15.1044  15.2279  15.3269
    15.7497  15.8626  15.9143  16.2071  16.8098  17.1350  17.2052  17.5046
    17.5875  17.6220  17.8918  18.0263  18.2177  18.4345  18.9306  18.9812

     occupation numbers 
     1.0000   1.0000   1.0000   1.0000   1.0000   1.0000   1.0000   1.0000
     1.0000   1.0000   1.0000   1.0000   1.0000   1.0000   1.0000   1.0000
     1.0000   1.0000   1.0000   1.0000   1.0000   1.0000   1.0000   1.0000
     1.0000   1.0000   1.0000   1.0000   1.0000   1.0000   1.0000   1.0000
     0.0000   0.0000   0.0000   0.0000   0.0000   0.0000   0.0000   0.0000
     0.0000   0.0000   0.0000   0.0000   0.0000   0.0000   0.0000   0.0000
     0.0000   0.0000   0.0000   0.0000   0.0000   0.0000   0.0000   0.0000
     0.0000   0.0000   0.0000   0.0000   0.0000   0.0000   0.0000   0.0000

          k = 0.0000 0.3849 0.0503 (  3830 PWs)   bands (ev):

    -4.2489  -4.2188  -3.6944  -3.5903  -2.8623  -2.7107  -1.7831  -1.6877
     1.7532   1.8314   2.3603   2.4257   2.7312   2.8402   3.3400   3.5749
     4.3563   4.5016   4.9812   5.4809   5.6273   5.6485   5.9986   6.0465
     6.5341   6.7523   6.8762   6.9296   6.9877   7.1644   7.9420   7.9728
    10.3890  10.4355  11.3237  11.4827  11.6870  11.9353  12.4055  12.5677
    13.2540  13.5556  14.1126  14.3863  15.0388  15.1813  15.2174  15.4238
    15.4244  15.7701  16.2861  16.3879  16.6760  16.8064  17.2674  17.4758
    17.7287  17.8247  17.8392  18.1138  18.1494  18.4115  18.8757  18.9746

     occupation numbers 
     1.0000   1.0000   1.0000   1.0000   1.0000   1.0000   1.0000   1.0000
     1.0000   1.0000   1.0000   1.0000   1.0000   1.0000   1.0000   1.0000
     1.0000   1.0000   1.0000   1.0000   1.0000   1.0000   1.0000   1.0000
     1.0000   1.0000   1.0000   1.0000   1.0000   1.0000   1.0000   1.0000
     0.0000   0.0000   0.0000   0.0000   0.0000   0.0000   0.0000   0.0000
     0.0000   0.0000   0.0000   0.0000   0.0000   0.0000   0.0000   0.0000
     0.0000   0.0000   0.0000   0.0000   0.0000   0.0000   0.0000   0.0000
     0.0000   0.0000   0.0000   0.0000   0.0000   0.0000   0.0000   0.0000

          k = 0.3333 0.5774 0.0000 (  3834 PWs)   bands (ev):

    -2.3391  -2.3239  -2.1118  -2.0918  -2.0796  -2.0796  -1.6219  -1.6219
     1.2296   1.2911   1.8762   1.8762   1.9508   1.9508   2.7747   2.7747
     3.3007   3.3798   3.3798   3.6423   3.9258   3.9259   4.8378   5.2917
     5.2917   5.5367   5.5367   5.6933   6.2497   6.9580   7.0297   7.0297
    10.5319  10.5319  11.3238  11.3238  12.2721  13.1569  13.1569  13.4175
    13.7009  14.6043  14.6043  15.1851  15.1851  15.2892  15.5446  15.5446
    16.2148  16.3080  16.3080  16.3767  17.2517  17.2518  17.6525  17.8244
    17.8245  17.9435  17.9435  18.0580  18.7159  19.1752  19.1753  19.1757

     occupation numbers 
     1.0000   1.0000   1.0000   1.0000   1.0000   1.0000   1.0000   1.0000
     1.0000   1.0000   1.0000   1.0000   1.0000   1.0000   1.0000   1.0000
     1.0000   1.0000   1.0000   1.0000   1.0000   1.0000   1.0000   1.0000
     1.0000   1.0000   1.0000   1.0000   1.0000   1.0000   1.0000   1.0000
     0.0000   0.0000   0.0000   0.0000   0.0000   0.0000   0.0000   0.0000
     0.0000   0.0000   0.0000   0.0000   0.0000   0.0000   0.0000   0.0000
     0.0000   0.0000   0.0000   0.0000   0.0000   0.0000   0.0000   0.0000
     0.0000   0.0000   0.0000   0.0000   0.0000   0.0000   0.0000   0.0000

          k = 0.3333 0.5774 0.0503 (  3798 PWs)   bands (ev):

    -2.3355  -2.3279  -2.1066  -2.0966  -2.0796  -2.0796  -1.6219  -1.6219
     1.2447   1.2755   1.8840   1.8840   1.9418   1.9418   2.7875   2.7875
     3.3499   3.3499   3.3726   3.5391   3.9600   3.9600   5.0183   5.2128
     5.2128   5.4069   5.6144   5.6144   6.5148   6.8336   7.0165   7.0165
    10.5943  10.5943  11.2221  11.2222  12.4422  12.8983  13.3133  13.3133
    14.2970  14.3444  14.3444  14.9585  15.3637  15.3637  15.5090  15.5090
    16.2917  16.3233  16.3233  16.3596  17.3608  17.3609  17.7273  17.7273
    17.7898  17.9427  17.9427  17.9906  18.7877  18.9703  18.9703  19.0094

     occupation numbers 
     1.0000   1.0000   1.0000   1.0000   1.0000   1.0000   1.0000   1.0000
     1.0000   1.0000   1.0000   1.0000   1.0000   1.0000   1.0000   1.0000
     1.0000   1.0000   1.0000   1.0000   1.0000   1.0000   1.0000   1.0000
     1.0000   1.0000   1.0000   1.0000   1.0000   1.0000   1.0000   1.0000
     0.0000   0.0000   0.0000   0.0000   0.0000   0.0000   0.0000   0.0000
     0.0000   0.0000   0.0000   0.0000   0.0000   0.0000   0.0000   0.0000
     0.0000   0.0000   0.0000   0.0000   0.0000   0.0000   0.0000   0.0000
     0.0000   0.0000   0.0000   0.0000   0.0000   0.0000   0.0000   0.0000

     highest occupied, lowest unoccupied level (ev):     8.4834   10.3660

!    total energy              =    -486.31260869 Ry
     estimated scf accuracy    <       0.00000003 Ry

     The total energy is the sum of the following terms:
     one-electron contribution =      30.75663763 Ry
     hartree contribution      =      24.57343733 Ry
     xc contribution           =     -71.13864517 Ry
     ewald contribution        =    -143.68801869 Ry
     one-center paw contrib.   =    -326.81601978 Ry
      -> PAW hartree energy AE =       7.31063816 Ry
      -> PAW hartree energy PS =      -7.29457426 Ry
      -> PAW xc energy AE      =    -111.17288119 Ry
      -> PAW xc energy PS      =       7.05841012 Ry
      -> total E_H with PAW    =      24.58950122 Ry
      -> total E_XC with PAW   =    -175.25311623 Ry

     convergence has been achieved in  13 iterations

     Writing all to output data dir calculations_bands/myprefix.save/
 
     init_run     :      7.53s CPU      2.47s WALL (       1 calls)
     electrons    :     51.47s CPU     15.04s WALL (       1 calls)

     Called by init_run:
     wfcinit      :      0.53s CPU      0.15s WALL (       1 calls)
     wfcinit:atom :      0.01s CPU      0.00s WALL (       3 calls)
     wfcinit:wfcr :      0.47s CPU      0.13s WALL (       3 calls)
     potinit      :      3.23s CPU      0.87s WALL (       1 calls)
     hinit0       :      3.27s CPU      1.13s WALL (       1 calls)

     Called by electrons:
     c_bands      :     27.23s CPU      8.10s WALL (      13 calls)
     sum_band     :      6.22s CPU      1.87s WALL (      13 calls)
     v_of_rho     :      0.87s CPU      0.24s WALL (      14 calls)
     v_h          :      0.06s CPU      0.02s WALL (      14 calls)
     v_xc         :      0.81s CPU      0.22s WALL (      14 calls)
     newd         :      4.49s CPU      1.33s WALL (      14 calls)
     PAW_pot      :     12.97s CPU      3.42s WALL (      14 calls)
     mix_rho      :      0.25s CPU      0.07s WALL (      13 calls)

     Called by c_bands:
     init_us_2    :      0.12s CPU      0.04s WALL (      81 calls)
     init_us_2:cp :      0.11s CPU      0.04s WALL (      81 calls)
     cegterg      :     15.69s CPU      4.17s WALL (      39 calls)

     Called by sum_band:
     sum_band:wei :      0.02s CPU      0.00s WALL (      13 calls)
     sum_band:loo :      2.07s CPU      0.55s WALL (      13 calls)
     sum_band:buf :      0.03s CPU      0.01s WALL (      39 calls)
     sum_band:ini :      0.05s CPU      0.01s WALL (      39 calls)
     sum_band:cal :      0.17s CPU      0.04s WALL (      39 calls)
     sum_band:bec :      0.03s CPU      0.01s WALL (      39 calls)
     addusdens    :      1.89s CPU      0.69s WALL (      13 calls)
     addusd:skk   :      0.06s CPU      0.02s WALL (      39 calls)
     addusd:dgemm :      0.23s CPU      0.21s WALL (      39 calls)
     addusd:qvan2 :      1.10s CPU      0.28s WALL (      39 calls)

     Called by *egterg:
     cdiaghg      :      3.31s CPU      0.88s WALL (     195 calls)
     cegterg:over :      0.65s CPU      0.18s WALL (     156 calls)
     cegterg:upda :      0.48s CPU      0.13s WALL (     156 calls)
     cegterg:last :      0.53s CPU      0.14s WALL (      81 calls)
     cdiaghg:chol :      0.23s CPU      0.06s WALL (     195 calls)
     cdiaghg:inve :      0.05s CPU      0.01s WALL (     195 calls)
     cdiaghg:para :      0.52s CPU      0.14s WALL (     390 calls)
     h_psi        :     10.26s CPU      2.71s WALL (     198 calls)
     s_psi        :      0.33s CPU      0.09s WALL (     198 calls)
     g_psi        :      0.02s CPU      0.00s WALL (     156 calls)

     Called by h_psi:
     h_psi:calbec :      0.56s CPU      0.15s WALL (     198 calls)
     vloc_psi     :      9.22s CPU      2.43s WALL (     198 calls)
     add_vuspsi   :      0.44s CPU      0.11s WALL (     198 calls)

     General routines
     calbec       :      0.72s CPU      0.19s WALL (     237 calls)
     fft          :      1.82s CPU      0.66s WALL (     180 calls)
     ffts         :      1.39s CPU      0.39s WALL (      27 calls)
     fftw         :      9.77s CPU      2.59s WALL (   15228 calls)
     interpolate  :      1.45s CPU      0.41s WALL (      14 calls)
 
     Parallel routines

     PAW routines
     PAW_pot      :     12.97s CPU      3.42s WALL (      14 calls)
     PAW_symme    :      0.34s CPU      0.09s WALL (      27 calls)
 
     PWSCF        :     59.44s CPU     18.84s WALL

 
   This run was terminated on:  22:48:29   5Jun2023            

=------------------------------------------------------------------------------=
   JOB DONE.
=------------------------------------------------------------------------------=
