
     Program PWSCF v.7.0 starts on  7Jun2023 at 11:25:57 

     This program is part of the open-source Quantum ESPRESSO suite
     for quantum simulation of materials; please cite
         "P. Giannozzi et al., J. Phys.:Condens. Matter 21 395502 (2009);
         "P. Giannozzi et al., J. Phys.:Condens. Matter 29 465901 (2017);
         "P. Giannozzi et al., J. Chem. Phys. 152 154105 (2020);
          URL http://www.quantum-espresso.org", 
     in publications or presentations arising from this work. More details at
     http://www.quantum-espresso.org/quote

     Parallel version (MPI & OpenMP), running on      32 processor cores
     Number of MPI processes:                 8
     Threads/MPI process:                     4

     MPI processes distributed on     1 nodes
     K-points division:     npool     =       2
     R & G space division:  proc/nbgrp/npool/nimage =       4
     86440 MiB available memory on the printing compute node when the environment starts
 
     Reading input from espresso_8636.pwi
Warning: card &CELL ignored
Warning: card / ignored

     Current dimensions of program PWSCF are:
     Max number of different atomic species (ntypx) = 10
     Max number of k-points (npk) =  40000
     Max angular momentum in pseudopotentials (lmaxx) =  4
     file K.pbe-spn-kjpaw_psl.1.0.0.UPF: wavefunction(s)  3S renormalized
     file Al.pbe-n-kjpaw_psl.1.0.0.UPF: wavefunction(s)  3S 3P renormalized
     file C.pbe-n-kjpaw_psl.1.0.0.UPF: wavefunction(s)  2S 2P renormalized
     file O.pbe-n-kjpaw_psl.0.1.UPF: wavefunction(s)  2P renormalized
     Message from routine setup:
     using ibrav=0 with symmetry is DISCOURAGED, use correct ibrav instead

     Subspace diagonalization in iterative solution of the eigenvalue problem:
     one sub-group per band group will be used
     scalapack distributed-memory algorithm (size of sub-group:  2*  2 procs)

 
     Parallelization info
     --------------------
     sticks:   dense  smooth     PW     G-vecs:    dense   smooth      PW
     Min         660     331     96                23498     8305    1280
     Max         661     332     97                23501     8306    1281
     Sum        2641    1327    387                93997    33223    5123
 
     Using Slab Decomposition
 


     bravais-lattice index     =            0
     lattice parameter (alat)  =      12.8783  a.u.
     unit-cell volume          =    1497.0231 (a.u.)^3
     number of atoms/cell      =           20
     number of atomic types    =            5
     number of electrons       =        96.00
     number of Kohn-Sham states=           64
     kinetic-energy cutoff     =      30.0000  Ry
     charge density cutoff     =     240.0000  Ry
     scf convergence threshold =      1.0E-06
     mixing beta               =       0.7000
     number of iterations used =            8  plain     mixing
     Exchange-correlation= SLA  PW   PBX  PBC
                           (   1   4   3   4   0   0   0)

     celldm(1)=  12.878336  celldm(2)=   0.000000  celldm(3)=   0.000000
     celldm(4)=   0.000000  celldm(5)=   0.000000  celldm(6)=   0.000000

     crystal axes: (cart. coord. in units of alat)
               a(1) = (   1.000000   0.000000   0.000000 )  
               a(2) = (  -0.550614   0.834760   0.000000 )  
               a(3) = (   0.000000   0.000000   0.839630 )  

     reciprocal axes: (cart. coord. in units 2 pi/alat)
               b(1) = (  1.000000  0.659608  0.000000 )  
               b(2) = (  0.000000  1.197949  0.000000 )  
               b(3) = (  0.000000  0.000000  1.191001 )  


     PseudoPot. # 1 for K  read from file:
     /home/pragov/projects/rrg-bengioy-ad/pragov/crystal_structure_design/SSSP/K.pbe-spn-kjpaw_psl.1.0.0.UPF
     MD5 check sum: 7d58810084cac21f60fbe77ea2b688fd
     Pseudo is Projector augmented-wave + core cor, Zval =  9.0
     Generated using "atomic" code by A. Dal Corso  v.5.1
     Shape of augmentation charge: PSQ
     Using radial grid of 1165 points,  6 beta functions with: 
                l(1) =   0
                l(2) =   0
                l(3) =   1
                l(4) =   1
                l(5) =   2
                l(6) =   2
     Q(r) pseudized with 0 coefficients 


     PseudoPot. # 2 for Al read from file:
     /home/pragov/projects/rrg-bengioy-ad/pragov/crystal_structure_design/SSSP/Al.pbe-n-kjpaw_psl.1.0.0.UPF
     MD5 check sum: cfc449ca30b5f3223ec38ddd88ac046d
     Pseudo is Projector augmented-wave + core cor, Zval =  3.0
     Generated using "atomic" code by A. Dal Corso  v.5.1
     Shape of augmentation charge: PSQ
     Using radial grid of 1135 points,  6 beta functions with: 
                l(1) =   0
                l(2) =   0
                l(3) =   1
                l(4) =   1
                l(5) =   2
                l(6) =   2
     Q(r) pseudized with 0 coefficients 


     PseudoPot. # 3 for H  read from file:
     /home/pragov/projects/rrg-bengioy-ad/pragov/crystal_structure_design/SSSP/H.pbe-rrkjus_psl.1.0.0.UPF
     MD5 check sum: f52b6d4d1c606e5624b1dc7b2218f220
     Pseudo is Ultrasoft, Zval =  1.0
     Generated using "atomic" code by A. Dal Corso  v.5.1
     Using radial grid of  929 points,  2 beta functions with: 
                l(1) =   0
                l(2) =   0
     Q(r) pseudized with 0 coefficients 


     PseudoPot. # 4 for C  read from file:
     /home/pragov/projects/rrg-bengioy-ad/pragov/crystal_structure_design/SSSP/C.pbe-n-kjpaw_psl.1.0.0.UPF
     MD5 check sum: 5d2aebdfa2cae82b50a7e79e9516da0f
     Pseudo is Projector augmented-wave + core cor, Zval =  4.0
     Generated using "atomic" code by A. Dal Corso  v.5.1
     Shape of augmentation charge: PSQ
     Using radial grid of 1073 points,  4 beta functions with: 
                l(1) =   0
                l(2) =   0
                l(3) =   1
                l(4) =   1
     Q(r) pseudized with 0 coefficients 


     PseudoPot. # 5 for O  read from file:
     /home/pragov/projects/rrg-bengioy-ad/pragov/crystal_structure_design/SSSP/O.pbe-n-kjpaw_psl.0.1.UPF
     MD5 check sum: 0234752ac141de4415c5fc33072bef88
     Pseudo is Projector augmented-wave + core cor, Zval =  6.0
     Generated using "atomic" code by A. Dal Corso  v.5.0.99 svn rev. 10869
     Shape of augmentation charge: BESSEL
     Using radial grid of 1095 points,  4 beta functions with: 
                l(1) =   0
                l(2) =   0
                l(3) =   1
                l(4) =   1
     Q(r) pseudized with 0 coefficients 


     atomic species   valence    mass     pseudopotential
        K              9.00    39.09830     K ( 1.00)
        Al             3.00    26.98154     Al( 1.00)
        H              1.00     1.00800     H ( 1.00)
        C              4.00    12.01100     C ( 1.00)
        O              6.00    15.99900     O ( 1.00)

      4 Sym. Ops., with inversion, found ( 2 have fractional translation)


                                    s                        frac. trans.

      isym =  1     identity                                     

 cryst.   s( 1) = (     1          0          0      )
                  (     0          1          0      )
                  (     0          0          1      )

 cart.    s( 1) = (  1.0000000 -0.0000000  0.0000000 )
                  (  0.0000000  1.0000000  0.0000000 )
                  (  0.0000000  0.0000000  1.0000000 )


      isym =  2     180 deg rotation - cart. axis [0,0,1]        

 cryst.   s( 2) = (    -1          0          0      )    f =(  0.0000000 )
                  (     0         -1          0      )       (  0.0000000 )
                  (     0          0          1      )       ( -0.5000000 )

 cart.    s( 2) = ( -1.0000000  0.0000000  0.0000000 )    f =( -0.0000000 )
                  (  0.0000000 -1.0000000  0.0000000 )       (  0.0000000 )
                  (  0.0000000  0.0000000  1.0000000 )       ( -0.4198148 )


      isym =  3     inversion                                    

 cryst.   s( 3) = (    -1          0          0      )
                  (     0         -1          0      )
                  (     0          0         -1      )

 cart.    s( 3) = ( -1.0000000  0.0000000  0.0000000 )
                  (  0.0000000 -1.0000000  0.0000000 )
                  (  0.0000000  0.0000000 -1.0000000 )


      isym =  4     inv. 180 deg rotation - cart. axis [0,0,1]   

 cryst.   s( 4) = (     1          0          0      )    f =(  0.0000000 )
                  (     0          1          0      )       (  0.0000000 )
                  (     0          0         -1      )       ( -0.5000000 )

 cart.    s( 4) = (  1.0000000 -0.0000000  0.0000000 )    f =(  0.0000000 )
                  (  0.0000000  1.0000000  0.0000000 )       (  0.0000000 )
                  (  0.0000000  0.0000000 -1.0000000 )       ( -0.4198148 )


   Cartesian axes

     site n.     atom                  positions (alat units)
         1           K   tau(   1) = (   0.4624671   0.2893761   0.6297222  )
         2           K   tau(   2) = (  -0.0130815   0.5453836   0.2099074  )
         3           Al  tau(   3) = (   0.0000000   0.0000000   0.4198148  )
         4           Al  tau(   4) = (   0.0000000   0.0000000   0.0000000  )
         5           H   tau(   5) = (   0.2550412   0.1653676   0.2099074  )
         6           H   tau(   6) = (  -0.0023871   0.3039519   0.6297222  )
         7           H   tau(   7) = (   0.1943445   0.6693922   0.6297222  )
         8           H   tau(   8) = (   0.4517728   0.5308079   0.2099074  )
         9           C   tau(   9) = (   0.6708992   0.1771686   0.2099074  )
        10           C   tau(  10) = (  -0.2215135   0.6575912   0.6297222  )
        11           O   tau(  11) = (   0.3842207   0.6586931   0.2099074  )
        12           O   tau(  12) = (   0.3382930   0.6834178   0.6297222  )
        13           O   tau(  13) = (   0.0651650   0.1760667   0.6297222  )
        14           O   tau(  14) = (   0.1110926   0.1513419   0.2099074  )
        15           O   tau(  15) = (   0.7543253   0.1322568   0.3765025  )
        16           O   tau(  16) = (  -0.3049397   0.7025029   0.4631271  )
        17           O   tau(  17) = (   0.7543253   0.1322568   0.0433123  )
        18           O   tau(  18) = (  -0.3049397   0.7025029   0.7963173  )
        19           O   tau(  19) = (   0.5054967   0.2662116   0.2099074  )
        20           O   tau(  20) = (  -0.0561110   0.5685482   0.6297222  )

   Crystallographic axes

     site n.     atom                  positions (cryst. coord.)
         1           K   tau(   1) = (  0.6533420  0.3466580  0.7500000  )
         2           K   tau(   2) = (  0.3466580  0.6533420  0.2500000  )
         3           Al  tau(   3) = (  0.0000000  0.0000000  0.5000000  )
         4           Al  tau(   4) = (  0.0000000  0.0000000  0.0000000  )
         5           H   tau(   5) = (  0.3641190  0.1981020  0.2500000  )
         6           H   tau(   6) = (  0.1981020  0.3641190  0.7500000  )
         7           H   tau(   7) = (  0.6358810  0.8018980  0.7500000  )
         8           H   tau(   8) = (  0.8018980  0.6358810  0.2500000  )
         9           C   tau(   9) = (  0.7877610  0.2122390  0.2500000  )
        10           C   tau(  10) = (  0.2122390  0.7877610  0.7500000  )
        11           O   tau(  11) = (  0.8187000  0.7890810  0.2500000  )
        12           O   tau(  12) = (  0.7890810  0.8187000  0.7500000  )
        13           O   tau(  13) = (  0.1813000  0.2109190  0.7500000  )
        14           O   tau(  14) = (  0.2109190  0.1813000  0.2500000  )
        15           O   tau(  15) = (  0.8415630  0.1584370  0.4484150  )
        16           O   tau(  16) = (  0.1584370  0.8415630  0.5515850  )
        17           O   tau(  17) = (  0.8415630  0.1584370  0.0515850  )
        18           O   tau(  18) = (  0.1584370  0.8415630  0.9484150  )
        19           O   tau(  19) = (  0.6810920  0.3189080  0.2500000  )
        20           O   tau(  20) = (  0.3189080  0.6810920  0.7500000  )

     number of k points=    10
                       cart. coord. in units 2pi/alat
        k(    1) = (   0.0000000   0.0000000   0.0000000), wk =   0.0740741
        k(    2) = (   0.0000000   0.0000000   0.3970005), wk =   0.1481481
        k(    3) = (   0.0000000   0.3993165   0.0000000), wk =   0.1481481
        k(    4) = (   0.0000000   0.3993165   0.3970005), wk =   0.2962963
        k(    5) = (   0.3333333   0.2198694   0.0000000), wk =   0.1481481
        k(    6) = (   0.3333333   0.2198694   0.3970005), wk =   0.2962963
        k(    7) = (   0.3333333   0.6191859   0.0000000), wk =   0.1481481
        k(    8) = (   0.3333333   0.6191859   0.3970005), wk =   0.2962963
        k(    9) = (   0.3333333  -0.1794471   0.0000000), wk =   0.1481481
        k(   10) = (   0.3333333  -0.1794471   0.3970005), wk =   0.2962963

                       cryst. coord.
        k(    1) = (   0.0000000   0.0000000   0.0000000), wk =   0.0740741
        k(    2) = (   0.0000000   0.0000000   0.3333333), wk =   0.1481481
        k(    3) = (   0.0000000   0.3333333   0.0000000), wk =   0.1481481
        k(    4) = (   0.0000000   0.3333333   0.3333333), wk =   0.2962963
        k(    5) = (   0.3333333   0.0000000   0.0000000), wk =   0.1481481
        k(    6) = (   0.3333333   0.0000000   0.3333333), wk =   0.2962963
        k(    7) = (   0.3333333   0.3333333   0.0000000), wk =   0.1481481
        k(    8) = (   0.3333333   0.3333333   0.3333333), wk =   0.2962963
        k(    9) = (   0.3333333  -0.3333333   0.0000000), wk =   0.1481481
        k(   10) = (   0.3333333  -0.3333333   0.3333333), wk =   0.2962963

     Dense  grid:    93997 G-vectors     FFT dimensions: (  64,  64,  54)

     Smooth grid:    33223 G-vectors     FFT dimensions: (  45,  45,  40)

     Dynamical RAM for                 wfc:       1.01 MB

     Dynamical RAM for     wfc (w. buffer):       6.08 MB

     Dynamical RAM for           str. fact:       1.79 MB

     Dynamical RAM for           local pot:       0.00 MB

     Dynamical RAM for          nlocal pot:       2.79 MB

     Dynamical RAM for                qrad:       6.22 MB

     Dynamical RAM for          rho,v,vnew:       2.39 MB

     Dynamical RAM for               rhoin:       0.80 MB

     Dynamical RAM for            rho*nmix:       5.74 MB

     Dynamical RAM for           G-vectors:       1.41 MB

     Dynamical RAM for          h,s,v(r/c):       0.19 MB

     Dynamical RAM for          <psi|beta>:       0.17 MB

     Dynamical RAM for                 psi:       2.03 MB

     Dynamical RAM for                hpsi:       2.03 MB

     Dynamical RAM for                spsi:       2.03 MB

     Dynamical RAM for      wfcinit/wfcrot:       2.54 MB

     Dynamical RAM for           addusdens:      35.32 MB

     Estimated static dynamical RAM per process >      25.81 MB

     Estimated max dynamical RAM per process >      66.87 MB

     Estimated total dynamical RAM >     512.03 MB

     Check: negative core charge=   -0.000015

     Initial potential from superposition of free atoms

     starting charge      95.9576, renormalised to      96.0000
     Starting wfcs are   76 randomized atomic wfcs
     Checking if some PAW data can be deallocated... 
       PAW data deallocated on    7 nodes for type:  1
       PAW data deallocated on    6 nodes for type:  2
       PAW data deallocated on    6 nodes for type:  4
       PAW data deallocated on    3 nodes for type:  5

     total cpu time spent up to now is        3.0 secs

     Self-consistent Calculation

     iteration #  1     ecut=    30.00 Ry     beta= 0.70
     Davidson diagonalization with overlap

---- Real-time Memory Report at c_bands before calling an iterative solver
           226 MiB given to the printing process from OS
             0 MiB allocation reported by mallinfo(arena+hblkhd)
         85498 MiB available memory on the node where the printing process lives
------------------
     ethr =  1.00E-02,  avg # of iterations =  7.4

     total cpu time spent up to now is        5.4 secs

     total energy              =    -762.84612559 Ry
     estimated scf accuracy    <       2.54533134 Ry

     iteration #  2     ecut=    30.00 Ry     beta= 0.70
     Davidson diagonalization with overlap

---- Real-time Memory Report at c_bands before calling an iterative solver
           281 MiB given to the printing process from OS
             0 MiB allocation reported by mallinfo(arena+hblkhd)
         85318 MiB available memory on the node where the printing process lives
------------------
     ethr =  2.65E-03,  avg # of iterations =  4.6

     total cpu time spent up to now is        7.1 secs

     total energy              =    -763.49632843 Ry
     estimated scf accuracy    <       1.85082326 Ry

     iteration #  3     ecut=    30.00 Ry     beta= 0.70
     Davidson diagonalization with overlap

---- Real-time Memory Report at c_bands before calling an iterative solver
           284 MiB given to the printing process from OS
             0 MiB allocation reported by mallinfo(arena+hblkhd)
         85260 MiB available memory on the node where the printing process lives
------------------
     ethr =  1.93E-03,  avg # of iterations =  2.0

     total cpu time spent up to now is        8.0 secs

     total energy              =    -763.86874814 Ry
     estimated scf accuracy    <       0.02652110 Ry

     iteration #  4     ecut=    30.00 Ry     beta= 0.70
     Davidson diagonalization with overlap

---- Real-time Memory Report at c_bands before calling an iterative solver
           286 MiB given to the printing process from OS
             0 MiB allocation reported by mallinfo(arena+hblkhd)
         85266 MiB available memory on the node where the printing process lives
------------------
     ethr =  2.76E-05,  avg # of iterations = 11.0

     total cpu time spent up to now is        9.5 secs

     total energy              =    -763.87527743 Ry
     estimated scf accuracy    <       0.00856703 Ry

     iteration #  5     ecut=    30.00 Ry     beta= 0.70
     Davidson diagonalization with overlap

---- Real-time Memory Report at c_bands before calling an iterative solver
           291 MiB given to the printing process from OS
             0 MiB allocation reported by mallinfo(arena+hblkhd)
         85235 MiB available memory on the node where the printing process lives
------------------
     ethr =  8.92E-06,  avg # of iterations =  2.4

     total cpu time spent up to now is       10.5 secs

     total energy              =    -763.87673292 Ry
     estimated scf accuracy    <       0.00091205 Ry

     iteration #  6     ecut=    30.00 Ry     beta= 0.70
     Davidson diagonalization with overlap

---- Real-time Memory Report at c_bands before calling an iterative solver
           293 MiB given to the printing process from OS
             0 MiB allocation reported by mallinfo(arena+hblkhd)
         85235 MiB available memory on the node where the printing process lives
------------------
     ethr =  9.50E-07,  avg # of iterations =  4.5

     total cpu time spent up to now is       11.5 secs

     total energy              =    -763.87686724 Ry
     estimated scf accuracy    <       0.00011011 Ry

     iteration #  7     ecut=    30.00 Ry     beta= 0.70
     Davidson diagonalization with overlap

---- Real-time Memory Report at c_bands before calling an iterative solver
           293 MiB given to the printing process from OS
             0 MiB allocation reported by mallinfo(arena+hblkhd)
         85231 MiB available memory on the node where the printing process lives
------------------
     ethr =  1.15E-07,  avg # of iterations =  2.0

     total cpu time spent up to now is       12.9 secs

     total energy              =    -763.87689374 Ry
     estimated scf accuracy    <       0.00000986 Ry

     iteration #  8     ecut=    30.00 Ry     beta= 0.70
     Davidson diagonalization with overlap

---- Real-time Memory Report at c_bands before calling an iterative solver
           293 MiB given to the printing process from OS
             0 MiB allocation reported by mallinfo(arena+hblkhd)
         85202 MiB available memory on the node where the printing process lives
------------------
     ethr =  1.03E-08,  avg # of iterations =  3.0

     total cpu time spent up to now is       14.8 secs

     total energy              =    -763.87689639 Ry
     estimated scf accuracy    <       0.00000308 Ry

     iteration #  9     ecut=    30.00 Ry     beta= 0.70
     Davidson diagonalization with overlap

---- Real-time Memory Report at c_bands before calling an iterative solver
           293 MiB given to the printing process from OS
             0 MiB allocation reported by mallinfo(arena+hblkhd)
         85207 MiB available memory on the node where the printing process lives
------------------
     ethr =  3.21E-09,  avg # of iterations =  2.0

     total cpu time spent up to now is       15.7 secs

     End of self-consistent calculation

          k = 0.0000 0.0000 0.0000 (  4163 PWs)   bands (ev):

   -24.6132 -24.6078 -18.6097 -18.5313 -15.7079 -15.6333 -15.5756 -15.5086
   -15.3444 -15.1395 -15.0565 -14.7334  -8.2215  -8.1687  -8.1260  -8.1184
    -8.1128  -8.0967  -4.9488  -4.9189  -4.1015  -4.0829  -3.6657  -3.4561
    -3.1049  -2.6823  -2.4515  -2.3976  -1.4131  -1.3021  -0.8450  -0.8242
     0.3455   0.7300   1.1047   1.2295   1.3213   1.5035   1.5152   1.5371
     1.5995   1.8180   1.8915   2.0230   2.1123   2.4429   2.7881   2.9725
     8.0065   8.8171   8.8897  10.7708  11.1768  11.2714  11.6584  11.8640
    11.9448  12.1673  12.7853  12.7871  12.9088  13.1217  13.3403  13.7978

     occupation numbers 
     1.0000   1.0000   1.0000   1.0000   1.0000   1.0000   1.0000   1.0000
     1.0000   1.0000   1.0000   1.0000   1.0000   1.0000   1.0000   1.0000
     1.0000   1.0000   1.0000   1.0000   1.0000   1.0000   1.0000   1.0000
     1.0000   1.0000   1.0000   1.0000   1.0000   1.0000   1.0000   1.0000
     1.0000   1.0000   1.0000   1.0000   1.0000   1.0000   1.0000   1.0000
     1.0000   1.0000   1.0000   1.0000   1.0000   1.0000   1.0000   1.0000
     0.0000   0.0000   0.0000   0.0000   0.0000   0.0000   0.0000   0.0000
     0.0000   0.0000   0.0000   0.0000   0.0000   0.0000   0.0000   0.0000

          k = 0.0000 0.0000 0.3970 (  4145 PWs)   bands (ev):

   -24.6111 -24.6084 -18.5857 -18.5477 -15.7707 -15.7329 -15.4713 -15.4540
   -15.3164 -15.1984 -14.9785 -14.8173  -8.2074  -8.1806  -8.1078  -8.0986
    -8.0924  -8.0811  -4.8789  -4.8744  -4.0445  -4.0428  -3.6290  -3.5650
    -3.0320  -2.8120  -2.3713  -2.3493  -1.3760  -1.3211  -0.5807  -0.3008
     0.2630   0.5517   0.8637   0.8988   1.2294   1.2900   1.3656   1.5267
     1.5443   1.5688   1.7961   1.8351   2.2950   2.4738   2.7619   2.8621
     8.7871   8.8819   8.9460  10.2648  10.9849  11.3355  11.7507  11.8074
    11.9622  12.9784  13.1618  13.2624  13.4200  13.4949  13.5683  13.9321

     occupation numbers 
     1.0000   1.0000   1.0000   1.0000   1.0000   1.0000   1.0000   1.0000
     1.0000   1.0000   1.0000   1.0000   1.0000   1.0000   1.0000   1.0000
     1.0000   1.0000   1.0000   1.0000   1.0000   1.0000   1.0000   1.0000
     1.0000   1.0000   1.0000   1.0000   1.0000   1.0000   1.0000   1.0000
     1.0000   1.0000   1.0000   1.0000   1.0000   1.0000   1.0000   1.0000
     1.0000   1.0000   1.0000   1.0000   1.0000   1.0000   1.0000   1.0000
     0.0000   0.0000   0.0000   0.0000   0.0000   0.0000   0.0000   0.0000
     0.0000   0.0000   0.0000   0.0000   0.0000   0.0000   0.0000   0.0000

          k = 0.0000 0.3993 0.0000 (  4150 PWs)   bands (ev):

   -24.6119 -24.6087 -18.5933 -18.5411 -15.8441 -15.6250 -15.5836 -15.4937
   -15.2817 -15.1561 -15.0032 -14.7039  -8.1896  -8.1666  -8.1283  -8.1142
    -8.1083  -8.0919  -5.1168  -5.0079  -4.1116  -3.8708  -3.5588  -3.4362
    -3.1247  -2.9828  -2.3987  -2.1901  -1.4252  -1.2711  -0.8669  -0.7692
     0.3461   0.7456   0.9192   1.1525   1.2257   1.3406   1.6043   1.6557
     1.8192   1.8677   1.9101   2.0054   2.0214   2.4189   2.7777   2.8979
     8.4715   8.6895   9.2283  10.6355  11.1481  11.4558  11.5211  11.7972
    11.9487  12.0315  12.4120  12.7588  13.3281  13.3389  13.5267  13.7367

     occupation numbers 
     1.0000   1.0000   1.0000   1.0000   1.0000   1.0000   1.0000   1.0000
     1.0000   1.0000   1.0000   1.0000   1.0000   1.0000   1.0000   1.0000
     1.0000   1.0000   1.0000   1.0000   1.0000   1.0000   1.0000   1.0000
     1.0000   1.0000   1.0000   1.0000   1.0000   1.0000   1.0000   1.0000
     1.0000   1.0000   1.0000   1.0000   1.0000   1.0000   1.0000   1.0000
     1.0000   1.0000   1.0000   1.0000   1.0000   1.0000   1.0000   1.0000
     0.0000   0.0000   0.0000   0.0000   0.0000   0.0000   0.0000   0.0000
     0.0000   0.0000   0.0000   0.0000   0.0000   0.0000   0.0000   0.0000

          k = 0.0000 0.3993 0.3970 (  4151 PWs)   bands (ev):

   -24.6104 -24.6088 -18.5764 -18.5509 -15.8416 -15.7345 -15.5384 -15.5010
   -15.2314 -15.1685 -14.9338 -14.7840  -8.1823  -8.1708  -8.1055  -8.0959
    -8.0904  -8.0801  -5.0523  -5.0110  -3.9651  -3.8273  -3.5874  -3.5387
    -3.0717  -3.0067  -2.3466  -2.2512  -1.3875  -1.3068  -0.5355  -0.2850
     0.2089   0.5687   0.8347   0.9430   1.0268   1.1733   1.3061   1.4624
     1.6099   1.6592   1.9323   1.9679   2.2457   2.4349   2.7363   2.8035
     8.7829   8.8055   9.6168  10.6332  11.0844  11.2624  11.4550  11.6069
    12.2792  12.5565  12.9622  13.0843  13.2514  13.4131  13.7546  13.8518

     occupation numbers 
     1.0000   1.0000   1.0000   1.0000   1.0000   1.0000   1.0000   1.0000
     1.0000   1.0000   1.0000   1.0000   1.0000   1.0000   1.0000   1.0000
     1.0000   1.0000   1.0000   1.0000   1.0000   1.0000   1.0000   1.0000
     1.0000   1.0000   1.0000   1.0000   1.0000   1.0000   1.0000   1.0000
     1.0000   1.0000   1.0000   1.0000   1.0000   1.0000   1.0000   1.0000
     1.0000   1.0000   1.0000   1.0000   1.0000   1.0000   1.0000   1.0000
     0.0000   0.0000   0.0000   0.0000   0.0000   0.0000   0.0000   0.0000
     0.0000   0.0000   0.0000   0.0000   0.0000   0.0000   0.0000   0.0000

          k = 0.3333 0.2199 0.0000 (  4150 PWs)   bands (ev):

   -24.6119 -24.6087 -18.5933 -18.5411 -15.8441 -15.6250 -15.5836 -15.4937
   -15.2817 -15.1561 -15.0032 -14.7039  -8.1896  -8.1666  -8.1283  -8.1142
    -8.1083  -8.0919  -5.1168  -5.0079  -4.1116  -3.8708  -3.5588  -3.4362
    -3.1247  -2.9828  -2.3987  -2.1901  -1.4252  -1.2711  -0.8669  -0.7692
     0.3461   0.7456   0.9192   1.1525   1.2257   1.3406   1.6043   1.6557
     1.8192   1.8677   1.9101   2.0054   2.0214   2.4189   2.7777   2.8979
     8.4715   8.6895   9.2283  10.6355  11.1481  11.4558  11.5211  11.7972
    11.9487  12.0315  12.4120  12.7588  13.3281  13.3389  13.5267  13.7367

     occupation numbers 
     1.0000   1.0000   1.0000   1.0000   1.0000   1.0000   1.0000   1.0000
     1.0000   1.0000   1.0000   1.0000   1.0000   1.0000   1.0000   1.0000
     1.0000   1.0000   1.0000   1.0000   1.0000   1.0000   1.0000   1.0000
     1.0000   1.0000   1.0000   1.0000   1.0000   1.0000   1.0000   1.0000
     1.0000   1.0000   1.0000   1.0000   1.0000   1.0000   1.0000   1.0000
     1.0000   1.0000   1.0000   1.0000   1.0000   1.0000   1.0000   1.0000
     0.0000   0.0000   0.0000   0.0000   0.0000   0.0000   0.0000   0.0000
     0.0000   0.0000   0.0000   0.0000   0.0000   0.0000   0.0000   0.0000

          k = 0.3333 0.2199 0.3970 (  4151 PWs)   bands (ev):

   -24.6104 -24.6088 -18.5764 -18.5509 -15.8416 -15.7345 -15.5384 -15.5010
   -15.2314 -15.1685 -14.9338 -14.7840  -8.1823  -8.1708  -8.1055  -8.0959
    -8.0904  -8.0801  -5.0523  -5.0110  -3.9651  -3.8273  -3.5874  -3.5387
    -3.0717  -3.0067  -2.3466  -2.2512  -1.3875  -1.3068  -0.5355  -0.2850
     0.2089   0.5687   0.8347   0.9430   1.0268   1.1733   1.3061   1.4624
     1.6099   1.6592   1.9323   1.9679   2.2457   2.4349   2.7363   2.8035
     8.7829   8.8055   9.6168  10.6332  11.0844  11.2624  11.4550  11.6068
    12.2791  12.5565  12.9622  13.0843  13.2514  13.4130  13.7546  13.8518

     occupation numbers 
     1.0000   1.0000   1.0000   1.0000   1.0000   1.0000   1.0000   1.0000
     1.0000   1.0000   1.0000   1.0000   1.0000   1.0000   1.0000   1.0000
     1.0000   1.0000   1.0000   1.0000   1.0000   1.0000   1.0000   1.0000
     1.0000   1.0000   1.0000   1.0000   1.0000   1.0000   1.0000   1.0000
     1.0000   1.0000   1.0000   1.0000   1.0000   1.0000   1.0000   1.0000
     1.0000   1.0000   1.0000   1.0000   1.0000   1.0000   1.0000   1.0000
     0.0000   0.0000   0.0000   0.0000   0.0000   0.0000   0.0000   0.0000
     0.0000   0.0000   0.0000   0.0000   0.0000   0.0000   0.0000   0.0000

          k = 0.3333 0.6192 0.0000 (  4144 PWs)   bands (ev):

   -24.6104 -24.6102 -18.5720 -18.5536 -15.9604 -15.6149 -15.5929 -15.5058
   -15.2009 -15.1397 -14.9593 -14.7070  -8.1813  -8.1701  -8.1304  -8.1134
    -8.1048  -8.0886  -5.2957  -5.1241  -4.1178  -3.7623  -3.5895  -3.4248
    -2.8260  -2.8233  -2.3604  -2.3560  -1.4416  -1.2984  -0.8750  -0.7336
     0.2891   0.6497   0.8140   1.0583   1.0844   1.4717   1.6545   1.7325
     1.8359   1.9212   1.9633   1.9991   2.0784   2.4533   2.7734   2.8028
     8.4282   8.8028   9.7840  10.1722  10.6509  11.6388  11.8277  11.8489
    11.9267  12.2862  12.4934  12.6475  13.0240  13.3035  13.5911  13.7101

     occupation numbers 
     1.0000   1.0000   1.0000   1.0000   1.0000   1.0000   1.0000   1.0000
     1.0000   1.0000   1.0000   1.0000   1.0000   1.0000   1.0000   1.0000
     1.0000   1.0000   1.0000   1.0000   1.0000   1.0000   1.0000   1.0000
     1.0000   1.0000   1.0000   1.0000   1.0000   1.0000   1.0000   1.0000
     1.0000   1.0000   1.0000   1.0000   1.0000   1.0000   1.0000   1.0000
     1.0000   1.0000   1.0000   1.0000   1.0000   1.0000   1.0000   1.0000
     0.0000   0.0000   0.0000   0.0000   0.0000   0.0000   0.0000   0.0000
     0.0000   0.0000   0.0000   0.0000   0.0000   0.0000   0.0000   0.0000

          k = 0.3333 0.6192 0.3970 (  4154 PWs)   bands (ev):

   -24.6096 -24.6095 -18.5639 -18.5545 -15.9277 -15.7658 -15.5570 -15.5165
   -15.1527 -15.1107 -14.9113 -14.7833  -8.1772  -8.1718  -8.1041  -8.0971
    -8.0878  -8.0792  -5.2260  -5.1618  -3.9302  -3.6619  -3.6170  -3.5476
    -2.8266  -2.8055  -2.3844  -2.3700  -1.4296  -1.3675  -0.5176  -0.2719
     0.0946   0.5634   0.7933   0.8554   0.9886   1.0943   1.3204   1.4114
     1.6775   1.7110   2.0856   2.0877   2.2518   2.4223   2.7087   2.7320
     8.6811   8.8259  10.1910  10.4540  10.9834  11.1697  11.2721  11.6336
    12.1744  12.7886  12.8855  13.0254  13.2070  13.4804  13.5584  13.6679

     occupation numbers 
     1.0000   1.0000   1.0000   1.0000   1.0000   1.0000   1.0000   1.0000
     1.0000   1.0000   1.0000   1.0000   1.0000   1.0000   1.0000   1.0000
     1.0000   1.0000   1.0000   1.0000   1.0000   1.0000   1.0000   1.0000
     1.0000   1.0000   1.0000   1.0000   1.0000   1.0000   1.0000   1.0000
     1.0000   1.0000   1.0000   1.0000   1.0000   1.0000   1.0000   1.0000
     1.0000   1.0000   1.0000   1.0000   1.0000   1.0000   1.0000   1.0000
     0.0000   0.0000   0.0000   0.0000   0.0000   0.0000   0.0000   0.0000
     0.0000   0.0000   0.0000   0.0000   0.0000   0.0000   0.0000   0.0000

          k = 0.3333-0.1794 0.0000 (  4166 PWs)   bands (ev):

   -24.6120 -24.6089 -18.5822 -18.5420 -15.9835 -15.6198 -15.5897 -15.5100
   -15.1592 -15.0576 -15.0261 -14.7338  -8.2070  -8.1741  -8.1291  -8.1127
    -8.1082  -8.0907  -5.3534  -5.1406  -4.1208  -3.8004  -3.6908  -3.4265
    -2.8033  -2.4006  -2.0926  -2.0181  -1.9284  -1.7115  -0.8551  -0.7600
     0.2707   0.6306   0.8820   1.0591   1.1955   1.4438   1.6343   1.6956
     1.8176   1.9140   1.9506   2.0331   2.1109   2.4806   2.7261   2.8345
     8.5158   8.7420   8.9145  10.1944  11.3530  11.5087  11.6497  11.9355
    11.9883  12.5176  12.6394  12.6556  13.1342  13.2789  13.4107  13.4732

     occupation numbers 
     1.0000   1.0000   1.0000   1.0000   1.0000   1.0000   1.0000   1.0000
     1.0000   1.0000   1.0000   1.0000   1.0000   1.0000   1.0000   1.0000
     1.0000   1.0000   1.0000   1.0000   1.0000   1.0000   1.0000   1.0000
     1.0000   1.0000   1.0000   1.0000   1.0000   1.0000   1.0000   1.0000
     1.0000   1.0000   1.0000   1.0000   1.0000   1.0000   1.0000   1.0000
     1.0000   1.0000   1.0000   1.0000   1.0000   1.0000   1.0000   1.0000
     0.0000   0.0000   0.0000   0.0000   0.0000   0.0000   0.0000   0.0000
     0.0000   0.0000   0.0000   0.0000   0.0000   0.0000   0.0000   0.0000

          k = 0.3333-0.1794 0.3970 (  4159 PWs)   bands (ev):

   -24.6105 -24.6090 -18.5679 -18.5479 -15.9495 -15.7794 -15.5527 -15.5063
   -15.0988 -15.0382 -14.9795 -14.8180  -8.1981  -8.1816  -8.1049  -8.0988
    -8.0878  -8.0803  -5.2743  -5.1890  -3.9355  -3.7239  -3.6473  -3.5730
    -2.7350  -2.5307  -2.0317  -1.9729  -1.9579  -1.8052  -0.5408  -0.2476
     0.0631   0.5304   0.8633   0.8975   1.0149   1.0823   1.3454   1.4676
     1.6569   1.7227   2.0429   2.0943   2.3170   2.4708   2.6796   2.7277
     8.7204   8.8951   9.3373  10.4992  10.5506  11.0787  11.8824  11.9195
    12.0631  12.7070  12.9939  13.0880  13.4013  13.4145  13.5721  13.7287

     occupation numbers 
     1.0000   1.0000   1.0000   1.0000   1.0000   1.0000   1.0000   1.0000
     1.0000   1.0000   1.0000   1.0000   1.0000   1.0000   1.0000   1.0000
     1.0000   1.0000   1.0000   1.0000   1.0000   1.0000   1.0000   1.0000
     1.0000   1.0000   1.0000   1.0000   1.0000   1.0000   1.0000   1.0000
     1.0000   1.0000   1.0000   1.0000   1.0000   1.0000   1.0000   1.0000
     1.0000   1.0000   1.0000   1.0000   1.0000   1.0000   1.0000   1.0000
     0.0000   0.0000   0.0000   0.0000   0.0000   0.0000   0.0000   0.0000
     0.0000   0.0000   0.0000   0.0000   0.0000   0.0000   0.0000   0.0000

     highest occupied, lowest unoccupied level (ev):     2.9725    8.0065

!    total energy              =    -763.87689696 Ry
     estimated scf accuracy    <       0.00000006 Ry

     The total energy is the sum of the following terms:
     one-electron contribution =    -213.82706345 Ry
     hartree contribution      =     156.43011837 Ry
     xc contribution           =    -115.07456353 Ry
     ewald contribution        =    -303.81383049 Ry
     one-center paw contrib.   =    -287.59155786 Ry
      -> PAW hartree energy AE =      77.58152256 Ry
      -> PAW hartree energy PS =     -77.15766394 Ry
      -> PAW xc energy AE      =    -169.30672357 Ry
      -> PAW xc energy PS      =      23.39824651 Ry
      -> total E_H with PAW    =     156.85397700 Ry
      -> total E_XC with PAW   =    -260.98304059 Ry

     convergence has been achieved in   9 iterations

     Writing all to output data dir calculations_bands/myprefix.save/
 
     init_run     :      8.34s CPU      2.69s WALL (       1 calls)
     electrons    :     47.03s CPU     12.97s WALL (       1 calls)

     Called by init_run:
     wfcinit      :      0.82s CPU      0.23s WALL (       1 calls)
     wfcinit:atom :      0.01s CPU      0.00s WALL (       5 calls)
     wfcinit:wfcr :      0.73s CPU      0.21s WALL (       5 calls)
     potinit      :      2.50s CPU      0.65s WALL (       1 calls)
     hinit0       :      3.74s CPU      1.39s WALL (       1 calls)

     Called by electrons:
     c_bands      :     28.58s CPU      7.74s WALL (       9 calls)
     sum_band     :      6.35s CPU      1.80s WALL (       9 calls)
     v_of_rho     :      0.73s CPU      0.21s WALL (      10 calls)
     v_h          :      0.05s CPU      0.01s WALL (      10 calls)
     v_xc         :      0.68s CPU      0.19s WALL (      10 calls)
     newd         :      2.41s CPU      0.68s WALL (      10 calls)
     PAW_pot      :      9.39s CPU      2.51s WALL (      10 calls)
     mix_rho      :      0.13s CPU      0.04s WALL (       9 calls)

     Called by c_bands:
     init_us_2    :      0.17s CPU      0.05s WALL (      95 calls)
     init_us_2:cp :      0.17s CPU      0.05s WALL (      95 calls)
     cegterg      :     20.76s CPU      5.60s WALL (      45 calls)

     Called by sum_band:
     sum_band:wei :      0.01s CPU      0.00s WALL (       9 calls)
     sum_band:loo :      2.30s CPU      0.60s WALL (       9 calls)
     sum_band:buf :      0.04s CPU      0.01s WALL (      45 calls)
     sum_band:ini :      0.08s CPU      0.02s WALL (      45 calls)
     sum_band:cal :      0.16s CPU      0.04s WALL (      45 calls)
     sum_band:bec :      0.02s CPU      0.01s WALL (      45 calls)
     addusdens    :      1.42s CPU      0.50s WALL (       9 calls)
     addusd:skk   :      0.06s CPU      0.02s WALL (      45 calls)
     addusd:dgemm :      0.28s CPU      0.20s WALL (      45 calls)
     addusd:qvan2 :      0.87s CPU      0.22s WALL (      45 calls)

     Called by *egterg:
     cdiaghg      :      4.14s CPU      1.10s WALL (     250 calls)
     cegterg:over :      0.98s CPU      0.28s WALL (     205 calls)
     cegterg:upda :      0.42s CPU      0.11s WALL (     205 calls)
     cegterg:last :      0.67s CPU      0.18s WALL (     103 calls)
     cdiaghg:chol :      0.32s CPU      0.08s WALL (     250 calls)
     cdiaghg:inve :      0.06s CPU      0.02s WALL (     250 calls)
     cdiaghg:para :      0.60s CPU      0.16s WALL (     500 calls)
     h_psi        :     14.36s CPU      3.88s WALL (     255 calls)
     s_psi        :      0.37s CPU      0.10s WALL (     255 calls)
     g_psi        :      0.03s CPU      0.01s WALL (     205 calls)

     Called by h_psi:
     h_psi:calbec :      0.68s CPU      0.19s WALL (     255 calls)
     vloc_psi     :     13.18s CPU      3.55s WALL (     255 calls)
     add_vuspsi   :      0.44s CPU      0.12s WALL (     255 calls)

     General routines
     calbec       :      0.83s CPU      0.23s WALL (     300 calls)
     fft          :      1.41s CPU      0.38s WALL (     128 calls)
     ffts         :      0.65s CPU      0.17s WALL (      19 calls)
     fftw         :     13.14s CPU      3.51s WALL (   19706 calls)
     interpolate  :      0.67s CPU      0.17s WALL (      10 calls)
 
     Parallel routines

     PAW routines
     PAW_pot      :      9.39s CPU      2.51s WALL (      10 calls)
     PAW_symme    :      0.07s CPU      0.02s WALL (      19 calls)
 
     PWSCF        :     56.14s CPU     16.40s WALL

 
   This run was terminated on:  11:26:14   7Jun2023            

=------------------------------------------------------------------------------=
   JOB DONE.
=------------------------------------------------------------------------------=
