
     Program PWSCF v.7.0 starts on  7Jun2023 at 12:58: 9 

     This program is part of the open-source Quantum ESPRESSO suite
     for quantum simulation of materials; please cite
         "P. Giannozzi et al., J. Phys.:Condens. Matter 21 395502 (2009);
         "P. Giannozzi et al., J. Phys.:Condens. Matter 29 465901 (2017);
         "P. Giannozzi et al., J. Chem. Phys. 152 154105 (2020);
          URL http://www.quantum-espresso.org", 
     in publications or presentations arising from this work. More details at
     http://www.quantum-espresso.org/quote

     Parallel version (MPI & OpenMP), running on      32 processor cores
     Number of MPI processes:                 8
     Threads/MPI process:                     4

     MPI processes distributed on     1 nodes
     K-points division:     npool     =       2
     R & G space division:  proc/nbgrp/npool/nimage =       4
     86390 MiB available memory on the printing compute node when the environment starts
 
     Reading input from espresso_8925.pwi
Warning: card &CELL ignored
Warning: card / ignored

     Current dimensions of program PWSCF are:
     Max number of different atomic species (ntypx) = 10
     Max number of k-points (npk) =  40000
     Max angular momentum in pseudopotentials (lmaxx) =  4
     file Ba.pbe-spn-kjpaw_psl.1.0.0.UPF: wavefunction(s)  5S 6S renormalized
     file O.pbe-n-kjpaw_psl.0.1.UPF: wavefunction(s)  2P renormalized
     Message from routine setup:
     using ibrav=0 with symmetry is DISCOURAGED, use correct ibrav instead

     Subspace diagonalization in iterative solution of the eigenvalue problem:
     one sub-group per band group will be used
     scalapack distributed-memory algorithm (size of sub-group:  2*  2 procs)

 
     Parallelization info
     --------------------
     sticks:   dense  smooth     PW     G-vecs:    dense   smooth      PW
     Min         521     260     73                17927     6352     947
     Max         522     261     74                17930     6357     950
     Sum        2085    1041    293                71711    25413    3791
 
     Using Slab Decomposition
 


     bravais-lattice index     =            0
     lattice parameter (alat)  =      10.4548  a.u.
     unit-cell volume          =    1142.7555 (a.u.)^3
     number of atoms/cell      =            8
     number of atomic types    =            3
     number of electrons       =        64.00
     number of Kohn-Sham states=           64
     kinetic-energy cutoff     =      30.0000  Ry
     charge density cutoff     =     240.0000  Ry
     scf convergence threshold =      1.0E-06
     mixing beta               =       0.7000
     number of iterations used =            8  plain     mixing
     Exchange-correlation= SLA  PW   PBX  PBC
                           (   1   4   3   4   0   0   0)

     celldm(1)=  10.454849  celldm(2)=   0.000000  celldm(3)=   0.000000
     celldm(4)=   0.000000  celldm(5)=   0.000000  celldm(6)=   0.000000

     crystal axes: (cart. coord. in units of alat)
               a(1) = (   1.000000   0.000000   0.000000 )  
               a(2) = (   0.000000   1.000000   0.000000 )  
               a(3) = (   0.000000   0.000000   1.000000 )  

     reciprocal axes: (cart. coord. in units 2 pi/alat)
               b(1) = (  1.000000  0.000000  0.000000 )  
               b(2) = (  0.000000  1.000000  0.000000 )  
               b(3) = (  0.000000  0.000000  1.000000 )  


     PseudoPot. # 1 for Ba read from file:
     /home/pragov/projects/rrg-bengioy-ad/pragov/crystal_structure_design/SSSP/Ba.pbe-spn-kjpaw_psl.1.0.0.UPF
     MD5 check sum: c432291d3e53af55f19d5e8866385beb
     Pseudo is Projector augmented-wave + core cor, Zval = 10.0
     Generated using "atomic" code by A. Dal Corso  v.5.1
     Shape of augmentation charge: PSQ
     Using radial grid of 1251 points,  7 beta functions with: 
                l(1) =   0
                l(2) =   0
                l(3) =   0
                l(4) =   1
                l(5) =   1
                l(6) =   2
                l(7) =   2
     Q(r) pseudized with 0 coefficients 


     PseudoPot. # 2 for Sr read from file:
     /home/pragov/projects/rrg-bengioy-ad/pragov/crystal_structure_design/SSSP/Sr_pbe_v1.uspp.F.UPF
     MD5 check sum: 6b418c05fbe9db5448babca5e47b7a5b
     Pseudo is Ultrasoft + core correction, Zval = 10.0
     Generated by new atomic code, or converted to UPF format
     Using radial grid of  883 points,  6 beta functions with: 
                l(1) =   0
                l(2) =   0
                l(3) =   1
                l(4) =   1
                l(5) =   2
                l(6) =   2
     Q(r) pseudized with  6 coefficients,  rinner =    1.400   1.400   1.400
                                                       1.400   1.400

     PseudoPot. # 3 for O  read from file:
     /home/pragov/projects/rrg-bengioy-ad/pragov/crystal_structure_design/SSSP/O.pbe-n-kjpaw_psl.0.1.UPF
     MD5 check sum: 0234752ac141de4415c5fc33072bef88
     Pseudo is Projector augmented-wave + core cor, Zval =  6.0
     Generated using "atomic" code by A. Dal Corso  v.5.0.99 svn rev. 10869
     Shape of augmentation charge: BESSEL
     Using radial grid of 1095 points,  4 beta functions with: 
                l(1) =   0
                l(2) =   0
                l(3) =   1
                l(4) =   1
     Q(r) pseudized with 0 coefficients 


     atomic species   valence    mass     pseudopotential
        Ba            10.00   137.32700     Ba( 1.00)
        Sr            10.00    87.62000     Sr( 1.00)
        O              6.00    15.99900     O ( 1.00)

     48 Sym. Ops., with inversion, found


                                    s                        frac. trans.

      isym =  1     identity                                     

 cryst.   s( 1) = (     1          0          0      )
                  (     0          1          0      )
                  (     0          0          1      )

 cart.    s( 1) = (  1.0000000  0.0000000  0.0000000 )
                  (  0.0000000  1.0000000  0.0000000 )
                  (  0.0000000  0.0000000  1.0000000 )


      isym =  2     180 deg rotation - cart. axis [0,0,1]        

 cryst.   s( 2) = (    -1          0          0      )
                  (     0         -1          0      )
                  (     0          0          1      )

 cart.    s( 2) = ( -1.0000000  0.0000000  0.0000000 )
                  (  0.0000000 -1.0000000  0.0000000 )
                  (  0.0000000  0.0000000  1.0000000 )


      isym =  3     180 deg rotation - cart. axis [0,1,0]        

 cryst.   s( 3) = (    -1          0          0      )
                  (     0          1          0      )
                  (     0          0         -1      )

 cart.    s( 3) = ( -1.0000000  0.0000000  0.0000000 )
                  (  0.0000000  1.0000000  0.0000000 )
                  (  0.0000000  0.0000000 -1.0000000 )


      isym =  4     180 deg rotation - cart. axis [1,0,0]        

 cryst.   s( 4) = (     1          0          0      )
                  (     0         -1          0      )
                  (     0          0         -1      )

 cart.    s( 4) = (  1.0000000  0.0000000  0.0000000 )
                  (  0.0000000 -1.0000000  0.0000000 )
                  (  0.0000000  0.0000000 -1.0000000 )


      isym =  5     180 deg rotation - cart. axis [1,1,0]        

 cryst.   s( 5) = (     0          1          0      )
                  (     1          0          0      )
                  (     0          0         -1      )

 cart.    s( 5) = (  0.0000000  1.0000000  0.0000000 )
                  (  1.0000000  0.0000000  0.0000000 )
                  (  0.0000000  0.0000000 -1.0000000 )


      isym =  6     180 deg rotation - cart. axis [1,-1,0]       

 cryst.   s( 6) = (     0         -1          0      )
                  (    -1          0          0      )
                  (     0          0         -1      )

 cart.    s( 6) = (  0.0000000 -1.0000000  0.0000000 )
                  ( -1.0000000  0.0000000  0.0000000 )
                  (  0.0000000  0.0000000 -1.0000000 )


      isym =  7      90 deg rotation - cart. axis [0,0,-1]       

 cryst.   s( 7) = (     0         -1          0      )
                  (     1          0          0      )
                  (     0          0          1      )

 cart.    s( 7) = (  0.0000000  1.0000000  0.0000000 )
                  ( -1.0000000  0.0000000  0.0000000 )
                  (  0.0000000  0.0000000  1.0000000 )


      isym =  8      90 deg rotation - cart. axis [0,0,1]        

 cryst.   s( 8) = (     0          1          0      )
                  (    -1          0          0      )
                  (     0          0          1      )

 cart.    s( 8) = (  0.0000000 -1.0000000  0.0000000 )
                  (  1.0000000  0.0000000  0.0000000 )
                  (  0.0000000  0.0000000  1.0000000 )


      isym =  9     180 deg rotation - cart. axis [1,0,1]        

 cryst.   s( 9) = (     0          0          1      )
                  (     0         -1          0      )
                  (     1          0          0      )

 cart.    s( 9) = (  0.0000000  0.0000000  1.0000000 )
                  (  0.0000000 -1.0000000  0.0000000 )
                  (  1.0000000  0.0000000  0.0000000 )


      isym = 10     180 deg rotation - cart. axis [-1,0,1]       

 cryst.   s(10) = (     0          0         -1      )
                  (     0         -1          0      )
                  (    -1          0          0      )

 cart.    s(10) = (  0.0000000  0.0000000 -1.0000000 )
                  (  0.0000000 -1.0000000  0.0000000 )
                  ( -1.0000000  0.0000000  0.0000000 )


      isym = 11      90 deg rotation - cart. axis [0,1,0]        

 cryst.   s(11) = (     0          0         -1      )
                  (     0          1          0      )
                  (     1          0          0      )

 cart.    s(11) = (  0.0000000  0.0000000  1.0000000 )
                  (  0.0000000  1.0000000  0.0000000 )
                  ( -1.0000000  0.0000000  0.0000000 )


      isym = 12      90 deg rotation - cart. axis [0,-1,0]       

 cryst.   s(12) = (     0          0          1      )
                  (     0          1          0      )
                  (    -1          0          0      )

 cart.    s(12) = (  0.0000000  0.0000000 -1.0000000 )
                  (  0.0000000  1.0000000  0.0000000 )
                  (  1.0000000  0.0000000  0.0000000 )


      isym = 13     180 deg rotation - cart. axis [0,1,1]        

 cryst.   s(13) = (    -1          0          0      )
                  (     0          0          1      )
                  (     0          1          0      )

 cart.    s(13) = ( -1.0000000  0.0000000  0.0000000 )
                  (  0.0000000  0.0000000  1.0000000 )
                  (  0.0000000  1.0000000  0.0000000 )


      isym = 14     180 deg rotation - cart. axis [0,1,-1]       

 cryst.   s(14) = (    -1          0          0      )
                  (     0          0         -1      )
                  (     0         -1          0      )

 cart.    s(14) = ( -1.0000000  0.0000000  0.0000000 )
                  (  0.0000000  0.0000000 -1.0000000 )
                  (  0.0000000 -1.0000000  0.0000000 )


      isym = 15      90 deg rotation - cart. axis [-1,0,0]       

 cryst.   s(15) = (     1          0          0      )
                  (     0          0         -1      )
                  (     0          1          0      )

 cart.    s(15) = (  1.0000000  0.0000000  0.0000000 )
                  (  0.0000000  0.0000000  1.0000000 )
                  (  0.0000000 -1.0000000  0.0000000 )


      isym = 16      90 deg rotation - cart. axis [1,0,0]        

 cryst.   s(16) = (     1          0          0      )
                  (     0          0          1      )
                  (     0         -1          0      )

 cart.    s(16) = (  1.0000000  0.0000000  0.0000000 )
                  (  0.0000000  0.0000000 -1.0000000 )
                  (  0.0000000  1.0000000  0.0000000 )


      isym = 17     120 deg rotation - cart. axis [-1,-1,-1]     

 cryst.   s(17) = (     0          0          1      )
                  (     1          0          0      )
                  (     0          1          0      )

 cart.    s(17) = (  0.0000000  1.0000000  0.0000000 )
                  (  0.0000000  0.0000000  1.0000000 )
                  (  1.0000000  0.0000000  0.0000000 )


      isym = 18     120 deg rotation - cart. axis [-1,1,1]       

 cryst.   s(18) = (     0          0         -1      )
                  (    -1          0          0      )
                  (     0          1          0      )

 cart.    s(18) = (  0.0000000 -1.0000000  0.0000000 )
                  (  0.0000000  0.0000000  1.0000000 )
                  ( -1.0000000  0.0000000  0.0000000 )


      isym = 19     120 deg rotation - cart. axis [1,1,-1]       

 cryst.   s(19) = (     0          0         -1      )
                  (     1          0          0      )
                  (     0         -1          0      )

 cart.    s(19) = (  0.0000000  1.0000000  0.0000000 )
                  (  0.0000000  0.0000000 -1.0000000 )
                  ( -1.0000000  0.0000000  0.0000000 )


      isym = 20     120 deg rotation - cart. axis [1,-1,1]       

 cryst.   s(20) = (     0          0          1      )
                  (    -1          0          0      )
                  (     0         -1          0      )

 cart.    s(20) = (  0.0000000 -1.0000000  0.0000000 )
                  (  0.0000000  0.0000000 -1.0000000 )
                  (  1.0000000  0.0000000  0.0000000 )


      isym = 21     120 deg rotation - cart. axis [1,1,1]        

 cryst.   s(21) = (     0          1          0      )
                  (     0          0          1      )
                  (     1          0          0      )

 cart.    s(21) = (  0.0000000  0.0000000  1.0000000 )
                  (  1.0000000  0.0000000  0.0000000 )
                  (  0.0000000  1.0000000  0.0000000 )


      isym = 22     120 deg rotation - cart. axis [-1,1,-1]      

 cryst.   s(22) = (     0         -1          0      )
                  (     0          0         -1      )
                  (     1          0          0      )

 cart.    s(22) = (  0.0000000  0.0000000  1.0000000 )
                  ( -1.0000000  0.0000000  0.0000000 )
                  (  0.0000000 -1.0000000  0.0000000 )


      isym = 23     120 deg rotation - cart. axis [1,-1,-1]      

 cryst.   s(23) = (     0         -1          0      )
                  (     0          0          1      )
                  (    -1          0          0      )

 cart.    s(23) = (  0.0000000  0.0000000 -1.0000000 )
                  ( -1.0000000  0.0000000  0.0000000 )
                  (  0.0000000  1.0000000  0.0000000 )


      isym = 24     120 deg rotation - cart. axis [-1,-1,1]      

 cryst.   s(24) = (     0          1          0      )
                  (     0          0         -1      )
                  (    -1          0          0      )

 cart.    s(24) = (  0.0000000  0.0000000 -1.0000000 )
                  (  1.0000000  0.0000000  0.0000000 )
                  (  0.0000000 -1.0000000  0.0000000 )


      isym = 25     inversion                                    

 cryst.   s(25) = (    -1          0          0      )
                  (     0         -1          0      )
                  (     0          0         -1      )

 cart.    s(25) = ( -1.0000000  0.0000000  0.0000000 )
                  (  0.0000000 -1.0000000  0.0000000 )
                  (  0.0000000  0.0000000 -1.0000000 )


      isym = 26     inv. 180 deg rotation - cart. axis [0,0,1]   

 cryst.   s(26) = (     1          0          0      )
                  (     0          1          0      )
                  (     0          0         -1      )

 cart.    s(26) = (  1.0000000  0.0000000  0.0000000 )
                  (  0.0000000  1.0000000  0.0000000 )
                  (  0.0000000  0.0000000 -1.0000000 )


      isym = 27     inv. 180 deg rotation - cart. axis [0,1,0]   

 cryst.   s(27) = (     1          0          0      )
                  (     0         -1          0      )
                  (     0          0          1      )

 cart.    s(27) = (  1.0000000  0.0000000  0.0000000 )
                  (  0.0000000 -1.0000000  0.0000000 )
                  (  0.0000000  0.0000000  1.0000000 )


      isym = 28     inv. 180 deg rotation - cart. axis [1,0,0]   

 cryst.   s(28) = (    -1          0          0      )
                  (     0          1          0      )
                  (     0          0          1      )

 cart.    s(28) = ( -1.0000000  0.0000000  0.0000000 )
                  (  0.0000000  1.0000000  0.0000000 )
                  (  0.0000000  0.0000000  1.0000000 )


      isym = 29     inv. 180 deg rotation - cart. axis [1,1,0]   

 cryst.   s(29) = (     0         -1          0      )
                  (    -1          0          0      )
                  (     0          0          1      )

 cart.    s(29) = (  0.0000000 -1.0000000  0.0000000 )
                  ( -1.0000000  0.0000000  0.0000000 )
                  (  0.0000000  0.0000000  1.0000000 )


      isym = 30     inv. 180 deg rotation - cart. axis [1,-1,0]  

 cryst.   s(30) = (     0          1          0      )
                  (     1          0          0      )
                  (     0          0          1      )

 cart.    s(30) = (  0.0000000  1.0000000  0.0000000 )
                  (  1.0000000  0.0000000  0.0000000 )
                  (  0.0000000  0.0000000  1.0000000 )


      isym = 31     inv.  90 deg rotation - cart. axis [0,0,-1]  

 cryst.   s(31) = (     0          1          0      )
                  (    -1          0          0      )
                  (     0          0         -1      )

 cart.    s(31) = (  0.0000000 -1.0000000  0.0000000 )
                  (  1.0000000  0.0000000  0.0000000 )
                  (  0.0000000  0.0000000 -1.0000000 )


      isym = 32     inv.  90 deg rotation - cart. axis [0,0,1]   

 cryst.   s(32) = (     0         -1          0      )
                  (     1          0          0      )
                  (     0          0         -1      )

 cart.    s(32) = (  0.0000000  1.0000000  0.0000000 )
                  ( -1.0000000  0.0000000  0.0000000 )
                  (  0.0000000  0.0000000 -1.0000000 )


      isym = 33     inv. 180 deg rotation - cart. axis [1,0,1]   

 cryst.   s(33) = (     0          0         -1      )
                  (     0          1          0      )
                  (    -1          0          0      )

 cart.    s(33) = (  0.0000000  0.0000000 -1.0000000 )
                  (  0.0000000  1.0000000  0.0000000 )
                  ( -1.0000000  0.0000000  0.0000000 )


      isym = 34     inv. 180 deg rotation - cart. axis [-1,0,1]  

 cryst.   s(34) = (     0          0          1      )
                  (     0          1          0      )
                  (     1          0          0      )

 cart.    s(34) = (  0.0000000  0.0000000  1.0000000 )
                  (  0.0000000  1.0000000  0.0000000 )
                  (  1.0000000  0.0000000  0.0000000 )


      isym = 35     inv.  90 deg rotation - cart. axis [0,1,0]   

 cryst.   s(35) = (     0          0          1      )
                  (     0         -1          0      )
                  (    -1          0          0      )

 cart.    s(35) = (  0.0000000  0.0000000 -1.0000000 )
                  (  0.0000000 -1.0000000  0.0000000 )
                  (  1.0000000  0.0000000  0.0000000 )


      isym = 36     inv.  90 deg rotation - cart. axis [0,-1,0]  

 cryst.   s(36) = (     0          0         -1      )
                  (     0         -1          0      )
                  (     1          0          0      )

 cart.    s(36) = (  0.0000000  0.0000000  1.0000000 )
                  (  0.0000000 -1.0000000  0.0000000 )
                  ( -1.0000000  0.0000000  0.0000000 )


      isym = 37     inv. 180 deg rotation - cart. axis [0,1,1]   

 cryst.   s(37) = (     1          0          0      )
                  (     0          0         -1      )
                  (     0         -1          0      )

 cart.    s(37) = (  1.0000000  0.0000000  0.0000000 )
                  (  0.0000000  0.0000000 -1.0000000 )
                  (  0.0000000 -1.0000000  0.0000000 )


      isym = 38     inv. 180 deg rotation - cart. axis [0,1,-1]  

 cryst.   s(38) = (     1          0          0      )
                  (     0          0          1      )
                  (     0          1          0      )

 cart.    s(38) = (  1.0000000  0.0000000  0.0000000 )
                  (  0.0000000  0.0000000  1.0000000 )
                  (  0.0000000  1.0000000  0.0000000 )


      isym = 39     inv.  90 deg rotation - cart. axis [-1,0,0]  

 cryst.   s(39) = (    -1          0          0      )
                  (     0          0          1      )
                  (     0         -1          0      )

 cart.    s(39) = ( -1.0000000  0.0000000  0.0000000 )
                  (  0.0000000  0.0000000 -1.0000000 )
                  (  0.0000000  1.0000000  0.0000000 )


      isym = 40     inv.  90 deg rotation - cart. axis [1,0,0]   

 cryst.   s(40) = (    -1          0          0      )
                  (     0          0         -1      )
                  (     0          1          0      )

 cart.    s(40) = ( -1.0000000  0.0000000  0.0000000 )
                  (  0.0000000  0.0000000  1.0000000 )
                  (  0.0000000 -1.0000000  0.0000000 )


      isym = 41     inv. 120 deg rotation - cart. axis [-1,-1,-1]

 cryst.   s(41) = (     0          0         -1      )
                  (    -1          0          0      )
                  (     0         -1          0      )

 cart.    s(41) = (  0.0000000 -1.0000000  0.0000000 )
                  (  0.0000000  0.0000000 -1.0000000 )
                  ( -1.0000000  0.0000000  0.0000000 )


      isym = 42     inv. 120 deg rotation - cart. axis [-1,1,1]  

 cryst.   s(42) = (     0          0          1      )
                  (     1          0          0      )
                  (     0         -1          0      )

 cart.    s(42) = (  0.0000000  1.0000000  0.0000000 )
                  (  0.0000000  0.0000000 -1.0000000 )
                  (  1.0000000  0.0000000  0.0000000 )


      isym = 43     inv. 120 deg rotation - cart. axis [1,1,-1]  

 cryst.   s(43) = (     0          0          1      )
                  (    -1          0          0      )
                  (     0          1          0      )

 cart.    s(43) = (  0.0000000 -1.0000000  0.0000000 )
                  (  0.0000000  0.0000000  1.0000000 )
                  (  1.0000000  0.0000000  0.0000000 )


      isym = 44     inv. 120 deg rotation - cart. axis [1,-1,1]  

 cryst.   s(44) = (     0          0         -1      )
                  (     1          0          0      )
                  (     0          1          0      )

 cart.    s(44) = (  0.0000000  1.0000000  0.0000000 )
                  (  0.0000000  0.0000000  1.0000000 )
                  ( -1.0000000  0.0000000  0.0000000 )


      isym = 45     inv. 120 deg rotation - cart. axis [1,1,1]   

 cryst.   s(45) = (     0         -1          0      )
                  (     0          0         -1      )
                  (    -1          0          0      )

 cart.    s(45) = (  0.0000000  0.0000000 -1.0000000 )
                  ( -1.0000000  0.0000000  0.0000000 )
                  (  0.0000000 -1.0000000  0.0000000 )


      isym = 46     inv. 120 deg rotation - cart. axis [-1,1,-1] 

 cryst.   s(46) = (     0          1          0      )
                  (     0          0          1      )
                  (    -1          0          0      )

 cart.    s(46) = (  0.0000000  0.0000000 -1.0000000 )
                  (  1.0000000  0.0000000  0.0000000 )
                  (  0.0000000  1.0000000  0.0000000 )


      isym = 47     inv. 120 deg rotation - cart. axis [1,-1,-1] 

 cryst.   s(47) = (     0          1          0      )
                  (     0          0         -1      )
                  (     1          0          0      )

 cart.    s(47) = (  0.0000000  0.0000000  1.0000000 )
                  (  1.0000000  0.0000000  0.0000000 )
                  (  0.0000000 -1.0000000  0.0000000 )


      isym = 48     inv. 120 deg rotation - cart. axis [-1,-1,1] 

 cryst.   s(48) = (     0         -1          0      )
                  (     0          0          1      )
                  (     1          0          0      )

 cart.    s(48) = (  0.0000000  0.0000000  1.0000000 )
                  ( -1.0000000  0.0000000  0.0000000 )
                  (  0.0000000  1.0000000  0.0000000 )


   Cartesian axes

     site n.     atom                  positions (alat units)
         1           Ba  tau(   1) = (   0.0000000   0.0000000   0.5000000  )
         2           Ba  tau(   2) = (   0.0000000   0.5000000   0.0000000  )
         3           Ba  tau(   3) = (   0.5000000   0.0000000   0.0000000  )
         4           Sr  tau(   4) = (   0.5000000   0.5000000   0.5000000  )
         5           O   tau(   5) = (   0.0000000   0.0000000   0.0000000  )
         6           O   tau(   6) = (   0.5000000   0.5000000   0.0000000  )
         7           O   tau(   7) = (   0.5000000   0.0000000   0.5000000  )
         8           O   tau(   8) = (   0.0000000   0.5000000   0.5000000  )

   Crystallographic axes

     site n.     atom                  positions (cryst. coord.)
         1           Ba  tau(   1) = (  0.0000000  0.0000000  0.5000000  )
         2           Ba  tau(   2) = (  0.0000000  0.5000000  0.0000000  )
         3           Ba  tau(   3) = (  0.5000000  0.0000000  0.0000000  )
         4           Sr  tau(   4) = (  0.5000000  0.5000000  0.5000000  )
         5           O   tau(   5) = (  0.0000000  0.0000000  0.0000000  )
         6           O   tau(   6) = (  0.5000000  0.5000000  0.0000000  )
         7           O   tau(   7) = (  0.5000000  0.0000000  0.5000000  )
         8           O   tau(   8) = (  0.0000000  0.5000000  0.5000000  )

     number of k points=     4
                       cart. coord. in units 2pi/alat
        k(    1) = (   0.0000000   0.0000000   0.0000000), wk =   0.0740741
        k(    2) = (   0.0000000   0.0000000   0.3333333), wk =   0.4444444
        k(    3) = (   0.0000000   0.3333333   0.3333333), wk =   0.8888889
        k(    4) = (   0.3333333   0.3333333   0.3333333), wk =   0.5925926

                       cryst. coord.
        k(    1) = (   0.0000000   0.0000000   0.0000000), wk =   0.0740741
        k(    2) = (   0.0000000   0.0000000   0.3333333), wk =   0.4444444
        k(    3) = (   0.0000000   0.3333333   0.3333333), wk =   0.8888889
        k(    4) = (   0.3333333   0.3333333   0.3333333), wk =   0.5925926

     Dense  grid:    71711 G-vectors     FFT dimensions: (  54,  54,  54)

     Smooth grid:    25413 G-vectors     FFT dimensions: (  40,  40,  40)

     Dynamical RAM for                 wfc:       0.77 MB

     Dynamical RAM for     wfc (w. buffer):       2.32 MB

     Dynamical RAM for           str. fact:       0.82 MB

     Dynamical RAM for           local pot:       0.00 MB

     Dynamical RAM for          nlocal pot:       1.29 MB

     Dynamical RAM for                qrad:       4.98 MB

     Dynamical RAM for          rho,v,vnew:       1.76 MB

     Dynamical RAM for               rhoin:       0.59 MB

     Dynamical RAM for            rho*nmix:       4.38 MB

     Dynamical RAM for           G-vectors:       1.07 MB

     Dynamical RAM for          h,s,v(r/c):       0.19 MB

     Dynamical RAM for          <psi|beta>:       0.10 MB

     Dynamical RAM for                 psi:       1.55 MB

     Dynamical RAM for                hpsi:       1.55 MB

     Dynamical RAM for                spsi:       1.55 MB

     Dynamical RAM for      wfcinit/wfcrot:       1.64 MB

     Dynamical RAM for           addusdens:      28.73 MB

     Estimated static dynamical RAM per process >      15.48 MB

     Estimated max dynamical RAM per process >      48.58 MB

     Estimated total dynamical RAM >     371.14 MB

     Check: negative core charge=   -0.000007

     Initial potential from superposition of free atoms

     starting charge      63.9153, renormalised to      64.0000

     negative rho (up, down):  6.181E-02 0.000E+00
     Starting wfcs are   44 randomized atomic wfcs +   20 random wfcs
     Checking if some PAW data can be deallocated... 
       PAW data deallocated on    5 nodes for type:  1
       PAW data deallocated on    4 nodes for type:  3

     total cpu time spent up to now is        1.8 secs

     Self-consistent Calculation

     iteration #  1     ecut=    30.00 Ry     beta= 0.70
     Davidson diagonalization with overlap

---- Real-time Memory Report at c_bands before calling an iterative solver
           193 MiB given to the printing process from OS
             0 MiB allocation reported by mallinfo(arena+hblkhd)
         85709 MiB available memory on the node where the printing process lives
------------------
     ethr =  1.00E-02,  avg # of iterations =  7.2

     negative rho (up, down):  6.268E-02 0.000E+00

     total cpu time spent up to now is        2.4 secs

     total energy              =   -1544.62071963 Ry
     estimated scf accuracy    <       2.65508229 Ry

     iteration #  2     ecut=    30.00 Ry     beta= 0.70
     Davidson diagonalization with overlap

---- Real-time Memory Report at c_bands before calling an iterative solver
           237 MiB given to the printing process from OS
             0 MiB allocation reported by mallinfo(arena+hblkhd)
         85600 MiB available memory on the node where the printing process lives
------------------
     ethr =  4.15E-03,  avg # of iterations =  2.8

     negative rho (up, down):  6.321E-02 0.000E+00

     total cpu time spent up to now is        2.8 secs

     total energy              =   -1543.48818903 Ry
     estimated scf accuracy    <      13.21296786 Ry

     iteration #  3     ecut=    30.00 Ry     beta= 0.70
     Davidson diagonalization with overlap

---- Real-time Memory Report at c_bands before calling an iterative solver
           243 MiB given to the printing process from OS
             0 MiB allocation reported by mallinfo(arena+hblkhd)
         85561 MiB available memory on the node where the printing process lives
------------------
     ethr =  4.15E-03,  avg # of iterations =  2.0

     negative rho (up, down):  6.535E-02 0.000E+00

     total cpu time spent up to now is        3.2 secs

     total energy              =   -1545.97020806 Ry
     estimated scf accuracy    <       0.24108213 Ry

     iteration #  4     ecut=    30.00 Ry     beta= 0.70
     Davidson diagonalization with overlap

---- Real-time Memory Report at c_bands before calling an iterative solver
           244 MiB given to the printing process from OS
             0 MiB allocation reported by mallinfo(arena+hblkhd)
         85558 MiB available memory on the node where the printing process lives
------------------
     ethr =  3.77E-04,  avg # of iterations =  3.0

     negative rho (up, down):  6.534E-02 0.000E+00

     total cpu time spent up to now is        3.6 secs

     total energy              =   -1546.00507970 Ry
     estimated scf accuracy    <       0.00328702 Ry

     iteration #  5     ecut=    30.00 Ry     beta= 0.70
     Davidson diagonalization with overlap

---- Real-time Memory Report at c_bands before calling an iterative solver
           245 MiB given to the printing process from OS
             0 MiB allocation reported by mallinfo(arena+hblkhd)
         85563 MiB available memory on the node where the printing process lives
------------------
     ethr =  5.14E-06,  avg # of iterations =  8.0

     negative rho (up, down):  6.526E-02 0.000E+00

     total cpu time spent up to now is        4.1 secs

     total energy              =   -1546.00568599 Ry
     estimated scf accuracy    <       0.00770254 Ry

     iteration #  6     ecut=    30.00 Ry     beta= 0.70
     Davidson diagonalization with overlap

---- Real-time Memory Report at c_bands before calling an iterative solver
           245 MiB given to the printing process from OS
             0 MiB allocation reported by mallinfo(arena+hblkhd)
         85545 MiB available memory on the node where the printing process lives
------------------
     ethr =  5.14E-06,  avg # of iterations =  2.0

     negative rho (up, down):  6.530E-02 0.000E+00

     total cpu time spent up to now is        4.5 secs

     total energy              =   -1546.00699064 Ry
     estimated scf accuracy    <       0.00014740 Ry

     iteration #  7     ecut=    30.00 Ry     beta= 0.70
     Davidson diagonalization with overlap

---- Real-time Memory Report at c_bands before calling an iterative solver
           245 MiB given to the printing process from OS
             0 MiB allocation reported by mallinfo(arena+hblkhd)
         85548 MiB available memory on the node where the printing process lives
------------------
     ethr =  2.30E-07,  avg # of iterations =  2.0

     negative rho (up, down):  6.529E-02 0.000E+00

     total cpu time spent up to now is        4.9 secs

     total energy              =   -1546.00701664 Ry
     estimated scf accuracy    <       0.00000953 Ry

     iteration #  8     ecut=    30.00 Ry     beta= 0.70
     Davidson diagonalization with overlap

---- Real-time Memory Report at c_bands before calling an iterative solver
           245 MiB given to the printing process from OS
             0 MiB allocation reported by mallinfo(arena+hblkhd)
         85549 MiB available memory on the node where the printing process lives
------------------
     ethr =  1.49E-08,  avg # of iterations =  2.0

     negative rho (up, down):  6.529E-02 0.000E+00

     total cpu time spent up to now is        5.4 secs

     End of self-consistent calculation

          k = 0.0000 0.0000 0.0000 (  3191 PWs)   bands (ev):

   -25.6940 -17.6227 -17.3737 -17.3737  -7.7608  -7.7608  -7.7608  -7.2566
    -7.2552  -7.2552  -7.0691  -3.4373  -3.4373  -3.4373  -2.7887  -2.7887
    -2.7887  -2.3828  -2.3828  -2.3828   7.3641   7.3641   7.3641   7.7754
     7.7754   7.7754   7.9253   7.9253   7.9253   8.1046   8.1046   8.1046
    10.3188  10.3188  10.3188  11.1663  12.9609  12.9609  12.9609  13.9278
    14.1286  14.1286  15.0755  15.0755  16.7855  16.7855  17.0233  17.0233
    17.0233  17.1205  17.3425  17.3425  17.3425  17.9590  17.9695  17.9695
    17.9695  19.5997  21.4652  21.4652  21.5574  21.5575  21.5575  22.5591

     occupation numbers 
     1.0000   1.0000   1.0000   1.0000   1.0000   1.0000   1.0000   1.0000
     1.0000   1.0000   1.0000   1.0000   1.0000   1.0000   1.0000   1.0000
     1.0000   1.0000   1.0000   1.0000   1.0000   1.0000   1.0000   1.0000
     1.0000   1.0000   1.0000   1.0000   1.0000   1.0000   1.0000   1.0000
     0.0000   0.0000   0.0000   0.0000   0.0000   0.0000   0.0000   0.0000
     0.0000   0.0000   0.0000   0.0000   0.0000   0.0000   0.0000   0.0000
     0.0000   0.0000   0.0000   0.0000   0.0000   0.0000   0.0000   0.0000
     0.0000   0.0000   0.0000   0.0000   0.0000   0.0000   0.0000   0.0000

          k = 0.0000 0.0000 0.3333 (  3166 PWs)   bands (ev):

   -25.6936 -17.5687 -17.4242 -17.3695  -8.0969  -7.7565  -7.7565  -7.3953
    -7.3854  -7.2503  -6.8136  -3.3215  -3.3215  -2.8523  -2.8523  -2.8404
    -2.4759  -2.4759  -2.4181  -2.2791   6.7968   6.8923   7.0514   7.1788
     7.2492   7.2492   7.7599   7.7599   7.8458   7.8458   8.0147   8.0147
    10.7604  11.5467  11.5467  11.9799  12.1966  13.6507  13.9676  13.9676
    14.2727  14.2727  14.7076  14.7236  15.4351  16.1655  16.2097  16.2097
    16.3374  16.8154  17.3373  17.4114  17.7112  17.9850  19.0498  19.8238
    19.8238  19.9132  20.3172  21.4579  21.4579  22.6111  23.5490  23.5490

     occupation numbers 
     1.0000   1.0000   1.0000   1.0000   1.0000   1.0000   1.0000   1.0000
     1.0000   1.0000   1.0000   1.0000   1.0000   1.0000   1.0000   1.0000
     1.0000   1.0000   1.0000   1.0000   1.0000   1.0000   1.0000   1.0000
     1.0000   1.0000   1.0000   1.0000   1.0000   1.0000   1.0000   1.0000
     0.0000   0.0000   0.0000   0.0000   0.0000   0.0000   0.0000   0.0000
     0.0000   0.0000   0.0000   0.0000   0.0000   0.0000   0.0000   0.0000
     0.0000   0.0000   0.0000   0.0000   0.0000   0.0000   0.0000   0.0000
     0.0000   0.0000   0.0000   0.0000   0.0000   0.0000   0.0000   0.0000

          k = 0.0000 0.3333 0.3333 (  3171 PWs)   bands (ev):

   -25.6932 -17.5220 -17.4301 -17.4005  -8.1591  -8.1433  -7.7525  -7.5304
    -7.4055  -6.9085  -6.8964  -3.1744  -2.8751  -2.7685  -2.7435  -2.6399
    -2.5121  -2.4419  -2.3244  -2.2823   6.4342   6.7203   6.8957   6.9006
     6.9456   6.9924   7.0982   7.1108   7.1252   7.7183   7.7841   7.9029
    11.8766  11.9336  12.5049  12.5206  13.1043  13.8078  13.9140  14.0153
    14.0795  14.6732  15.1240  15.2587  15.3401  15.8325  15.9653  16.0838
    16.4642  16.5746  17.1856  17.3756  17.7924  18.4638  18.7282  19.0736
    20.4403  20.7514  21.0616  21.5540  21.5939  22.4795  22.8684  23.0670

     occupation numbers 
     1.0000   1.0000   1.0000   1.0000   1.0000   1.0000   1.0000   1.0000
     1.0000   1.0000   1.0000   1.0000   1.0000   1.0000   1.0000   1.0000
     1.0000   1.0000   1.0000   1.0000   1.0000   1.0000   1.0000   1.0000
     1.0000   1.0000   1.0000   1.0000   1.0000   1.0000   1.0000   1.0000
     0.0000   0.0000   0.0000   0.0000   0.0000   0.0000   0.0000   0.0000
     0.0000   0.0000   0.0000   0.0000   0.0000   0.0000   0.0000   0.0000
     0.0000   0.0000   0.0000   0.0000   0.0000   0.0000   0.0000   0.0000
     0.0000   0.0000   0.0000   0.0000   0.0000   0.0000   0.0000   0.0000

          k = 0.3333 0.3333 0.3333 (  3181 PWs)   bands (ev):

   -25.6929 -17.4892 -17.4255 -17.4255  -8.2226  -8.2226  -8.1973  -7.5538
    -6.9971  -6.9743  -6.9743  -2.6985  -2.6504  -2.6504  -2.5105  -2.5105
    -2.4462  -2.4360  -2.3470  -2.3470   6.0197   6.5289   6.6904   6.6904
     6.8917   6.8917   6.8989   6.8989   6.9563   7.0069   7.0069   7.0168
    12.6561  12.7557  12.7557  12.8399  14.1086  14.1530  14.1530  14.4975
    14.5721  14.5721  15.6174  15.6174  15.7590  15.8035  15.8035  16.1480
    17.1228  17.1228  17.8987  17.8987  18.3467  18.4440  18.4440  18.5910
    19.5055  20.9138  20.9138  21.1019  21.1019  21.4934  22.0761  22.6537

     occupation numbers 
     1.0000   1.0000   1.0000   1.0000   1.0000   1.0000   1.0000   1.0000
     1.0000   1.0000   1.0000   1.0000   1.0000   1.0000   1.0000   1.0000
     1.0000   1.0000   1.0000   1.0000   1.0000   1.0000   1.0000   1.0000
     1.0000   1.0000   1.0000   1.0000   1.0000   1.0000   1.0000   1.0000
     0.0000   0.0000   0.0000   0.0000   0.0000   0.0000   0.0000   0.0000
     0.0000   0.0000   0.0000   0.0000   0.0000   0.0000   0.0000   0.0000
     0.0000   0.0000   0.0000   0.0000   0.0000   0.0000   0.0000   0.0000
     0.0000   0.0000   0.0000   0.0000   0.0000   0.0000   0.0000   0.0000

     highest occupied, lowest unoccupied level (ev):     8.1046   10.3188

!    total energy              =   -1546.00701817 Ry
     estimated scf accuracy    <       0.00000020 Ry

     The total energy is the sum of the following terms:
     one-electron contribution =     -47.86181494 Ry
     hartree contribution      =      62.63767309 Ry
     xc contribution           =    -109.19629001 Ry
     ewald contribution        =    -288.59686665 Ry
     one-center paw contrib.   =   -1162.98971966 Ry
      -> PAW hartree energy AE =      28.98577179 Ry
      -> PAW hartree energy PS =     -28.87463509 Ry
      -> PAW xc energy AE      =    -394.27514351 Ry
      -> PAW xc energy PS      =      19.20308515 Ry
      -> total E_H with PAW    =      62.74880979 Ry
      -> total E_XC with PAW   =    -484.26834837 Ry

     convergence has been achieved in   8 iterations

     Writing all to output data dir calculations_bands/myprefix.save/
 
     init_run     :      4.66s CPU      1.55s WALL (       1 calls)
     electrons    :     13.29s CPU      3.62s WALL (       1 calls)

     Called by init_run:
     wfcinit      :      0.24s CPU      0.07s WALL (       1 calls)
     wfcinit:atom :      0.00s CPU      0.00s WALL (       2 calls)
     wfcinit:wfcr :      0.23s CPU      0.06s WALL (       2 calls)
     potinit      :      1.93s CPU      0.54s WALL (       1 calls)
     hinit0       :      1.51s CPU      0.46s WALL (       1 calls)

     Called by electrons:
     c_bands      :      6.42s CPU      1.72s WALL (       8 calls)
     sum_band     :      2.10s CPU      0.61s WALL (       8 calls)
     v_of_rho     :      0.43s CPU      0.11s WALL (       9 calls)
     v_h          :      0.03s CPU      0.01s WALL (       9 calls)
     v_xc         :      0.39s CPU      0.10s WALL (       9 calls)
     newd         :      1.24s CPU      0.36s WALL (       9 calls)
     PAW_pot      :      3.36s CPU      0.87s WALL (       9 calls)
     mix_rho      :      0.08s CPU      0.02s WALL (       8 calls)

     Called by c_bands:
     init_us_2    :      0.04s CPU      0.01s WALL (      34 calls)
     init_us_2:cp :      0.03s CPU      0.01s WALL (      34 calls)
     cegterg      :      5.73s CPU      1.53s WALL (      16 calls)

     Called by sum_band:
     sum_band:wei :      0.00s CPU      0.00s WALL (       8 calls)
     sum_band:loo :      0.76s CPU      0.20s WALL (       8 calls)
     sum_band:buf :      0.01s CPU      0.00s WALL (      16 calls)
     sum_band:ini :      0.02s CPU      0.00s WALL (      16 calls)
     sum_band:cal :      0.04s CPU      0.01s WALL (      16 calls)
     sum_band:bec :      0.01s CPU      0.00s WALL (      16 calls)
     addusdens    :      0.97s CPU      0.31s WALL (       8 calls)
     addusd:skk   :      0.01s CPU      0.00s WALL (      24 calls)
     addusd:dgemm :      0.20s CPU      0.12s WALL (      24 calls)
     addusd:qvan2 :      0.69s CPU      0.17s WALL (      24 calls)

     Called by *egterg:
     cdiaghg      :      1.27s CPU      0.33s WALL (      79 calls)
     cegterg:over :      0.20s CPU      0.05s WALL (      63 calls)
     cegterg:upda :      0.12s CPU      0.03s WALL (      63 calls)
     cegterg:last :      0.23s CPU      0.06s WALL (      35 calls)
     cdiaghg:chol :      0.10s CPU      0.03s WALL (      79 calls)
     cdiaghg:inve :      0.02s CPU      0.00s WALL (      79 calls)
     cdiaghg:para :      0.22s CPU      0.06s WALL (     158 calls)
     h_psi        :      3.93s CPU      1.06s WALL (      81 calls)
     s_psi        :      0.06s CPU      0.02s WALL (      81 calls)
     g_psi        :      0.01s CPU      0.00s WALL (      63 calls)

     Called by h_psi:
     h_psi:calbec :      0.12s CPU      0.03s WALL (      81 calls)
     vloc_psi     :      3.66s CPU      0.98s WALL (      81 calls)
     add_vuspsi   :      0.14s CPU      0.04s WALL (      81 calls)

     General routines
     calbec       :      0.16s CPU      0.04s WALL (      97 calls)
     fft          :      1.00s CPU      0.27s WALL (     115 calls)
     ffts         :      1.03s CPU      0.29s WALL (      17 calls)
     fftw         :      3.63s CPU      0.97s WALL (    6312 calls)
     interpolate  :      1.05s CPU      0.29s WALL (       9 calls)
 
     Parallel routines

     PAW routines
     PAW_pot      :      3.36s CPU      0.87s WALL (       9 calls)
     PAW_symme    :      0.05s CPU      0.01s WALL (      17 calls)
 
     PWSCF        :     19.06s CPU      5.83s WALL

 
   This run was terminated on:  12:58:15   7Jun2023            

=------------------------------------------------------------------------------=
   JOB DONE.
=------------------------------------------------------------------------------=
