
     Program PWSCF v.7.0 starts on  7Jun2023 at  6:25:50 

     This program is part of the open-source Quantum ESPRESSO suite
     for quantum simulation of materials; please cite
         "P. Giannozzi et al., J. Phys.:Condens. Matter 21 395502 (2009);
         "P. Giannozzi et al., J. Phys.:Condens. Matter 29 465901 (2017);
         "P. Giannozzi et al., J. Chem. Phys. 152 154105 (2020);
          URL http://www.quantum-espresso.org", 
     in publications or presentations arising from this work. More details at
     http://www.quantum-espresso.org/quote

     Parallel version (MPI & OpenMP), running on      32 processor cores
     Number of MPI processes:                 8
     Threads/MPI process:                     4

     MPI processes distributed on     1 nodes
     K-points division:     npool     =       2
     R & G space division:  proc/nbgrp/npool/nimage =       4
     84601 MiB available memory on the printing compute node when the environment starts
 
     Reading input from espresso_4039.pwi
Warning: card &CELL ignored
Warning: card / ignored

     Current dimensions of program PWSCF are:
     Max number of different atomic species (ntypx) = 10
     Max number of k-points (npk) =  40000
     Max angular momentum in pseudopotentials (lmaxx) =  4
     file O.pbe-n-kjpaw_psl.0.1.UPF: wavefunction(s)  2P renormalized

     Subspace diagonalization in iterative solution of the eigenvalue problem:
     one sub-group per band group will be used
     scalapack distributed-memory algorithm (size of sub-group:  2*  2 procs)

 
     Parallelization info
     --------------------
     sticks:   dense  smooth     PW     G-vecs:    dense   smooth      PW
     Min         622     309     89                31512    11113    1685
     Max         624     310     90                31513    11115    1686
     Sum        2493    1237    357               126049    44457    6741
 
     Using Slab Decomposition
 


     bravais-lattice index     =            0
     lattice parameter (alat)  =      12.0738  a.u.
     unit-cell volume          =    2006.4086 (a.u.)^3
     number of atoms/cell      =           14
     number of atomic types    =            3
     number of electrons       =       112.00
     number of Kohn-Sham states=           64
     kinetic-energy cutoff     =      30.0000  Ry
     charge density cutoff     =     240.0000  Ry
     scf convergence threshold =      1.0E-06
     mixing beta               =       0.7000
     number of iterations used =            8  plain     mixing
     Exchange-correlation= SLA  PW   PBX  PBC
                           (   1   4   3   4   0   0   0)

     celldm(1)=  12.073781  celldm(2)=   0.000000  celldm(3)=   0.000000
     celldm(4)=   0.000000  celldm(5)=   0.000000  celldm(6)=   0.000000

     crystal axes: (cart. coord. in units of alat)
               a(1) = (   1.000000   0.000000   0.000000 )  
               a(2) = (  -0.448102   0.893982   0.000000 )  
               a(3) = (   0.004689   0.007596   1.275148 )  

     reciprocal axes: (cart. coord. in units 2 pi/alat)
               b(1) = (  1.000000  0.501243 -0.006664 )  
               b(2) = (  0.000000  1.118590 -0.006664 )  
               b(3) = (  0.000000  0.000000  0.784223 )  


     PseudoPot. # 1 for Tl read from file:
     /home/pragov/projects/rrg-bengioy-ad/pragov/crystal_structure_design/SSSP/Tl_pbe_v1.2.uspp.F.UPF
     MD5 check sum: b76cf1f7e72655a2b2c53cf6385d7059
     Pseudo is Ultrasoft + core correction, Zval = 13.0
     Generated by new atomic code, or converted to UPF format
     Using radial grid of  899 points,  6 beta functions with: 
                l(1) =   0
                l(2) =   0
                l(3) =   1
                l(4) =   1
                l(5) =   2
                l(6) =   2
     Q(r) pseudized with  6 coefficients,  rinner =    1.100   1.100   1.100
                                                       1.100   1.100

     PseudoPot. # 2 for Se read from file:
     /home/pragov/projects/rrg-bengioy-ad/pragov/crystal_structure_design/SSSP/Se_pbe_v1.uspp.F.UPF
     MD5 check sum: 1b3568f3a8ae88f9a2a0ad0698632c85
     Pseudo is Ultrasoft + core correction, Zval =  6.0
     Generated by new atomic code, or converted to UPF format
     Using radial grid of  877 points,  6 beta functions with: 
                l(1) =   0
                l(2) =   0
                l(3) =   1
                l(4) =   1
                l(5) =   2
                l(6) =   2
     Q(r) pseudized with  8 coefficients,  rinner =    1.300   1.300   1.300
                                                       1.300   1.300

     PseudoPot. # 3 for O  read from file:
     /home/pragov/projects/rrg-bengioy-ad/pragov/crystal_structure_design/SSSP/O.pbe-n-kjpaw_psl.0.1.UPF
     MD5 check sum: 0234752ac141de4415c5fc33072bef88
     Pseudo is Projector augmented-wave + core cor, Zval =  6.0
     Generated using "atomic" code by A. Dal Corso  v.5.0.99 svn rev. 10869
     Shape of augmentation charge: BESSEL
     Using radial grid of 1095 points,  4 beta functions with: 
                l(1) =   0
                l(2) =   0
                l(3) =   1
                l(4) =   1
     Q(r) pseudized with 0 coefficients 


     atomic species   valence    mass     pseudopotential
        Tl            13.00   204.38000     Tl( 1.00)
        Se             6.00    78.97100     Se( 1.00)
        O              6.00    15.99900     O ( 1.00)

     No symmetry found


                                    s                        frac. trans.

      isym =  1     identity                                     

 cryst.   s( 1) = (     1          0          0      )
                  (     0          1          0      )
                  (     0          0          1      )

 cart.    s( 1) = (  1.0000000  0.0000000 -0.0000000 )
                  (  0.0000000  1.0000000 -0.0000000 )
                  (  0.0000000  0.0000000  1.0000000 )


   Cartesian axes

     site n.     atom                  positions (alat units)
         1           Tl  tau(   1) = (   0.0354972   0.5950947   0.3304801  )
         2           Tl  tau(   2) = (   0.0000596   0.0000997   0.0048876  )
         3           Tl  tau(   3) = (   0.5184425   0.3021952   0.9680541  )
         4           Tl  tau(   4) = (   0.0024072   0.0038961   0.6424616  )
         5           Se  tau(   5) = (   0.0539696   0.5924858   0.9656964  )
         6           Se  tau(   6) = (   0.5031432   0.3099441   0.3281224  )
         7           O   tau(   7) = (   0.3013009   0.6882282   0.9696710  )
         8           O   tau(   8) = (  -0.0731765   0.6631882   1.1825442  )
         9           O   tau(   9) = (  -0.0725948   0.6820927   0.7546045  )
        10           O   tau(  10) = (   0.0740905   0.3283460   0.9537877  )
        11           O   tau(  11) = (   0.6399639   0.2369508   0.1170305  )
        12           O   tau(  12) = (   0.4779054   0.5739562   0.3320970  )
        13           O   tau(  13) = (   0.6233243   0.2279596   0.5449702  )
        14           O   tau(  14) = (   0.2579906   0.2095701   0.3162137  )

   Crystallographic axes

     site n.     atom                  positions (cryst. coord.)
         1           Tl  tau(   1) = (  0.3315820  0.6634650  0.2591700  )
         2           Tl  tau(   2) = (  0.0000770  0.0000790  0.0038330  )
         3           Tl  tau(   3) = (  0.6634650  0.3315820  0.7591700  )
         4           Tl  tau(   4) = (  0.0000790  0.0000770  0.5038330  )
         5           Se  tau(   5) = (  0.3445140  0.6563140  0.7573210  )
         6           Se  tau(   6) = (  0.6563140  0.3445140  0.2573210  )
         7           O   tau(   7) = (  0.6398090  0.7633840  0.7604380  )
         8           O   tau(   8) = (  0.2513620  0.7339560  0.9273780  )
         9           O   tau(   9) = (  0.2642710  0.7579540  0.5917780  )
        10           O   tau(  10) = (  0.2323160  0.3609290  0.7479820  )
        11           O   tau(  11) = (  0.7579540  0.2642710  0.0917780  )
        12           O   tau(  12) = (  0.7633840  0.6398090  0.2604380  )
        13           O   tau(  13) = (  0.7339560  0.2513620  0.4273780  )
        14           O   tau(  14) = (  0.3609290  0.2323160  0.2479820  )

     number of k points=    14
                       cart. coord. in units 2pi/alat
        k(    1) = (   0.0000000   0.0000000   0.0000000), wk =   0.0740741
        k(    2) = (   0.0000000   0.0000000   0.2614076), wk =   0.1481481
        k(    3) = (   0.0000000   0.3728635  -0.0022212), wk =   0.1481481
        k(    4) = (   0.0000000   0.3728635   0.2591864), wk =   0.1481481
        k(    5) = (   0.0000000   0.3728635  -0.2636288), wk =   0.1481481
        k(    6) = (   0.3333333   0.1670810  -0.0022212), wk =   0.1481481
        k(    7) = (   0.3333333   0.1670810   0.2591864), wk =   0.1481481
        k(    8) = (   0.3333333   0.1670810  -0.2636288), wk =   0.1481481
        k(    9) = (   0.3333333   0.5399445  -0.0044424), wk =   0.1481481
        k(   10) = (   0.3333333   0.5399445   0.2569652), wk =   0.1481481
        k(   11) = (   0.3333333   0.5399445  -0.2658500), wk =   0.1481481
        k(   12) = (   0.3333333  -0.2057825  -0.0000000), wk =   0.1481481
        k(   13) = (   0.3333333  -0.2057825   0.2614076), wk =   0.1481481
        k(   14) = (   0.3333333  -0.2057825  -0.2614076), wk =   0.1481481

                       cryst. coord.
        k(    1) = (   0.0000000   0.0000000   0.0000000), wk =   0.0740741
        k(    2) = (   0.0000000   0.0000000   0.3333333), wk =   0.1481481
        k(    3) = (   0.0000000   0.3333333   0.0000000), wk =   0.1481481
        k(    4) = (   0.0000000   0.3333333   0.3333333), wk =   0.1481481
        k(    5) = (   0.0000000   0.3333333  -0.3333333), wk =   0.1481481
        k(    6) = (   0.3333333   0.0000000  -0.0000000), wk =   0.1481481
        k(    7) = (   0.3333333   0.0000000   0.3333333), wk =   0.1481481
        k(    8) = (   0.3333333   0.0000000  -0.3333333), wk =   0.1481481
        k(    9) = (   0.3333333   0.3333333   0.0000000), wk =   0.1481481
        k(   10) = (   0.3333333   0.3333333   0.3333333), wk =   0.1481481
        k(   11) = (   0.3333333   0.3333333  -0.3333333), wk =   0.1481481
        k(   12) = (   0.3333333  -0.3333333   0.0000000), wk =   0.1481481
        k(   13) = (   0.3333333  -0.3333333   0.3333333), wk =   0.1481481
        k(   14) = (   0.3333333  -0.3333333  -0.3333333), wk =   0.1481481

     Dense  grid:   126049 G-vectors     FFT dimensions: (  60,  60,  75)

     Smooth grid:    44457 G-vectors     FFT dimensions: (  45,  45,  54)

     Dynamical RAM for                 wfc:       1.36 MB

     Dynamical RAM for     wfc (w. buffer):      10.87 MB

     Dynamical RAM for           str. fact:       1.44 MB

     Dynamical RAM for           local pot:       0.00 MB

     Dynamical RAM for          nlocal pot:       3.65 MB

     Dynamical RAM for                qrad:       3.73 MB

     Dynamical RAM for          rho,v,vnew:       3.01 MB

     Dynamical RAM for               rhoin:       1.00 MB

     Dynamical RAM for            rho*nmix:       7.69 MB

     Dynamical RAM for           G-vectors:       1.89 MB

     Dynamical RAM for          h,s,v(r/c):       0.19 MB

     Dynamical RAM for          <psi|beta>:       0.17 MB

     Dynamical RAM for                 psi:       2.72 MB

     Dynamical RAM for                hpsi:       2.72 MB

     Dynamical RAM for                spsi:       2.72 MB

     Dynamical RAM for      wfcinit/wfcrot:       3.36 MB

     Dynamical RAM for           addusdens:      46.88 MB

     Estimated static dynamical RAM per process >      30.12 MB

     Estimated max dynamical RAM per process >      84.70 MB

     Estimated total dynamical RAM >     646.82 MB

     Check: negative core charge=   -0.000009

     Initial potential from superposition of free atoms

     starting charge     111.9804, renormalised to     112.0000

     negative rho (up, down):  1.983E-01 0.000E+00
     Starting wfcs are   76 randomized atomic wfcs
     Checking if some PAW data can be deallocated... 
       PAW data deallocated on    3 nodes for type:  3

     total cpu time spent up to now is        3.5 secs

     Self-consistent Calculation

     iteration #  1     ecut=    30.00 Ry     beta= 0.70
     Davidson diagonalization with overlap

---- Real-time Memory Report at c_bands before calling an iterative solver
           223 MiB given to the printing process from OS
             0 MiB allocation reported by mallinfo(arena+hblkhd)
         83709 MiB available memory on the node where the printing process lives
------------------
     ethr =  1.00E-02,  avg # of iterations =  2.0

     negative rho (up, down):  1.985E-01 0.000E+00

     total cpu time spent up to now is        5.2 secs

     total energy              =    -997.85975451 Ry
     estimated scf accuracy    <       3.32149529 Ry

     iteration #  2     ecut=    30.00 Ry     beta= 0.70
     Davidson diagonalization with overlap

---- Real-time Memory Report at c_bands before calling an iterative solver
           290 MiB given to the printing process from OS
             0 MiB allocation reported by mallinfo(arena+hblkhd)
         83452 MiB available memory on the node where the printing process lives
------------------
     ethr =  2.97E-03,  avg # of iterations =  3.7

     negative rho (up, down):  1.979E-01 0.000E+00

     total cpu time spent up to now is        6.6 secs

     total energy              =    -998.74316431 Ry
     estimated scf accuracy    <       4.56487592 Ry

     iteration #  3     ecut=    30.00 Ry     beta= 0.70
     Davidson diagonalization with overlap

---- Real-time Memory Report at c_bands before calling an iterative solver
           303 MiB given to the printing process from OS
             0 MiB allocation reported by mallinfo(arena+hblkhd)
         83408 MiB available memory on the node where the printing process lives
------------------
     ethr =  2.97E-03,  avg # of iterations =  2.0

     negative rho (up, down):  1.967E-01 0.000E+00

     total cpu time spent up to now is        7.9 secs

     total energy              =    -999.53400938 Ry
     estimated scf accuracy    <       0.03391260 Ry

     iteration #  4     ecut=    30.00 Ry     beta= 0.70
     Davidson diagonalization with overlap

---- Real-time Memory Report at c_bands before calling an iterative solver
           304 MiB given to the printing process from OS
             0 MiB allocation reported by mallinfo(arena+hblkhd)
         83382 MiB available memory on the node where the printing process lives
------------------
     ethr =  3.03E-05,  avg # of iterations =  6.1

     negative rho (up, down):  1.962E-01 0.000E+00

     total cpu time spent up to now is       10.1 secs

     total energy              =    -999.56998980 Ry
     estimated scf accuracy    <       0.04955476 Ry

     iteration #  5     ecut=    30.00 Ry     beta= 0.70
     Davidson diagonalization with overlap

---- Real-time Memory Report at c_bands before calling an iterative solver
           306 MiB given to the printing process from OS
             0 MiB allocation reported by mallinfo(arena+hblkhd)
         83343 MiB available memory on the node where the printing process lives
------------------
     ethr =  3.03E-05,  avg # of iterations =  2.0

     negative rho (up, down):  1.961E-01 0.000E+00

     total cpu time spent up to now is       11.2 secs

     total energy              =    -999.56908686 Ry
     estimated scf accuracy    <       0.01550496 Ry

     iteration #  6     ecut=    30.00 Ry     beta= 0.70
     Davidson diagonalization with overlap

---- Real-time Memory Report at c_bands before calling an iterative solver
           306 MiB given to the printing process from OS
             0 MiB allocation reported by mallinfo(arena+hblkhd)
         83372 MiB available memory on the node where the printing process lives
------------------
     ethr =  1.38E-05,  avg # of iterations =  3.1

     negative rho (up, down):  1.959E-01 0.000E+00

     total cpu time spent up to now is       12.4 secs

     total energy              =    -999.56920219 Ry
     estimated scf accuracy    <       0.00349224 Ry

     iteration #  7     ecut=    30.00 Ry     beta= 0.70
     Davidson diagonalization with overlap

---- Real-time Memory Report at c_bands before calling an iterative solver
           308 MiB given to the printing process from OS
             0 MiB allocation reported by mallinfo(arena+hblkhd)
         83352 MiB available memory on the node where the printing process lives
------------------
     ethr =  3.12E-06,  avg # of iterations =  8.4

     negative rho (up, down):  1.958E-01 0.000E+00

     total cpu time spent up to now is       14.3 secs

     total energy              =    -999.57021824 Ry
     estimated scf accuracy    <       0.00001568 Ry

     iteration #  8     ecut=    30.00 Ry     beta= 0.70
     Davidson diagonalization with overlap

---- Real-time Memory Report at c_bands before calling an iterative solver
           309 MiB given to the printing process from OS
             0 MiB allocation reported by mallinfo(arena+hblkhd)
         83371 MiB available memory on the node where the printing process lives
------------------
     ethr =  1.40E-08,  avg # of iterations = 14.2

     negative rho (up, down):  1.958E-01 0.000E+00

     total cpu time spent up to now is       17.1 secs

     total energy              =    -999.57027805 Ry
     estimated scf accuracy    <       0.00005887 Ry

     iteration #  9     ecut=    30.00 Ry     beta= 0.70
     Davidson diagonalization with overlap

---- Real-time Memory Report at c_bands before calling an iterative solver
           309 MiB given to the printing process from OS
             0 MiB allocation reported by mallinfo(arena+hblkhd)
         83243 MiB available memory on the node where the printing process lives
------------------
     ethr =  1.40E-08,  avg # of iterations =  2.0

     negative rho (up, down):  1.958E-01 0.000E+00

     total cpu time spent up to now is       18.3 secs

     total energy              =    -999.57027369 Ry
     estimated scf accuracy    <       0.00001859 Ry

     iteration # 10     ecut=    30.00 Ry     beta= 0.70
     Davidson diagonalization with overlap

---- Real-time Memory Report at c_bands before calling an iterative solver
           311 MiB given to the printing process from OS
             0 MiB allocation reported by mallinfo(arena+hblkhd)
         83188 MiB available memory on the node where the printing process lives
------------------
     ethr =  1.40E-08,  avg # of iterations =  2.0

     negative rho (up, down):  1.957E-01 0.000E+00

     total cpu time spent up to now is       19.6 secs

     End of self-consistent calculation

          k = 0.0000 0.0000 0.0000 (  5565 PWs)   bands (ev):

   -17.2707 -17.2475 -14.0381 -14.0374 -13.9953 -13.9566 -13.9450 -13.9432
    -6.0655  -5.9711  -5.6828  -5.6496  -5.6403  -5.6390  -5.6365  -5.6353
    -5.6212  -5.6088  -5.5825  -5.5811  -5.5730  -5.5689  -5.5528  -5.5497
    -5.5339  -5.5270  -5.5224  -5.5163  -5.5042  -5.3921  -1.9081  -1.6688
    -1.6393  -1.6025  -1.5679  -1.4381  -0.0643  -0.0079   0.0597   0.8138
     1.4322   1.6704   1.6916   1.7319   1.7560   1.8725   2.0162   2.0612
     2.2704   2.2971   2.5716   2.8870   2.8999   2.9391   2.9418   3.7061
     6.5070   7.6871   8.1221   8.4303   8.7672   9.0729   9.1232   9.4465

     occupation numbers 
     1.0000   1.0000   1.0000   1.0000   1.0000   1.0000   1.0000   1.0000
     1.0000   1.0000   1.0000   1.0000   1.0000   1.0000   1.0000   1.0000
     1.0000   1.0000   1.0000   1.0000   1.0000   1.0000   1.0000   1.0000
     1.0000   1.0000   1.0000   1.0000   1.0000   1.0000   1.0000   1.0000
     1.0000   1.0000   1.0000   1.0000   1.0000   1.0000   1.0000   1.0000
     1.0000   1.0000   1.0000   1.0000   1.0000   1.0000   1.0000   1.0000
     1.0000   1.0000   1.0000   1.0000   1.0000   1.0000   1.0000   1.0000
     0.0000   0.0000   0.0000   0.0000   0.0000   0.0000   0.0000   0.0000

          k = 0.0000 0.0000 0.2614 (  5584 PWs)   bands (ev):

   -17.2651 -17.2528 -14.0371 -14.0368 -13.9885 -13.9690 -13.9447 -13.9436
    -6.0160  -5.9688  -5.6696  -5.6573  -5.6420  -5.6371  -5.6239  -5.6206
    -5.6176  -5.5968  -5.5725  -5.5713  -5.5682  -5.5624  -5.5588  -5.5544
    -5.5389  -5.5314  -5.5272  -5.5245  -5.5195  -5.4499  -1.8678  -1.7357
    -1.6256  -1.6109  -1.5251  -1.4382  -0.2202  -0.1447   0.2395   0.6050
     1.4393   1.5699   1.6597   1.6713   1.7771   1.8289   1.8548   1.9599
     2.2732   2.6967   2.8627   2.8638   2.9414   2.9432   3.2196   3.5420
     7.1092   7.9258   8.0009   8.2202   8.4529   8.8534   8.9502   9.2665

     occupation numbers 
     1.0000   1.0000   1.0000   1.0000   1.0000   1.0000   1.0000   1.0000
     1.0000   1.0000   1.0000   1.0000   1.0000   1.0000   1.0000   1.0000
     1.0000   1.0000   1.0000   1.0000   1.0000   1.0000   1.0000   1.0000
     1.0000   1.0000   1.0000   1.0000   1.0000   1.0000   1.0000   1.0000
     1.0000   1.0000   1.0000   1.0000   1.0000   1.0000   1.0000   1.0000
     1.0000   1.0000   1.0000   1.0000   1.0000   1.0000   1.0000   1.0000
     1.0000   1.0000   1.0000   1.0000   1.0000   1.0000   1.0000   1.0000
     0.0000   0.0000   0.0000   0.0000   0.0000   0.0000   0.0000   0.0000

          k = 0.0000 0.3729-0.0022 (  5576 PWs)   bands (ev):

   -17.2626 -17.2503 -14.0407 -14.0362 -13.9871 -13.9670 -13.9549 -13.9448
    -6.1509  -5.9349  -5.6691  -5.6569  -5.6419  -5.6376  -5.6338  -5.6264
    -5.6178  -5.6120  -5.5932  -5.5871  -5.5662  -5.5644  -5.5539  -5.5495
    -5.5420  -5.5331  -5.5297  -5.5228  -5.5106  -5.1871  -1.9236  -1.7697
    -1.7002  -1.6326  -1.5813  -1.5249  -0.2105  -0.0073   0.2544   0.4855
     1.3827   1.4040   1.6214   1.7710   1.8586   1.8747   2.1527   2.3720
     2.5758   2.6540   2.6900   2.8446   2.8804   2.8899   2.9546   3.5583
     6.7271   7.6676   7.8874   8.0393   8.6026   8.7495   9.0119   9.1482

     occupation numbers 
     1.0000   1.0000   1.0000   1.0000   1.0000   1.0000   1.0000   1.0000
     1.0000   1.0000   1.0000   1.0000   1.0000   1.0000   1.0000   1.0000
     1.0000   1.0000   1.0000   1.0000   1.0000   1.0000   1.0000   1.0000
     1.0000   1.0000   1.0000   1.0000   1.0000   1.0000   1.0000   1.0000
     1.0000   1.0000   1.0000   1.0000   1.0000   1.0000   1.0000   1.0000
     1.0000   1.0000   1.0000   1.0000   1.0000   1.0000   1.0000   1.0000
     1.0000   1.0000   1.0000   1.0000   1.0000   1.0000   1.0000   1.0000
     0.0000   0.0000   0.0000   0.0000   0.0000   0.0000   0.0000   0.0000

          k = 0.0000 0.3729 0.2592 (  5576 PWs)   bands (ev):

   -17.2600 -17.2524 -14.0392 -14.0361 -13.9893 -13.9730 -13.9507 -13.9458
    -6.0999  -5.9809  -5.6672  -5.6608  -5.6415  -5.6381  -5.6285  -5.6207
    -5.6120  -5.5973  -5.5803  -5.5789  -5.5719  -5.5609  -5.5566  -5.5550
    -5.5447  -5.5369  -5.5355  -5.5197  -5.4420  -5.2602  -1.8852  -1.7977
    -1.6918  -1.6351  -1.5764  -1.5033  -0.3430  -0.2092   0.3053   0.4096
     1.4015   1.4233   1.6417   1.7737   1.8361   1.9067   2.0814   2.1477
     2.5821   2.6547   2.8218   2.8507   2.9928   3.1538   3.2737   3.4624
     7.0221   7.3776   7.9190   8.1249   8.5793   8.8000   8.9379   9.2749

     occupation numbers 
     1.0000   1.0000   1.0000   1.0000   1.0000   1.0000   1.0000   1.0000
     1.0000   1.0000   1.0000   1.0000   1.0000   1.0000   1.0000   1.0000
     1.0000   1.0000   1.0000   1.0000   1.0000   1.0000   1.0000   1.0000
     1.0000   1.0000   1.0000   1.0000   1.0000   1.0000   1.0000   1.0000
     1.0000   1.0000   1.0000   1.0000   1.0000   1.0000   1.0000   1.0000
     1.0000   1.0000   1.0000   1.0000   1.0000   1.0000   1.0000   1.0000
     1.0000   1.0000   1.0000   1.0000   1.0000   1.0000   1.0000   1.0000
     0.0000   0.0000   0.0000   0.0000   0.0000   0.0000   0.0000   0.0000

          k = 0.0000 0.3729-0.2636 (  5584 PWs)   bands (ev):

   -17.2585 -17.2539 -14.0397 -14.0359 -13.9824 -13.9798 -13.9505 -13.9463
    -6.0914  -5.9930  -5.6655  -5.6633  -5.6417  -5.6378  -5.6276  -5.6179
    -5.6148  -5.5993  -5.5809  -5.5780  -5.5719  -5.5593  -5.5572  -5.5537
    -5.5463  -5.5376  -5.5344  -5.5195  -5.4280  -5.2701  -1.8885  -1.7961
    -1.7039  -1.6238  -1.5536  -1.5332  -0.3458  -0.2209   0.3372   0.4080
     1.4002   1.4291   1.6375   1.7749   1.8263   1.8910   2.0483   2.1491
     2.6044   2.6766   2.8253   2.8315   2.9728   3.1682   3.2665   3.4787
     6.9875   7.3934   7.8772   8.1667   8.5382   8.8612   8.9637   9.2857

     occupation numbers 
     1.0000   1.0000   1.0000   1.0000   1.0000   1.0000   1.0000   1.0000
     1.0000   1.0000   1.0000   1.0000   1.0000   1.0000   1.0000   1.0000
     1.0000   1.0000   1.0000   1.0000   1.0000   1.0000   1.0000   1.0000
     1.0000   1.0000   1.0000   1.0000   1.0000   1.0000   1.0000   1.0000
     1.0000   1.0000   1.0000   1.0000   1.0000   1.0000   1.0000   1.0000
     1.0000   1.0000   1.0000   1.0000   1.0000   1.0000   1.0000   1.0000
     1.0000   1.0000   1.0000   1.0000   1.0000   1.0000   1.0000   1.0000
     0.0000   0.0000   0.0000   0.0000   0.0000   0.0000   0.0000   0.0000

          k = 0.3333 0.1671-0.0022 (  5576 PWs)   bands (ev):

   -17.2626 -17.2504 -14.0406 -14.0362 -13.9871 -13.9670 -13.9549 -13.9449
    -6.1509  -5.9349  -5.6691  -5.6568  -5.6419  -5.6376  -5.6338  -5.6264
    -5.6178  -5.6120  -5.5932  -5.5871  -5.5662  -5.5644  -5.5539  -5.5495
    -5.5420  -5.5331  -5.5297  -5.5228  -5.5106  -5.1871  -1.9236  -1.7697
    -1.7002  -1.6327  -1.5813  -1.5248  -0.2105  -0.0073   0.2544   0.4855
     1.3827   1.4040   1.6213   1.7710   1.8587   1.8746   2.1527   2.3719
     2.5758   2.6540   2.6901   2.8447   2.8804   2.8898   2.9546   3.5582
     6.7271   7.6675   7.8874   8.0393   8.6026   8.7496   9.0121   9.1483

     occupation numbers 
     1.0000   1.0000   1.0000   1.0000   1.0000   1.0000   1.0000   1.0000
     1.0000   1.0000   1.0000   1.0000   1.0000   1.0000   1.0000   1.0000
     1.0000   1.0000   1.0000   1.0000   1.0000   1.0000   1.0000   1.0000
     1.0000   1.0000   1.0000   1.0000   1.0000   1.0000   1.0000   1.0000
     1.0000   1.0000   1.0000   1.0000   1.0000   1.0000   1.0000   1.0000
     1.0000   1.0000   1.0000   1.0000   1.0000   1.0000   1.0000   1.0000
     1.0000   1.0000   1.0000   1.0000   1.0000   1.0000   1.0000   1.0000
     0.0000   0.0000   0.0000   0.0000   0.0000   0.0000   0.0000   0.0000

          k = 0.3333 0.1671 0.2592 (  5576 PWs)   bands (ev):

   -17.2600 -17.2524 -14.0391 -14.0362 -13.9892 -13.9731 -13.9507 -13.9458
    -6.0999  -5.9809  -5.6672  -5.6608  -5.6414  -5.6381  -5.6285  -5.6207
    -5.6120  -5.5973  -5.5803  -5.5789  -5.5719  -5.5609  -5.5566  -5.5550
    -5.5448  -5.5368  -5.5355  -5.5197  -5.4420  -5.2602  -1.8851  -1.7978
    -1.6917  -1.6350  -1.5766  -1.5032  -0.3430  -0.2093   0.3052   0.4097
     1.4014   1.4235   1.6417   1.7738   1.8361   1.9066   2.0815   2.1476
     2.5818   2.6549   2.8220   2.8505   2.9928   3.1538   3.2738   3.4623
     7.0221   7.3776   7.9190   8.1249   8.5792   8.8000   8.9380   9.2752

     occupation numbers 
     1.0000   1.0000   1.0000   1.0000   1.0000   1.0000   1.0000   1.0000
     1.0000   1.0000   1.0000   1.0000   1.0000   1.0000   1.0000   1.0000
     1.0000   1.0000   1.0000   1.0000   1.0000   1.0000   1.0000   1.0000
     1.0000   1.0000   1.0000   1.0000   1.0000   1.0000   1.0000   1.0000
     1.0000   1.0000   1.0000   1.0000   1.0000   1.0000   1.0000   1.0000
     1.0000   1.0000   1.0000   1.0000   1.0000   1.0000   1.0000   1.0000
     1.0000   1.0000   1.0000   1.0000   1.0000   1.0000   1.0000   1.0000
     0.0000   0.0000   0.0000   0.0000   0.0000   0.0000   0.0000   0.0000

          k = 0.3333 0.1671-0.2636 (  5584 PWs)   bands (ev):

   -17.2585 -17.2539 -14.0397 -14.0359 -13.9826 -13.9795 -13.9505 -13.9463
    -6.0914  -5.9930  -5.6655  -5.6633  -5.6417  -5.6378  -5.6276  -5.6179
    -5.6148  -5.5994  -5.5808  -5.5780  -5.5719  -5.5593  -5.5572  -5.5537
    -5.5463  -5.5376  -5.5344  -5.5195  -5.4280  -5.2701  -1.8886  -1.7961
    -1.7039  -1.6238  -1.5535  -1.5333  -0.3458  -0.2208   0.3373   0.4079
     1.4002   1.4292   1.6375   1.7748   1.8263   1.8910   2.0482   2.1492
     2.6043   2.6768   2.8256   2.8313   2.9727   3.1682   3.2663   3.4788
     6.9876   7.3934   7.8772   8.1667   8.5382   8.8612   8.9636   9.2852

     occupation numbers 
     1.0000   1.0000   1.0000   1.0000   1.0000   1.0000   1.0000   1.0000
     1.0000   1.0000   1.0000   1.0000   1.0000   1.0000   1.0000   1.0000
     1.0000   1.0000   1.0000   1.0000   1.0000   1.0000   1.0000   1.0000
     1.0000   1.0000   1.0000   1.0000   1.0000   1.0000   1.0000   1.0000
     1.0000   1.0000   1.0000   1.0000   1.0000   1.0000   1.0000   1.0000
     1.0000   1.0000   1.0000   1.0000   1.0000   1.0000   1.0000   1.0000
     1.0000   1.0000   1.0000   1.0000   1.0000   1.0000   1.0000   1.0000
     0.0000   0.0000   0.0000   0.0000   0.0000   0.0000   0.0000   0.0000

          k = 0.3333 0.5399-0.0044 (  5580 PWs)   bands (ev):

   -17.2557 -17.2542 -14.0429 -14.0416 -13.9854 -13.9702 -13.9539 -13.9441
    -6.1092  -6.0761  -5.6696  -5.6517  -5.6486  -5.6454  -5.6312  -5.6224
    -5.6163  -5.6152  -5.6010  -5.5879  -5.5837  -5.5593  -5.5486  -5.5474
    -5.5406  -5.5340  -5.5292  -5.5164  -5.2749  -5.2543  -2.0407  -1.7919
    -1.7685  -1.7115  -1.5210  -1.4752  -0.3338  -0.1254   0.3683   0.5822
     1.3385   1.5688   1.5859   1.6201   1.8060   1.9624   2.2089   2.5107
     2.7109   2.7838   2.7882   2.8563   2.9079   3.0251   3.0564   3.2832
     6.8273   7.2084   7.2868   8.4116   8.5462   8.7451   8.8274   9.2407

     occupation numbers 
     1.0000   1.0000   1.0000   1.0000   1.0000   1.0000   1.0000   1.0000
     1.0000   1.0000   1.0000   1.0000   1.0000   1.0000   1.0000   1.0000
     1.0000   1.0000   1.0000   1.0000   1.0000   1.0000   1.0000   1.0000
     1.0000   1.0000   1.0000   1.0000   1.0000   1.0000   1.0000   1.0000
     1.0000   1.0000   1.0000   1.0000   1.0000   1.0000   1.0000   1.0000
     1.0000   1.0000   1.0000   1.0000   1.0000   1.0000   1.0000   1.0000
     1.0000   1.0000   1.0000   1.0000   1.0000   1.0000   1.0000   1.0000
     0.0000   0.0000   0.0000   0.0000   0.0000   0.0000   0.0000   0.0000

          k = 0.3333 0.5399 0.2570 (  5550 PWs)   bands (ev):

   -17.2549 -17.2537 -14.0428 -14.0399 -13.9817 -13.9804 -13.9499 -13.9454
    -6.0748  -6.0731  -5.6654  -5.6578  -5.6505  -5.6484  -5.6240  -5.6221
    -5.6062  -5.5944  -5.5939  -5.5879  -5.5741  -5.5587  -5.5557  -5.5536
    -5.5448  -5.5351  -5.5338  -5.5287  -5.2767  -5.2657  -1.9904  -1.8572
    -1.7170  -1.6532  -1.5476  -1.5036  -0.4065  -0.2273   0.2213   0.4018
     1.3852   1.5384   1.7148   1.7491   1.8793   1.9950   2.2896   2.4323
     2.4970   2.5154   2.8347   2.8496   3.1306   3.2591   3.3873   3.3882
     6.7229   6.9309   7.5262   8.4237   8.7306   8.9773   9.0410   9.1680

     occupation numbers 
     1.0000   1.0000   1.0000   1.0000   1.0000   1.0000   1.0000   1.0000
     1.0000   1.0000   1.0000   1.0000   1.0000   1.0000   1.0000   1.0000
     1.0000   1.0000   1.0000   1.0000   1.0000   1.0000   1.0000   1.0000
     1.0000   1.0000   1.0000   1.0000   1.0000   1.0000   1.0000   1.0000
     1.0000   1.0000   1.0000   1.0000   1.0000   1.0000   1.0000   1.0000
     1.0000   1.0000   1.0000   1.0000   1.0000   1.0000   1.0000   1.0000
     1.0000   1.0000   1.0000   1.0000   1.0000   1.0000   1.0000   1.0000
     0.0000   0.0000   0.0000   0.0000   0.0000   0.0000   0.0000   0.0000

          k = 0.3333 0.5399-0.2658 (  5555 PWs)   bands (ev):

   -17.2556 -17.2532 -14.0423 -14.0398 -13.9892 -13.9741 -13.9503 -13.9450
    -6.0924  -6.0543  -5.6647  -5.6588  -5.6499  -5.6485  -5.6250  -5.6211
    -5.6051  -5.5974  -5.5942  -5.5871  -5.5744  -5.5574  -5.5566  -5.5541
    -5.5425  -5.5372  -5.5338  -5.5291  -5.2870  -5.2557  -1.9830  -1.8599
    -1.7092  -1.6702  -1.5441  -1.5113  -0.4190  -0.2145   0.2177   0.4179
     1.4045   1.5358   1.7217   1.7237   1.9000   1.9821   2.2647   2.4306
     2.4893   2.5384   2.8247   2.8654   3.1125   3.2349   3.3823   3.4103
     6.7500   6.9050   7.6130   8.3075   8.7757   8.9659   9.0198   9.1653

     occupation numbers 
     1.0000   1.0000   1.0000   1.0000   1.0000   1.0000   1.0000   1.0000
     1.0000   1.0000   1.0000   1.0000   1.0000   1.0000   1.0000   1.0000
     1.0000   1.0000   1.0000   1.0000   1.0000   1.0000   1.0000   1.0000
     1.0000   1.0000   1.0000   1.0000   1.0000   1.0000   1.0000   1.0000
     1.0000   1.0000   1.0000   1.0000   1.0000   1.0000   1.0000   1.0000
     1.0000   1.0000   1.0000   1.0000   1.0000   1.0000   1.0000   1.0000
     1.0000   1.0000   1.0000   1.0000   1.0000   1.0000   1.0000   1.0000
     0.0000   0.0000   0.0000   0.0000   0.0000   0.0000   0.0000   0.0000

          k = 0.3333-0.2058-0.0000 (  5574 PWs)   bands (ev):

   -17.2627 -17.2493 -14.0452 -14.0428 -13.9951 -13.9594 -13.9453 -13.9420
    -6.1254  -6.0160  -5.6667  -5.6652  -5.6500  -5.6453  -5.6300  -5.6223
    -5.6154  -5.6082  -5.5983  -5.5843  -5.5828  -5.5616  -5.5471  -5.5452
    -5.5315  -5.5283  -5.5278  -5.5170  -5.4777  -5.1988  -2.1453  -1.8130
    -1.6123  -1.5796  -1.4984  -1.4638  -0.4606  -0.3605   0.6077   0.8801
     1.4100   1.5509   1.5852   1.7349   1.9175   2.0543   2.1421   2.2276
     2.6555   2.7760   2.8123   2.8292   2.9064   2.9112   3.0512   3.0991
     6.4176   7.7599   7.8084   8.1757   8.3357   8.6134   8.8377   9.3506

     occupation numbers 
     1.0000   1.0000   1.0000   1.0000   1.0000   1.0000   1.0000   1.0000
     1.0000   1.0000   1.0000   1.0000   1.0000   1.0000   1.0000   1.0000
     1.0000   1.0000   1.0000   1.0000   1.0000   1.0000   1.0000   1.0000
     1.0000   1.0000   1.0000   1.0000   1.0000   1.0000   1.0000   1.0000
     1.0000   1.0000   1.0000   1.0000   1.0000   1.0000   1.0000   1.0000
     1.0000   1.0000   1.0000   1.0000   1.0000   1.0000   1.0000   1.0000
     1.0000   1.0000   1.0000   1.0000   1.0000   1.0000   1.0000   1.0000
     0.0000   0.0000   0.0000   0.0000   0.0000   0.0000   0.0000   0.0000

          k = 0.3333-0.2058 0.2614 (  5548 PWs)   bands (ev):

   -17.2586 -17.2519 -14.0445 -14.0436 -13.9876 -13.9698 -13.9445 -13.9426
    -6.0831  -6.0246  -5.6620  -5.6599  -5.6555  -5.6521  -5.6235  -5.6177
    -5.6081  -5.6022  -5.5885  -5.5829  -5.5768  -5.5724  -5.5566  -5.5546
    -5.5462  -5.5320  -5.5288  -5.5283  -5.3935  -5.2617  -2.0613  -1.8885
    -1.5765  -1.5495  -1.5193  -1.4907  -0.4925  -0.4882   0.5584   0.6583
     1.4473   1.5141   1.6582   1.8136   1.9598   2.0207   2.0578   2.1773
     2.6719   2.7305   2.8314   2.8616   2.9260   3.0336   3.2864   3.4108
     6.7549   7.3674   7.9010   8.0985   8.2259   8.6535   8.6849   9.1677

     occupation numbers 
     1.0000   1.0000   1.0000   1.0000   1.0000   1.0000   1.0000   1.0000
     1.0000   1.0000   1.0000   1.0000   1.0000   1.0000   1.0000   1.0000
     1.0000   1.0000   1.0000   1.0000   1.0000   1.0000   1.0000   1.0000
     1.0000   1.0000   1.0000   1.0000   1.0000   1.0000   1.0000   1.0000
     1.0000   1.0000   1.0000   1.0000   1.0000   1.0000   1.0000   1.0000
     1.0000   1.0000   1.0000   1.0000   1.0000   1.0000   1.0000   1.0000
     1.0000   1.0000   1.0000   1.0000   1.0000   1.0000   1.0000   1.0000
     0.0000   0.0000   0.0000   0.0000   0.0000   0.0000   0.0000   0.0000

          k = 0.3333-0.2058-0.2614 (  5548 PWs)   bands (ev):

   -17.2586 -17.2519 -14.0447 -14.0434 -13.9877 -13.9698 -13.9445 -13.9426
    -6.0831  -6.0246  -5.6620  -5.6599  -5.6555  -5.6521  -5.6235  -5.6177
    -5.6080  -5.6022  -5.5885  -5.5828  -5.5768  -5.5724  -5.5566  -5.5546
    -5.5462  -5.5320  -5.5287  -5.5284  -5.3935  -5.2617  -2.0613  -1.8885
    -1.5764  -1.5495  -1.5193  -1.4907  -0.4925  -0.4882   0.5585   0.6582
     1.4473   1.5141   1.6583   1.8135   1.9598   2.0207   2.0576   2.1775
     2.6717   2.7306   2.8313   2.8617   2.9261   3.0335   3.2864   3.4108
     6.7549   7.3674   7.9010   8.0985   8.2259   8.6534   8.6850   9.1677

     occupation numbers 
     1.0000   1.0000   1.0000   1.0000   1.0000   1.0000   1.0000   1.0000
     1.0000   1.0000   1.0000   1.0000   1.0000   1.0000   1.0000   1.0000
     1.0000   1.0000   1.0000   1.0000   1.0000   1.0000   1.0000   1.0000
     1.0000   1.0000   1.0000   1.0000   1.0000   1.0000   1.0000   1.0000
     1.0000   1.0000   1.0000   1.0000   1.0000   1.0000   1.0000   1.0000
     1.0000   1.0000   1.0000   1.0000   1.0000   1.0000   1.0000   1.0000
     1.0000   1.0000   1.0000   1.0000   1.0000   1.0000   1.0000   1.0000
     0.0000   0.0000   0.0000   0.0000   0.0000   0.0000   0.0000   0.0000

     highest occupied, lowest unoccupied level (ev):     3.7061    6.4176

!    total energy              =    -999.57027682 Ry
     estimated scf accuracy    <       0.00000032 Ry

     The total energy is the sum of the following terms:
     one-electron contribution =    -261.66861369 Ry
     hartree contribution      =     202.14148127 Ry
     xc contribution           =    -366.92912255 Ry
     ewald contribution        =    -496.82090999 Ry
     one-center paw contrib.   =     -76.29311186 Ry
      -> PAW hartree energy AE =       0.00000000 Ry
      -> PAW hartree energy PS =       0.00000000 Ry
      -> PAW xc energy AE      =       0.00000000 Ry
      -> PAW xc energy PS      =       0.00000000 Ry
      -> total E_H with PAW    =     202.14148127 Ry
      -> total E_XC with PAW   =    -366.92912255 Ry

     convergence has been achieved in  10 iterations

     Writing all to output data dir calculations_bands/myprefix.save/
 
     init_run     :      9.06s CPU      3.28s WALL (       1 calls)
     electrons    :     60.83s CPU     16.15s WALL (       1 calls)

     Called by init_run:
     wfcinit      :      1.56s CPU      0.41s WALL (       1 calls)
     wfcinit:atom :      0.01s CPU      0.00s WALL (       7 calls)
     wfcinit:wfcr :      1.40s CPU      0.37s WALL (       7 calls)
     potinit      :      1.78s CPU      0.46s WALL (       1 calls)
     hinit0       :      4.28s CPU      1.75s WALL (       1 calls)

     Called by electrons:
     c_bands      :     48.01s CPU     12.61s WALL (      10 calls)
     sum_band     :      8.10s CPU      2.24s WALL (      10 calls)
     v_of_rho     :      0.99s CPU      0.26s WALL (      11 calls)
     v_h          :      0.07s CPU      0.02s WALL (      11 calls)
     v_xc         :      0.92s CPU      0.24s WALL (      11 calls)
     newd         :      2.26s CPU      0.64s WALL (      11 calls)
     PAW_pot      :      1.50s CPU      0.39s WALL (      11 calls)
     mix_rho      :      0.23s CPU      0.06s WALL (      10 calls)

     Called by c_bands:
     init_us_2    :      0.27s CPU      0.07s WALL (     147 calls)
     init_us_2:cp :      0.26s CPU      0.07s WALL (     147 calls)
     cegterg      :     44.61s CPU     11.72s WALL (      70 calls)

     Called by sum_band:
     sum_band:wei :      0.01s CPU      0.00s WALL (      10 calls)
     sum_band:loo :      5.48s CPU      1.44s WALL (      10 calls)
     sum_band:buf :      0.11s CPU      0.03s WALL (      70 calls)
     sum_band:ini :      0.12s CPU      0.03s WALL (      70 calls)
     sum_band:cal :      0.28s CPU      0.08s WALL (      70 calls)
     sum_band:bec :      0.04s CPU      0.01s WALL (      70 calls)
     addusdens    :      1.86s CPU      0.60s WALL (      10 calls)
     addusd:skk   :      0.02s CPU      0.01s WALL (      30 calls)
     addusd:dgemm :      0.35s CPU      0.21s WALL (      30 calls)
     addusd:qvan2 :      1.20s CPU      0.30s WALL (      30 calls)

     Called by *egterg:
     cdiaghg      :      6.84s CPU      1.80s WALL (     394 calls)
     cegterg:over :      1.65s CPU      0.44s WALL (     324 calls)
     cegterg:upda :      1.13s CPU      0.30s WALL (     324 calls)
     cegterg:last :      1.89s CPU      0.49s WALL (     182 calls)
     cdiaghg:chol :      0.53s CPU      0.14s WALL (     394 calls)
     cdiaghg:inve :      0.09s CPU      0.03s WALL (     394 calls)
     cdiaghg:para :      1.10s CPU      0.29s WALL (     788 calls)
     h_psi        :     32.74s CPU      8.59s WALL (     401 calls)
     s_psi        :      0.73s CPU      0.19s WALL (     401 calls)
     g_psi        :      0.06s CPU      0.02s WALL (     324 calls)

     Called by h_psi:
     h_psi:calbec :      1.11s CPU      0.29s WALL (     401 calls)
     vloc_psi     :     30.67s CPU      8.04s WALL (     401 calls)
     add_vuspsi   :      0.87s CPU      0.23s WALL (     401 calls)

     General routines
     calbec       :      1.38s CPU      0.36s WALL (     471 calls)
     fft          :      2.18s CPU      0.64s WALL (     141 calls)
     ffts         :      0.59s CPU      0.16s WALL (      21 calls)
     fftw         :     31.68s CPU      8.33s WALL (   32592 calls)
     interpolate  :      0.63s CPU      0.17s WALL (      11 calls)
 
     Parallel routines

     PAW routines
     PAW_pot      :      1.50s CPU      0.39s WALL (      11 calls)
 
     PWSCF        :   1m11.68s CPU     20.52s WALL

 
   This run was terminated on:   6:26:10   7Jun2023            

=------------------------------------------------------------------------------=
   JOB DONE.
=------------------------------------------------------------------------------=
