
     Program PWSCF v.7.0 starts on  4Jun2023 at 22:10:31 

     This program is part of the open-source Quantum ESPRESSO suite
     for quantum simulation of materials; please cite
         "P. Giannozzi et al., J. Phys.:Condens. Matter 21 395502 (2009);
         "P. Giannozzi et al., J. Phys.:Condens. Matter 29 465901 (2017);
         "P. Giannozzi et al., J. Chem. Phys. 152 154105 (2020);
          URL http://www.quantum-espresso.org", 
     in publications or presentations arising from this work. More details at
     http://www.quantum-espresso.org/quote

     Parallel version (MPI & OpenMP), running on      32 processor cores
     Number of MPI processes:                 8
     Threads/MPI process:                     4

     MPI processes distributed on     1 nodes
     K-points division:     npool     =       2
     R & G space division:  proc/nbgrp/npool/nimage =       4
     126164 MiB available memory on the printing compute node when the environment starts
 
     Reading input from espresso_10164.pwi
Warning: card &CELL ignored
Warning: card / ignored

     Current dimensions of program PWSCF are:
     Max number of different atomic species (ntypx) = 10
     Max number of k-points (npk) =  40000
     Max angular momentum in pseudopotentials (lmaxx) =  4
     Message from routine setup:
     using ibrav=0 with symmetry is DISCOURAGED, use correct ibrav instead

     Subspace diagonalization in iterative solution of the eigenvalue problem:
     one sub-group per band group will be used
     scalapack distributed-memory algorithm (size of sub-group:  2*  2 procs)

 
     Parallelization info
     --------------------
     sticks:   dense  smooth     PW     G-vecs:    dense   smooth      PW
     Min         246     125     36                 7288     2583     415
     Max         247     127     38                 7289     2584     416
     Sum         987     503    147                29155    10333    1663
 
     Using Slab Decomposition
 


     bravais-lattice index     =            0
     lattice parameter (alat)  =       5.8925  a.u.
     unit-cell volume          =     463.5517 (a.u.)^3
     number of atoms/cell      =            6
     number of atomic types    =            2
     number of electrons       =        64.00
     number of Kohn-Sham states=           64
     kinetic-energy cutoff     =      30.0000  Ry
     charge density cutoff     =     240.0000  Ry
     scf convergence threshold =      1.0E-06
     mixing beta               =       0.7000
     number of iterations used =            8  plain     mixing
     Exchange-correlation=  SLA  PW   PBX  PBC
                           (   1   4   3   4   0   0   0)

     celldm(1)=   5.892455  celldm(2)=   0.000000  celldm(3)=   0.000000
     celldm(4)=   0.000000  celldm(5)=   0.000000  celldm(6)=   0.000000

     crystal axes: (cart. coord. in units of alat)
               a(1) = (   1.000000   0.000000   0.000000 )  
               a(2) = (   0.000000   1.489368   0.000000 )  
               a(3) = (   0.000000   0.000000   1.521274 )  

     reciprocal axes: (cart. coord. in units 2 pi/alat)
               b(1) = (  1.000000  0.000000  0.000000 )  
               b(2) = (  0.000000  0.671426  0.000000 )  
               b(3) = (  0.000000  0.000000  0.657344 )  


     PseudoPot. # 1 for Ni read from file:
     /home/pragov/projects/rrg-bengioy-ad/pragov/crystal_structure_design/SSSP/ni_pbe_v1.4.uspp.F.UPF
     MD5 check sum: 1ee80287db30b12d2bc1f57a5b5d6409
     Pseudo is Ultrasoft + core correction, Zval = 18.0
     Generated by new atomic code, or converted to UPF format
     Using radial grid of  865 points,  6 beta functions with: 
                l(1) =   0
                l(2) =   0
                l(3) =   1
                l(4) =   1
                l(5) =   2
                l(6) =   2
     Q(r) pseudized with 10 coefficients,  rinner =    0.980   0.980   0.980
                                                       0.980   0.980

     PseudoPot. # 2 for F  read from file:
     /home/pragov/projects/rrg-bengioy-ad/pragov/crystal_structure_design/SSSP/f_pbe_v1.4.uspp.F.UPF
     MD5 check sum: 4c38b6a325caf53ec0e86aed9459de46
     Pseudo is Ultrasoft, Zval =  7.0
     Generated by new atomic code, or converted to UPF format
     Using radial grid of  799 points,  4 beta functions with: 
                l(1) =   0
                l(2) =   0
                l(3) =   1
                l(4) =   1
     Q(r) pseudized with  8 coefficients,  rinner =    0.950   0.950   0.950


     atomic species   valence    mass     pseudopotential
        Ni            18.00    58.69340     Ni( 1.00)
        F              7.00    18.99840     F ( 1.00)

      8 Sym. Ops., with inversion, found ( 4 have fractional translation)


                                    s                        frac. trans.

      isym =  1     identity                                     

 cryst.   s( 1) = (     1          0          0      )
                  (     0          1          0      )
                  (     0          0          1      )

 cart.    s( 1) = (  1.0000000  0.0000000  0.0000000 )
                  (  0.0000000  1.0000000  0.0000000 )
                  (  0.0000000  0.0000000  1.0000000 )


      isym =  2     180 deg rotation - cart. axis [0,0,1]        

 cryst.   s( 2) = (    -1          0          0      )    f =(  0.5000000 )
                  (     0         -1          0      )       (  0.5000000 )
                  (     0          0          1      )       ( -0.5000000 )

 cart.    s( 2) = ( -1.0000000  0.0000000  0.0000000 )    f =(  0.5000000 )
                  (  0.0000000 -1.0000000  0.0000000 )       (  0.7446838 )
                  (  0.0000000  0.0000000  1.0000000 )       ( -0.7606370 )


      isym =  3     180 deg rotation - cart. axis [0,1,0]        

 cryst.   s( 3) = (    -1          0          0      )    f =(  0.5000000 )
                  (     0          1          0      )       ( -0.5000000 )
                  (     0          0         -1      )       (  0.5000000 )

 cart.    s( 3) = ( -1.0000000  0.0000000  0.0000000 )    f =(  0.5000000 )
                  (  0.0000000  1.0000000  0.0000000 )       ( -0.7446838 )
                  (  0.0000000  0.0000000 -1.0000000 )       (  0.7606370 )


      isym =  4     180 deg rotation - cart. axis [1,0,0]        

 cryst.   s( 4) = (     1          0          0      )
                  (     0         -1          0      )
                  (     0          0         -1      )

 cart.    s( 4) = (  1.0000000  0.0000000  0.0000000 )
                  (  0.0000000 -1.0000000  0.0000000 )
                  (  0.0000000  0.0000000 -1.0000000 )


      isym =  5     inversion                                    

 cryst.   s( 5) = (    -1          0          0      )
                  (     0         -1          0      )
                  (     0          0         -1      )

 cart.    s( 5) = ( -1.0000000  0.0000000  0.0000000 )
                  (  0.0000000 -1.0000000  0.0000000 )
                  (  0.0000000  0.0000000 -1.0000000 )


      isym =  6     inv. 180 deg rotation - cart. axis [0,0,1]   

 cryst.   s( 6) = (     1          0          0      )    f =( -0.5000000 )
                  (     0          1          0      )       ( -0.5000000 )
                  (     0          0         -1      )       (  0.5000000 )

 cart.    s( 6) = (  1.0000000  0.0000000  0.0000000 )    f =( -0.5000000 )
                  (  0.0000000  1.0000000  0.0000000 )       ( -0.7446838 )
                  (  0.0000000  0.0000000 -1.0000000 )       (  0.7606370 )


      isym =  7     inv. 180 deg rotation - cart. axis [0,1,0]   

 cryst.   s( 7) = (     1          0          0      )    f =( -0.5000000 )
                  (     0         -1          0      )       (  0.5000000 )
                  (     0          0          1      )       ( -0.5000000 )

 cart.    s( 7) = (  1.0000000  0.0000000  0.0000000 )    f =( -0.5000000 )
                  (  0.0000000 -1.0000000  0.0000000 )       (  0.7446838 )
                  (  0.0000000  0.0000000  1.0000000 )       ( -0.7606370 )


      isym =  8     inv. 180 deg rotation - cart. axis [1,0,0]   

 cryst.   s( 8) = (    -1          0          0      )
                  (     0          1          0      )
                  (     0          0          1      )

 cart.    s( 8) = ( -1.0000000  0.0000000  0.0000000 )
                  (  0.0000000  1.0000000  0.0000000 )
                  (  0.0000000  0.0000000  1.0000000 )


   Cartesian axes

     site n.     atom                  positions (alat units)
         1           Ni  tau(   1) = (   0.0000000   0.0000000   0.0000000  )
         2           Ni  tau(   2) = (   0.5000000   0.7446838   0.7606370  )
         3           F   tau(   3) = (   0.0000000   0.4289483   0.4866464  )
         4           F   tau(   4) = (   0.5000000   0.3157355   1.2472834  )
         5           F   tau(   5) = (   0.0000000   1.0604193   1.0346276  )
         6           F   tau(   6) = (   0.5000000   1.1736321   0.2739906  )

   Crystallographic axes

     site n.     atom                  positions (cryst. coord.)
         1           Ni  tau(   1) = (  0.0000000  0.0000000  0.0000000  )
         2           Ni  tau(   2) = (  0.5000000  0.5000000  0.5000000  )
         3           F   tau(   3) = (  0.0000000  0.2880070  0.3198940  )
         4           F   tau(   4) = (  0.5000000  0.2119930  0.8198940  )
         5           F   tau(   5) = (  0.0000000  0.7119930  0.6801060  )
         6           F   tau(   6) = (  0.5000000  0.7880070  0.1801060  )

     number of k points=     8
                       cart. coord. in units 2pi/alat
        k(    1) = (   0.0000000   0.0000000   0.0000000), wk =   0.0740741
        k(    2) = (   0.0000000   0.0000000   0.2191146), wk =   0.1481481
        k(    3) = (   0.0000000   0.2238086   0.0000000), wk =   0.1481481
        k(    4) = (   0.0000000   0.2238086   0.2191146), wk =   0.2962963
        k(    5) = (   0.3333333   0.0000000   0.0000000), wk =   0.1481481
        k(    6) = (   0.3333333   0.0000000   0.2191146), wk =   0.2962963
        k(    7) = (   0.3333333   0.2238086   0.0000000), wk =   0.2962963
        k(    8) = (   0.3333333   0.2238086   0.2191146), wk =   0.5925926

                       cryst. coord.
        k(    1) = (   0.0000000   0.0000000   0.0000000), wk =   0.0740741
        k(    2) = (   0.0000000   0.0000000   0.3333333), wk =   0.1481481
        k(    3) = (   0.0000000   0.3333333   0.0000000), wk =   0.1481481
        k(    4) = (   0.0000000   0.3333333   0.3333333), wk =   0.2962963
        k(    5) = (   0.3333333   0.0000000   0.0000000), wk =   0.1481481
        k(    6) = (   0.3333333   0.0000000   0.3333333), wk =   0.2962963
        k(    7) = (   0.3333333   0.3333333   0.0000000), wk =   0.2962963
        k(    8) = (   0.3333333   0.3333333   0.3333333), wk =   0.5925926

     Dense  grid:    29155 G-vectors     FFT dimensions: (  30,  48,  48)

     Smooth grid:    10333 G-vectors     FFT dimensions: (  24,  32,  32)

     Dynamical RAM for                 wfc:       0.31 MB

     Dynamical RAM for     wfc (w. buffer):       1.57 MB

     Dynamical RAM for           str. fact:       0.22 MB

     Dynamical RAM for           local pot:       0.00 MB

     Dynamical RAM for          nlocal pot:       0.33 MB

     Dynamical RAM for                qrad:       2.49 MB

     Dynamical RAM for          rho,v,vnew:       0.73 MB

     Dynamical RAM for               rhoin:       0.24 MB

     Dynamical RAM for            rho*nmix:       1.78 MB

     Dynamical RAM for           G-vectors:       0.44 MB

     Dynamical RAM for          h,s,v(r/c):       0.19 MB

     Dynamical RAM for          <psi|beta>:       0.07 MB

     Dynamical RAM for                 psi:       0.63 MB

     Dynamical RAM for                hpsi:       0.63 MB

     Dynamical RAM for                spsi:       0.63 MB

     Dynamical RAM for      wfcinit/wfcrot:       0.72 MB

     Dynamical RAM for           addusdens:      10.62 MB

     Estimated static dynamical RAM per process >       7.01 MB

     Estimated max dynamical RAM per process >      19.41 MB

     Estimated total dynamical RAM >     148.18 MB

     Check: negative core charge=   -0.000007

     Initial potential from superposition of free atoms

     starting charge      60.0000, renormalised to      64.0000
     Starting wfcs are   42 randomized atomic wfcs +   22 random wfcs

     total cpu time spent up to now is        1.2 secs

     Self-consistent Calculation

     iteration #  1     ecut=    30.00 Ry     beta= 0.70
     Davidson diagonalization with overlap

---- Real-time Memory Report at c_bands before calling an iterative solver
           148 MiB given to the printing process from OS
             0 MiB allocation reported by mallinfo(arena+hblkhd)
        125793 MiB available memory on the node where the printing process lives
------------------
     ethr =  1.00E-02,  avg # of iterations =  6.0

     total cpu time spent up to now is        2.8 secs

     total energy              =    -845.52920633 Ry
     estimated scf accuracy    <      48.99906747 Ry

     iteration #  2     ecut=    30.00 Ry     beta= 0.70
     Davidson diagonalization with overlap

---- Real-time Memory Report at c_bands before calling an iterative solver
           163 MiB given to the printing process from OS
             0 MiB allocation reported by mallinfo(arena+hblkhd)
        125736 MiB available memory on the node where the printing process lives
------------------
     ethr =  1.00E-02,  avg # of iterations =  3.0

     total cpu time spent up to now is        3.9 secs

     total energy              =    -871.36390475 Ry
     estimated scf accuracy    <     125.49595323 Ry

     iteration #  3     ecut=    30.00 Ry     beta= 0.70
     Davidson diagonalization with overlap

---- Real-time Memory Report at c_bands before calling an iterative solver
           165 MiB given to the printing process from OS
             0 MiB allocation reported by mallinfo(arena+hblkhd)
        125720 MiB available memory on the node where the printing process lives
------------------
     ethr =  1.00E-02,  avg # of iterations =  2.2

     total cpu time spent up to now is        5.0 secs

     total energy              =    -879.88649249 Ry
     estimated scf accuracy    <      18.63506928 Ry

     iteration #  4     ecut=    30.00 Ry     beta= 0.70
     Davidson diagonalization with overlap

---- Real-time Memory Report at c_bands before calling an iterative solver
           166 MiB given to the printing process from OS
             0 MiB allocation reported by mallinfo(arena+hblkhd)
        125712 MiB available memory on the node where the printing process lives
------------------
     ethr =  1.00E-02,  avg # of iterations =  1.4

     total cpu time spent up to now is        6.1 secs

     total energy              =    -880.83941726 Ry
     estimated scf accuracy    <       2.41288428 Ry

     iteration #  5     ecut=    30.00 Ry     beta= 0.70
     Davidson diagonalization with overlap

---- Real-time Memory Report at c_bands before calling an iterative solver
           166 MiB given to the printing process from OS
             0 MiB allocation reported by mallinfo(arena+hblkhd)
        125717 MiB available memory on the node where the printing process lives
------------------
     ethr =  3.77E-03,  avg # of iterations =  1.6

     total cpu time spent up to now is        7.0 secs

     total energy              =    -880.88194788 Ry
     estimated scf accuracy    <       1.05114944 Ry

     iteration #  6     ecut=    30.00 Ry     beta= 0.70
     Davidson diagonalization with overlap

---- Real-time Memory Report at c_bands before calling an iterative solver
           166 MiB given to the printing process from OS
             0 MiB allocation reported by mallinfo(arena+hblkhd)
        125726 MiB available memory on the node where the printing process lives
------------------
     ethr =  1.64E-03,  avg # of iterations =  1.0

     total cpu time spent up to now is        7.9 secs

     total energy              =    -880.80982774 Ry
     estimated scf accuracy    <       1.07347822 Ry

     iteration #  7     ecut=    30.00 Ry     beta= 0.70
     Davidson diagonalization with overlap

---- Real-time Memory Report at c_bands before calling an iterative solver
           166 MiB given to the printing process from OS
             0 MiB allocation reported by mallinfo(arena+hblkhd)
        125734 MiB available memory on the node where the printing process lives
------------------
     ethr =  1.64E-03,  avg # of iterations =  1.1

     total cpu time spent up to now is       10.5 secs

     total energy              =    -880.58449937 Ry
     estimated scf accuracy    <       0.74136656 Ry

     iteration #  8     ecut=    30.00 Ry     beta= 0.70
     Davidson diagonalization with overlap

---- Real-time Memory Report at c_bands before calling an iterative solver
           166 MiB given to the printing process from OS
             0 MiB allocation reported by mallinfo(arena+hblkhd)
        125758 MiB available memory on the node where the printing process lives
------------------
     ethr =  1.16E-03,  avg # of iterations =  1.1

     total cpu time spent up to now is       11.7 secs

     total energy              =    -880.65499823 Ry
     estimated scf accuracy    <       0.02679454 Ry

     iteration #  9     ecut=    30.00 Ry     beta= 0.70
     Davidson diagonalization with overlap

---- Real-time Memory Report at c_bands before calling an iterative solver
           166 MiB given to the printing process from OS
             0 MiB allocation reported by mallinfo(arena+hblkhd)
        125748 MiB available memory on the node where the printing process lives
------------------
     ethr =  4.19E-05,  avg # of iterations =  4.5

     total cpu time spent up to now is       16.4 secs

     total energy              =    -880.65108049 Ry
     estimated scf accuracy    <       0.01441871 Ry

     iteration # 10     ecut=    30.00 Ry     beta= 0.70
     Davidson diagonalization with overlap

---- Real-time Memory Report at c_bands before calling an iterative solver
           166 MiB given to the printing process from OS
             0 MiB allocation reported by mallinfo(arena+hblkhd)
        125735 MiB available memory on the node where the printing process lives
------------------
     ethr =  2.25E-05,  avg # of iterations =  2.6

     total cpu time spent up to now is       20.8 secs

     total energy              =    -880.65290757 Ry
     estimated scf accuracy    <       0.00102760 Ry

     iteration # 11     ecut=    30.00 Ry     beta= 0.70
     Davidson diagonalization with overlap

---- Real-time Memory Report at c_bands before calling an iterative solver
           166 MiB given to the printing process from OS
             0 MiB allocation reported by mallinfo(arena+hblkhd)
        125735 MiB available memory on the node where the printing process lives
------------------
     ethr =  1.61E-06,  avg # of iterations =  4.0

     total cpu time spent up to now is       27.9 secs

     total energy              =    -880.65301317 Ry
     estimated scf accuracy    <       0.00013558 Ry

     iteration # 12     ecut=    30.00 Ry     beta= 0.70
     Davidson diagonalization with overlap

---- Real-time Memory Report at c_bands before calling an iterative solver
           167 MiB given to the printing process from OS
             0 MiB allocation reported by mallinfo(arena+hblkhd)
        125712 MiB available memory on the node where the printing process lives
------------------
     ethr =  2.12E-07,  avg # of iterations =  1.0

     total cpu time spent up to now is       31.1 secs

     total energy              =    -880.65300755 Ry
     estimated scf accuracy    <       0.00004211 Ry

     iteration # 13     ecut=    30.00 Ry     beta= 0.70
     Davidson diagonalization with overlap

---- Real-time Memory Report at c_bands before calling an iterative solver
           167 MiB given to the printing process from OS
             0 MiB allocation reported by mallinfo(arena+hblkhd)
        125822 MiB available memory on the node where the printing process lives
------------------
     ethr =  6.58E-08,  avg # of iterations =  1.0

     total cpu time spent up to now is       34.3 secs

     total energy              =    -880.65300276 Ry
     estimated scf accuracy    <       0.00001312 Ry

     iteration # 14     ecut=    30.00 Ry     beta= 0.70
     Davidson diagonalization with overlap

---- Real-time Memory Report at c_bands before calling an iterative solver
           167 MiB given to the printing process from OS
             0 MiB allocation reported by mallinfo(arena+hblkhd)
        125789 MiB available memory on the node where the printing process lives
------------------
     ethr =  2.05E-08,  avg # of iterations =  2.0

     total cpu time spent up to now is       44.8 secs

     total energy              =    -880.65300472 Ry
     estimated scf accuracy    <       0.00000318 Ry

     iteration # 15     ecut=    30.00 Ry     beta= 0.70
     Davidson diagonalization with overlap

---- Real-time Memory Report at c_bands before calling an iterative solver
           167 MiB given to the printing process from OS
             0 MiB allocation reported by mallinfo(arena+hblkhd)
        125781 MiB available memory on the node where the printing process lives
------------------
     ethr =  4.97E-09,  avg # of iterations =  1.0

     total cpu time spent up to now is       48.6 secs

     End of self-consistent calculation

          k = 0.0000 0.0000 0.0000 (  1267 PWs)   bands (ev):

   -96.4775 -96.4759 -56.8932 -56.8911 -56.8321 -56.8316 -56.7068 -56.7065
   -17.3079 -16.5831 -16.5747 -16.5683  -0.9654   0.2965   0.8413   1.2071
     1.2129   1.2297   1.4899   1.5173   2.5277   3.0167   3.0273   3.3096
     5.6243   5.6288   5.6784   5.6879   5.7057   6.1355   6.4411   7.3043
     7.3098   7.6752   9.6852  15.4022  15.5211  16.2068  18.6507  19.7563
    20.5611  20.9911  21.2613  22.3170  24.3825  26.1618  28.8510  28.9521
    29.0686  30.0216  30.3530  30.7479  31.1801  31.5135  31.8376  32.0064
    32.1075  33.1115  34.6705  34.7026  35.6051  36.2570  37.2050  39.8154

     occupation numbers 
     1.0000   1.0000   1.0000   1.0000   1.0000   1.0000   1.0000   1.0000
     1.0000   1.0000   1.0000   1.0000   1.0000   1.0000   1.0000   1.0000
     1.0000   1.0000   1.0000   1.0000   1.0000   1.0000   1.0000   1.0000
     1.0000   1.0000   1.0000   1.0000   1.0000   1.0000   1.0000   1.0000
     0.0000   0.0000   0.0000   0.0000   0.0000   0.0000   0.0000   0.0000
     0.0000   0.0000   0.0000   0.0000   0.0000   0.0000   0.0000   0.0000
     0.0000   0.0000   0.0000   0.0000   0.0000   0.0000   0.0000   0.0000
     0.0000   0.0000   0.0000   0.0000   0.0000   0.0000   0.0000   0.0000

          k = 0.0000 0.0000 0.2191 (  1296 PWs)   bands (ev):

   -96.4820 -96.4788 -56.9040 -56.8970 -56.8473 -56.8408 -56.7189 -56.7134
   -17.1578 -16.8259 -16.5550 -16.5124  -0.5207   0.1812   1.0447   1.1762
     1.2073   1.2679   1.3996   1.7301   2.2270   2.2346   2.8650   3.0587
     5.6904   5.7421   5.7628   5.7689   5.9047   6.2245   6.4538   7.1826
     7.1838   7.2978  10.9398  13.4437  16.2608  17.1516  18.7346  19.1202
    19.9926  22.2777  22.5910  22.9174  23.9908  25.5282  26.3148  26.4993
    27.8959  29.3954  30.1091  30.6160  31.0392  31.1993  31.9531  32.5733
    33.9030  34.3743  35.8807  36.4074  36.7501  37.6009  37.8181  38.9007

     occupation numbers 
     1.0000   1.0000   1.0000   1.0000   1.0000   1.0000   1.0000   1.0000
     1.0000   1.0000   1.0000   1.0000   1.0000   1.0000   1.0000   1.0000
     1.0000   1.0000   1.0000   1.0000   1.0000   1.0000   1.0000   1.0000
     1.0000   1.0000   1.0000   1.0000   1.0000   1.0000   1.0000   1.0000
     0.0000   0.0000   0.0000   0.0000   0.0000   0.0000   0.0000   0.0000
     0.0000   0.0000   0.0000   0.0000   0.0000   0.0000   0.0000   0.0000
     0.0000   0.0000   0.0000   0.0000   0.0000   0.0000   0.0000   0.0000
     0.0000   0.0000   0.0000   0.0000   0.0000   0.0000   0.0000   0.0000

          k = 0.0000 0.2238 0.0000 (  1301 PWs)   bands (ev):

   -96.4819 -96.4807 -56.9082 -56.8981 -56.8481 -56.8424 -56.7242 -56.7137
   -17.1531 -16.8178 -16.5516 -16.5288  -0.5639   0.0980   1.0712   1.1672
     1.1822   1.1947   1.5178   1.7629   2.1717   2.2505   2.9143   3.1600
     5.6968   5.7211   5.7543   5.7707   5.9110   6.2351   6.4818   7.1621
     7.1645   7.2989  10.9618  13.4696  15.9434  16.5461  18.8098  19.2747
    20.2746  22.4512  22.6412  22.8589  23.9272  25.4888  26.4258  27.4666
    27.8134  29.1266  30.1523  30.6813  30.8643  31.2091  31.4005  33.2495
    34.5751  34.9310  35.4633  35.7491  36.0186  37.3059  37.9191  38.8876

     occupation numbers 
     1.0000   1.0000   1.0000   1.0000   1.0000   1.0000   1.0000   1.0000
     1.0000   1.0000   1.0000   1.0000   1.0000   1.0000   1.0000   1.0000
     1.0000   1.0000   1.0000   1.0000   1.0000   1.0000   1.0000   1.0000
     1.0000   1.0000   1.0000   1.0000   1.0000   1.0000   1.0000   1.0000
     0.0000   0.0000   0.0000   0.0000   0.0000   0.0000   0.0000   0.0000
     0.0000   0.0000   0.0000   0.0000   0.0000   0.0000   0.0000   0.0000
     0.0000   0.0000   0.0000   0.0000   0.0000   0.0000   0.0000   0.0000
     0.0000   0.0000   0.0000   0.0000   0.0000   0.0000   0.0000   0.0000

          k = 0.0000 0.2238 0.2191 (  1275 PWs)   bands (ev):

   -96.4796 -96.4757 -56.8944 -56.8901 -56.8439 -56.8332 -56.7094 -56.7049
   -17.0421 -16.8468 -16.6129 -16.5566  -0.4646  -0.1312   1.1667   1.1835
     1.2133   1.3379   1.8882   1.8887   2.1376   2.2563   2.6215   2.8843
     5.5837   5.6705   5.7326   5.7778   6.0818   6.1944   6.5553   6.9881
     7.1964   7.2962  12.0107  13.7990  14.7488  15.9817  19.6097  20.7640
    20.8654  21.1555  23.1993  23.7513  23.8833  24.8349  25.9450  26.5775
    26.6605  27.1080  28.2923  31.0583  31.5640  31.7207  32.9329  33.7885
    34.7120  35.0807  35.5435  36.9543  37.0857  37.5253  37.6230  38.9533

     occupation numbers 
     1.0000   1.0000   1.0000   1.0000   1.0000   1.0000   1.0000   1.0000
     1.0000   1.0000   1.0000   1.0000   1.0000   1.0000   1.0000   1.0000
     1.0000   1.0000   1.0000   1.0000   1.0000   1.0000   1.0000   1.0000
     1.0000   1.0000   1.0000   1.0000   1.0000   1.0000   1.0000   1.0000
     0.0000   0.0000   0.0000   0.0000   0.0000   0.0000   0.0000   0.0000
     0.0000   0.0000   0.0000   0.0000   0.0000   0.0000   0.0000   0.0000
     0.0000   0.0000   0.0000   0.0000   0.0000   0.0000   0.0000   0.0000
     0.0000   0.0000   0.0000   0.0000   0.0000   0.0000   0.0000   0.0000

          k = 0.3333 0.0000 0.0000 (  1290 PWs)   bands (ev):

   -96.4815 -96.4791 -56.9013 -56.8922 -56.8674 -56.8496 -56.7160 -56.7075
   -17.0120 -16.6363 -16.5587 -16.5507  -0.3021   0.4028   0.5980   0.8560
     0.9880   1.0122   1.5359   1.6557   1.6938   2.4853   2.5233   2.8387
     5.6969   5.7066   5.8972   5.9152   5.9352   6.1465   6.5681   6.8114
     6.8406   7.0542  12.3865  16.1890  17.6970  17.7687  18.2836  19.0391
    19.2109  20.8803  21.1178  21.1815  21.9925  24.4531  24.7221  25.1255
    27.7506  28.8903  29.0636  31.4604  32.1348  34.7235  34.7418  34.8444
    36.1959  36.2648  37.1251  37.2496  38.6684  38.8150  38.9118  39.6795

     occupation numbers 
     1.0000   1.0000   1.0000   1.0000   1.0000   1.0000   1.0000   1.0000
     1.0000   1.0000   1.0000   1.0000   1.0000   1.0000   1.0000   1.0000
     1.0000   1.0000   1.0000   1.0000   1.0000   1.0000   1.0000   1.0000
     1.0000   1.0000   1.0000   1.0000   1.0000   1.0000   1.0000   1.0000
     0.0000   0.0000   0.0000   0.0000   0.0000   0.0000   0.0000   0.0000
     0.0000   0.0000   0.0000   0.0000   0.0000   0.0000   0.0000   0.0000
     0.0000   0.0000   0.0000   0.0000   0.0000   0.0000   0.0000   0.0000
     0.0000   0.0000   0.0000   0.0000   0.0000   0.0000   0.0000   0.0000

          k = 0.3333 0.0000 0.2191 (  1289 PWs)   bands (ev):

   -96.4810 -96.4783 -56.8978 -56.8961 -56.8571 -56.8488 -56.7124 -56.7119
   -16.9166 -16.7249 -16.5598 -16.5596  -0.0755   0.4192   0.4484   0.4877
     0.9902   1.0470   1.4415   1.5464   2.0296   2.4689   2.6241   2.8673
     5.6062   5.7411   5.8426   5.9211   6.0568   6.1413   6.4365   6.4615
     7.1393   7.3928  13.1464  15.1464  16.9698  17.9096  18.6078  18.9617
    20.0107  20.3121  20.8510  21.1361  22.4100  23.2060  24.7905  26.8340
    28.4925  28.5495  30.5851  31.7657  32.5320  32.6184  33.1694  33.4783
    35.3131  35.8472  36.7441  36.9942  37.4287  38.5166  39.2537  39.8028

     occupation numbers 
     1.0000   1.0000   1.0000   1.0000   1.0000   1.0000   1.0000   1.0000
     1.0000   1.0000   1.0000   1.0000   1.0000   1.0000   1.0000   1.0000
     1.0000   1.0000   1.0000   1.0000   1.0000   1.0000   1.0000   1.0000
     1.0000   1.0000   1.0000   1.0000   1.0000   1.0000   1.0000   1.0000
     0.0000   0.0000   0.0000   0.0000   0.0000   0.0000   0.0000   0.0000
     0.0000   0.0000   0.0000   0.0000   0.0000   0.0000   0.0000   0.0000
     0.0000   0.0000   0.0000   0.0000   0.0000   0.0000   0.0000   0.0000
     0.0000   0.0000   0.0000   0.0000   0.0000   0.0000   0.0000   0.0000

          k = 0.3333 0.2238 0.0000 (  1277 PWs)   bands (ev):

   -96.4795 -96.4770 -56.8923 -56.8913 -56.8566 -56.8474 -56.7077 -56.7052
   -16.9103 -16.7095 -16.5788 -16.5614  -0.0547   0.3967   0.4797   0.5888
     0.9102   1.0481   1.3797   1.5056   2.0165   2.3834   2.7054   2.9571
     5.6484   5.7515   5.8494   5.9297   6.0747   6.1155   6.4248   6.5141
     7.1586   7.4030  13.1882  15.2007  16.8831  17.7414  18.5095  19.0928
    19.9202  20.1930  21.0532  21.2950  22.4070  23.6130  24.6771  26.3832
    29.0757  29.7173  30.3933  30.6542  31.7867  32.5826  33.1706  33.2003
    35.2704  35.3624  37.0340  37.3117  37.5249  38.6950  39.4893  39.5285

     occupation numbers 
     1.0000   1.0000   1.0000   1.0000   1.0000   1.0000   1.0000   1.0000
     1.0000   1.0000   1.0000   1.0000   1.0000   1.0000   1.0000   1.0000
     1.0000   1.0000   1.0000   1.0000   1.0000   1.0000   1.0000   1.0000
     1.0000   1.0000   1.0000   1.0000   1.0000   1.0000   1.0000   1.0000
     0.0000   0.0000   0.0000   0.0000   0.0000   0.0000   0.0000   0.0000
     0.0000   0.0000   0.0000   0.0000   0.0000   0.0000   0.0000   0.0000
     0.0000   0.0000   0.0000   0.0000   0.0000   0.0000   0.0000   0.0000
     0.0000   0.0000   0.0000   0.0000   0.0000   0.0000   0.0000   0.0000

          k = 0.3333 0.2238 0.2191 (  1291 PWs)   bands (ev):

   -96.4800 -96.4795 -56.8989 -56.8944 -56.8565 -56.8551 -56.7130 -56.7086
   -16.8497 -16.7425 -16.5893 -16.5778  -0.3025  -0.0657   0.5023   0.5479
     1.1005   1.2045   1.4988   1.6536   2.2453   2.5589   2.6342   2.8886
     5.6632   5.8049   5.8504   5.8904   5.9383   6.0822   6.4456   6.8163
     6.8628   7.2769  13.7666  15.0635  16.3728  16.9826  17.8215  19.1153
    19.4061  20.5238  21.5621  22.0104  23.5897  24.2534  24.8545  27.5620
    27.7893  28.1402  29.1370  30.1762  31.4843  32.0636  33.1791  33.8949
    35.5610  36.0943  36.2269  37.4505  37.7635  38.2960  38.6855  39.6346

     occupation numbers 
     1.0000   1.0000   1.0000   1.0000   1.0000   1.0000   1.0000   1.0000
     1.0000   1.0000   1.0000   1.0000   1.0000   1.0000   1.0000   1.0000
     1.0000   1.0000   1.0000   1.0000   1.0000   1.0000   1.0000   1.0000
     1.0000   1.0000   1.0000   1.0000   1.0000   1.0000   1.0000   1.0000
     0.0000   0.0000   0.0000   0.0000   0.0000   0.0000   0.0000   0.0000
     0.0000   0.0000   0.0000   0.0000   0.0000   0.0000   0.0000   0.0000
     0.0000   0.0000   0.0000   0.0000   0.0000   0.0000   0.0000   0.0000
     0.0000   0.0000   0.0000   0.0000   0.0000   0.0000   0.0000   0.0000

     highest occupied, lowest unoccupied level (ev):     7.3043    6.8406

!    total energy              =    -880.65300497 Ry
     estimated scf accuracy    <       0.00000009 Ry

     The total energy is the sum of the following terms:
     one-electron contribution =    -635.48372318 Ry
     hartree contribution      =     347.00901778 Ry
     xc contribution           =    -108.16897353 Ry
     ewald contribution        =    -484.00932604 Ry

     convergence has been achieved in  15 iterations

     Writing all to output data dir calculations_bands/myprefix.save/
 
     init_run     :      2.21s CPU      0.99s WALL (       1 calls)
     electrons    :    118.51s CPU     47.49s WALL (       1 calls)

     Called by init_run:
     wfcinit      :      0.45s CPU      0.20s WALL (       1 calls)
     wfcinit:atom :      0.00s CPU      0.00s WALL (       4 calls)
     wfcinit:wfcr :      0.45s CPU      0.20s WALL (       4 calls)
     potinit      :      0.52s CPU      0.21s WALL (       1 calls)
     hinit0       :      1.05s CPU      0.46s WALL (       1 calls)

     Called by electrons:
     c_bands      :     84.47s CPU     35.70s WALL (      15 calls)
     sum_band     :     27.35s CPU      9.58s WALL (      15 calls)
     v_of_rho     :      0.91s CPU      0.29s WALL (      16 calls)
     v_h          :      0.05s CPU      0.02s WALL (      16 calls)
     v_xc         :      0.86s CPU      0.27s WALL (      16 calls)
     newd         :      4.53s CPU      1.54s WALL (      16 calls)
     mix_rho      :      0.28s CPU      0.09s WALL (      15 calls)

     Called by c_bands:
     init_us_2    :      0.07s CPU      0.03s WALL (     124 calls)
     init_us_2:cp :      0.07s CPU      0.02s WALL (     124 calls)
     cegterg      :     54.71s CPU     18.50s WALL (      60 calls)

     Called by sum_band:
     sum_band:wei :      0.00s CPU      0.00s WALL (      15 calls)
     sum_band:loo :     17.08s CPU      5.53s WALL (      15 calls)
     sum_band:buf :      0.02s CPU      0.02s WALL (      60 calls)
     sum_band:ini :      0.04s CPU      0.01s WALL (      60 calls)
     sum_band:cal :      0.34s CPU      0.11s WALL (      60 calls)
     sum_band:bec :      0.05s CPU      0.02s WALL (      60 calls)
     addusdens    :      1.67s CPU      0.58s WALL (      15 calls)
     addusd:skk   :      0.12s CPU      0.05s WALL (      30 calls)
     addusd:dgemm :      0.08s CPU      0.06s WALL (      30 calls)
     addusd:qvan2 :      0.75s CPU      0.26s WALL (      30 calls)

     Called by *egterg:
     cdiaghg      :      8.76s CPU      2.96s WALL (     191 calls)
     cegterg:over :      1.57s CPU      0.52s WALL (     131 calls)
     cegterg:upda :      1.44s CPU      0.50s WALL (     131 calls)
     cegterg:last :      0.85s CPU      0.28s WALL (      97 calls)
     cdiaghg:chol :      0.97s CPU      0.32s WALL (     191 calls)
     cdiaghg:inve :      0.08s CPU      0.02s WALL (     191 calls)
     cdiaghg:para :      2.43s CPU      0.84s WALL (     382 calls)
     h_psi        :     41.18s CPU     13.96s WALL (     195 calls)
     s_psi        :      0.09s CPU      0.03s WALL (     195 calls)
     g_psi        :      0.02s CPU      0.01s WALL (     131 calls)

     Called by h_psi:
     h_psi:calbec :      0.67s CPU      0.21s WALL (     195 calls)
     vloc_psi     :     40.21s CPU     13.64s WALL (     195 calls)
     add_vuspsi   :      0.27s CPU      0.10s WALL (     195 calls)

     General routines
     calbec       :      1.00s CPU      0.32s WALL (     255 calls)
     fft          :      1.55s CPU      0.55s WALL (     206 calls)
     ffts         :      0.55s CPU      0.21s WALL (      31 calls)
     fftw         :     52.90s CPU     17.58s WALL (   22026 calls)
     interpolate  :      0.53s CPU      0.20s WALL (      16 calls)
 
     Parallel routines
 
     PWSCF        :   2m 1.51s CPU     49.18s WALL

 
   This run was terminated on:  22:11:20   4Jun2023            

=------------------------------------------------------------------------------=
   JOB DONE.
=------------------------------------------------------------------------------=
