
     Program PWSCF v.7.0 starts on  3Jun2023 at  4:13:45 

     This program is part of the open-source Quantum ESPRESSO suite
     for quantum simulation of materials; please cite
         "P. Giannozzi et al., J. Phys.:Condens. Matter 21 395502 (2009);
         "P. Giannozzi et al., J. Phys.:Condens. Matter 29 465901 (2017);
         "P. Giannozzi et al., J. Chem. Phys. 152 154105 (2020);
          URL http://www.quantum-espresso.org", 
     in publications or presentations arising from this work. More details at
     http://www.quantum-espresso.org/quote

     Parallel version (MPI & OpenMP), running on      32 processor cores
     Number of MPI processes:                 1
     Threads/MPI process:                    32

     MPI processes distributed on     1 nodes
     134382 MiB available memory on the printing compute node when the environment starts
 
     Reading input from espresso_213.pwi
Warning: card &CELL ignored
Warning: card / ignored

     Current dimensions of program PWSCF are:
     Max number of different atomic species (ntypx) = 10
     Max number of k-points (npk) =  40000
     Max angular momentum in pseudopotentials (lmaxx) =  4
     file O.pbe-n-kjpaw_psl.0.1.UPF: wavefunction(s)  2P renormalized

     Subspace diagonalization in iterative solution of the eigenvalue problem:
     a serial algorithm will be used

 
     G-vector sticks info
     --------------------
     sticks:   dense  smooth     PW     G-vecs:    dense   smooth      PW
     Sum        2211    1109    317                67691    24027    3787
 
     Using Slab Decomposition
 


     bravais-lattice index     =            0
     lattice parameter (alat)  =      11.6518  a.u.
     unit-cell volume          =    1080.4952 (a.u.)^3
     number of atoms/cell      =           10
     number of atomic types    =            3
     number of electrons       =        88.00
     number of Kohn-Sham states=           64
     kinetic-energy cutoff     =      30.0000  Ry
     charge density cutoff     =     240.0000  Ry
     scf convergence threshold =      1.0E-06
     mixing beta               =       0.7000
     number of iterations used =            8  plain     mixing
     Exchange-correlation= SLA  PW   PBX  PBC
                           (   1   4   3   4   0   0   0)

     celldm(1)=  11.651800  celldm(2)=   0.000000  celldm(3)=   0.000000
     celldm(4)=   0.000000  celldm(5)=   0.000000  celldm(6)=   0.000000

     crystal axes: (cart. coord. in units of alat)
               a(1) = (   1.000000   0.000000   0.000000 )  
               a(2) = (   0.522322   0.852748   0.000000 )  
               a(3) = (   0.522322   0.292585   0.800983 )  

     reciprocal axes: (cart. coord. in units 2 pi/alat)
               b(1) = (  1.000000 -0.612517 -0.428360 )  
               b(2) = (  0.000000  1.172679 -0.428360 )  
               b(3) = (  0.000000  0.000000  1.248467 )  


     PseudoPot. # 1 for Y  read from file:
     /home/pragov/projects/rrg-bengioy-ad/pragov/crystal_structure_design/SSSP/Y_pbe_v1.uspp.F.UPF
     MD5 check sum: 2cf71db95cafeb975fc457bd7f14888e
     Pseudo is Ultrasoft + core correction, Zval = 11.0
     Generated by new atomic code, or converted to UPF format
     Using radial grid of  885 points,  6 beta functions with: 
                l(1) =   0
                l(2) =   0
                l(3) =   1
                l(4) =   1
                l(5) =   2
                l(6) =   2
     Q(r) pseudized with  6 coefficients,  rinner =    1.200   1.200   1.200
                                                       1.200   1.200

     PseudoPot. # 2 for Bi read from file:
     /home/pragov/projects/rrg-bengioy-ad/pragov/crystal_structure_design/SSSP/Bi_pbe_v1.uspp.F.UPF
     MD5 check sum: cceb9f28ec65b6d7ff33140f5b0b1758
     Pseudo is Ultrasoft + core correction, Zval = 15.0
     Generated by new atomic code, or converted to UPF format
     Using radial grid of  899 points,  6 beta functions with: 
                l(1) =   0
                l(2) =   0
                l(3) =   1
                l(4) =   1
                l(5) =   2
                l(6) =   2
     Q(r) pseudized with  6 coefficients,  rinner =    1.000   1.000   1.000
                                                       1.000   1.000

     PseudoPot. # 3 for O  read from file:
     /home/pragov/projects/rrg-bengioy-ad/pragov/crystal_structure_design/SSSP/O.pbe-n-kjpaw_psl.0.1.UPF
     MD5 check sum: 0234752ac141de4415c5fc33072bef88
     Pseudo is Projector augmented-wave + core cor, Zval =  6.0
     Generated using "atomic" code by A. Dal Corso  v.5.0.99 svn rev. 10869
     Shape of augmentation charge: BESSEL
     Using radial grid of 1095 points,  4 beta functions with: 
                l(1) =   0
                l(2) =   0
                l(3) =   1
                l(4) =   1
     Q(r) pseudized with 0 coefficients 


     atomic species   valence    mass     pseudopotential
        Y             11.00    88.90584     Y ( 1.00)
        Bi            15.00   208.98040     Bi( 1.00)
        O              6.00    15.99900     O ( 1.00)

     No symmetry found


                                    s                        frac. trans.

      isym =  1     identity                                     

 cryst.   s( 1) = (     1          0          0      )
                  (     0          1          0      )
                  (     0          0          1      )

 cart.    s( 1) = (  1.0000000  0.0000000  0.0000000 )
                  (  0.0000000  1.0000000  0.0000000 )
                  (  0.0000000  0.0000000  1.0000000 )


   Cartesian axes

     site n.     atom                  positions (alat units)
         1           Y   tau(   1) = (   1.5877566   0.8894018   0.6219982  )
         2           Y   tau(   2) = (   0.5654342   0.3167351   0.2215069  )
         3           Bi  tau(   3) = (   2.0246727   1.1341459   0.7931586  )
         4           Bi  tau(   4) = (   1.0023503   0.5614791   0.3926673  )
         5           O   tau(   5) = (   0.9349767   0.7717879   0.7339171  )
         6           O   tau(   6) = (   0.6465000   0.6742587   0.3334258  )
         7           O   tau(   7) = (   0.8020280   0.2668816   0.5189270  )
         8           O   tau(   8) = (   1.3020280   0.2989139   0.4731236  )
         9           O   tau(   9) = (   1.1465001   0.8246109   0.1184357  )
        10           O   tau(  10) = (   0.9126544   0.3815056   0.0726323  )

   Crystallographic axes

     site n.     atom                  positions (cryst. coord.)
         1           Y   tau(   1) = (  0.7765440  0.7765440  0.7765440  )
         2           Y   tau(   2) = (  0.2765440  0.2765440  0.2765440  )
         3           Bi  tau(   3) = (  0.9902320  0.9902320  0.9902320  )
         4           Bi  tau(   4) = (  0.4902320  0.4902320  0.4902320  )
         5           O   tau(   5) = (  0.1478630  0.5906790  0.9162710  )
         6           O   tau(   6) = (  0.0906790  0.6478630  0.4162710  )
         7           O   tau(   7) = (  0.4162710  0.0906790  0.6478630  )
         8           O   tau(   8) = (  0.9162710  0.1478630  0.5906790  )
         9           O   tau(   9) = (  0.5906790  0.9162710  0.1478630  )
        10           O   tau(  10) = (  0.6478630  0.4162710  0.0906790  )

     number of k points=    14
                       cart. coord. in units 2pi/alat
        k(    1) = (   0.0000000   0.0000000   0.0000000), wk =   0.0740741
        k(    2) = (   0.0000000   0.0000000   0.4161555), wk =   0.1481481
        k(    3) = (   0.0000000   0.3908931  -0.1427866), wk =   0.1481481
        k(    4) = (   0.0000000   0.3908931   0.2733689), wk =   0.1481481
        k(    5) = (   0.0000000   0.3908931  -0.5589422), wk =   0.1481481
        k(    6) = (   0.3333333  -0.2041722  -0.1427866), wk =   0.1481481
        k(    7) = (   0.3333333  -0.2041722   0.2733689), wk =   0.1481481
        k(    8) = (   0.3333333  -0.2041722  -0.5589422), wk =   0.1481481
        k(    9) = (   0.3333333   0.1867209  -0.2855733), wk =   0.1481481
        k(   10) = (   0.3333333   0.1867209   0.1305822), wk =   0.1481481
        k(   11) = (   0.3333333   0.1867209  -0.7017288), wk =   0.1481481
        k(   12) = (   0.3333333  -0.5950653   0.0000000), wk =   0.1481481
        k(   13) = (   0.3333333  -0.5950653   0.4161555), wk =   0.1481481
        k(   14) = (   0.3333333  -0.5950653  -0.4161555), wk =   0.1481481

                       cryst. coord.
        k(    1) = (   0.0000000   0.0000000   0.0000000), wk =   0.0740741
        k(    2) = (   0.0000000   0.0000000   0.3333333), wk =   0.1481481
        k(    3) = (   0.0000000   0.3333333   0.0000000), wk =   0.1481481
        k(    4) = (   0.0000000   0.3333333   0.3333333), wk =   0.1481481
        k(    5) = (   0.0000000   0.3333333  -0.3333333), wk =   0.1481481
        k(    6) = (   0.3333333   0.0000000   0.0000000), wk =   0.1481481
        k(    7) = (   0.3333333   0.0000000   0.3333333), wk =   0.1481481
        k(    8) = (   0.3333333   0.0000000  -0.3333333), wk =   0.1481481
        k(    9) = (   0.3333333   0.3333333   0.0000000), wk =   0.1481481
        k(   10) = (   0.3333333   0.3333333   0.3333333), wk =   0.1481481
        k(   11) = (   0.3333333   0.3333333  -0.3333333), wk =   0.1481481
        k(   12) = (   0.3333333  -0.3333333   0.0000000), wk =   0.1481481
        k(   13) = (   0.3333333  -0.3333333   0.3333333), wk =   0.1481481
        k(   14) = (   0.3333333  -0.3333333  -0.3333333), wk =   0.1481481

     Dense  grid:    67691 G-vectors     FFT dimensions: (  60,  60,  60)

     Smooth grid:    24027 G-vectors     FFT dimensions: (  45,  45,  45)

     Dynamical RAM for                 wfc:       2.93 MB

     Dynamical RAM for     wfc (w. buffer):      43.92 MB

     Dynamical RAM for           str. fact:       3.10 MB

     Dynamical RAM for           local pot:       0.00 MB

     Dynamical RAM for          nlocal pot:       5.49 MB

     Dynamical RAM for                qrad:       3.73 MB

     Dynamical RAM for          rho,v,vnew:       8.04 MB

     Dynamical RAM for               rhoin:       2.68 MB

     Dynamical RAM for            rho*nmix:      16.53 MB

     Dynamical RAM for           G-vectors:       4.06 MB

     Dynamical RAM for          h,s,v(r/c):       0.75 MB

     Dynamical RAM for          <psi|beta>:       0.12 MB

     Dynamical RAM for                 psi:       5.86 MB

     Dynamical RAM for                hpsi:       5.86 MB

     Dynamical RAM for                spsi:       5.86 MB

     Dynamical RAM for      wfcinit/wfcrot:       6.33 MB

     Dynamical RAM for           addusdens:     198.31 MB

     Estimated static dynamical RAM per process >      83.39 MB

     Estimated max dynamical RAM per process >     298.23 MB

     Check: negative core charge=   -0.000012

     Initial potential from superposition of free atoms

     starting charge      85.9910, renormalised to      88.0000

     negative rho (up, down):  1.752E-01 0.000E+00
     Starting wfcs are   68 randomized atomic wfcs
     Checking if some PAW data can be deallocated... 

     total cpu time spent up to now is       11.6 secs

     Self-consistent Calculation

     iteration #  1     ecut=    30.00 Ry     beta= 0.70
     Davidson diagonalization with overlap

---- Real-time Memory Report at c_bands before calling an iterative solver
           663 MiB given to the printing process from OS
             0 MiB allocation reported by mallinfo(arena+hblkhd)
        133895 MiB available memory on the node where the printing process lives
------------------
     ethr =  1.00E-02,  avg # of iterations =  4.9

     negative rho (up, down):  1.662E-01 0.000E+00

     total cpu time spent up to now is       26.9 secs

     total energy              =    -794.79939563 Ry
     estimated scf accuracy    <       2.41280171 Ry

     iteration #  2     ecut=    30.00 Ry     beta= 0.70
     Davidson diagonalization with overlap

---- Real-time Memory Report at c_bands before calling an iterative solver
           874 MiB given to the printing process from OS
             0 MiB allocation reported by mallinfo(arena+hblkhd)
        133891 MiB available memory on the node where the printing process lives
------------------
     ethr =  2.74E-03,  avg # of iterations =  2.0

     negative rho (up, down):  1.700E-01 0.000E+00

     total cpu time spent up to now is       45.4 secs

     total energy              =    -794.93286168 Ry
     estimated scf accuracy    <       5.49343507 Ry

     iteration #  3     ecut=    30.00 Ry     beta= 0.70
     Davidson diagonalization with overlap

---- Real-time Memory Report at c_bands before calling an iterative solver
           889 MiB given to the printing process from OS
             0 MiB allocation reported by mallinfo(arena+hblkhd)
        133847 MiB available memory on the node where the printing process lives
------------------
     ethr =  2.74E-03,  avg # of iterations =  2.0

     negative rho (up, down):  1.715E-01 0.000E+00

     total cpu time spent up to now is       61.7 secs

     total energy              =    -796.02908530 Ry
     estimated scf accuracy    <       0.04942826 Ry

     iteration #  4     ecut=    30.00 Ry     beta= 0.70
     Davidson diagonalization with overlap

---- Real-time Memory Report at c_bands before calling an iterative solver
           908 MiB given to the printing process from OS
             0 MiB allocation reported by mallinfo(arena+hblkhd)
        133830 MiB available memory on the node where the printing process lives
------------------
     ethr =  5.62E-05,  avg # of iterations =  5.0

     negative rho (up, down):  1.718E-01 0.000E+00

     total cpu time spent up to now is       75.6 secs

     total energy              =    -796.03446457 Ry
     estimated scf accuracy    <       0.00384695 Ry

     iteration #  5     ecut=    30.00 Ry     beta= 0.70
     Davidson diagonalization with overlap

---- Real-time Memory Report at c_bands before calling an iterative solver
           908 MiB given to the printing process from OS
             0 MiB allocation reported by mallinfo(arena+hblkhd)
        133832 MiB available memory on the node where the printing process lives
------------------
     ethr =  4.37E-06,  avg # of iterations =  8.8

     negative rho (up, down):  1.720E-01 0.000E+00

     total cpu time spent up to now is       91.7 secs

     total energy              =    -796.03520848 Ry
     estimated scf accuracy    <       0.00048068 Ry

     iteration #  6     ecut=    30.00 Ry     beta= 0.70
     Davidson diagonalization with overlap

---- Real-time Memory Report at c_bands before calling an iterative solver
           912 MiB given to the printing process from OS
             0 MiB allocation reported by mallinfo(arena+hblkhd)
        133837 MiB available memory on the node where the printing process lives
------------------
     ethr =  5.46E-07,  avg # of iterations =  2.0

     negative rho (up, down):  1.721E-01 0.000E+00

     total cpu time spent up to now is      106.1 secs

     total energy              =    -796.03534004 Ry
     estimated scf accuracy    <       0.00047884 Ry

     iteration #  7     ecut=    30.00 Ry     beta= 0.70
     Davidson diagonalization with overlap

---- Real-time Memory Report at c_bands before calling an iterative solver
           912 MiB given to the printing process from OS
             0 MiB allocation reported by mallinfo(arena+hblkhd)
        133862 MiB available memory on the node where the printing process lives
------------------
     ethr =  5.44E-07,  avg # of iterations =  2.0

     negative rho (up, down):  1.723E-01 0.000E+00

     total cpu time spent up to now is      119.0 secs

     total energy              =    -796.03541973 Ry
     estimated scf accuracy    <       0.00000749 Ry

     iteration #  8     ecut=    30.00 Ry     beta= 0.70
     Davidson diagonalization with overlap

---- Real-time Memory Report at c_bands before calling an iterative solver
           912 MiB given to the printing process from OS
             0 MiB allocation reported by mallinfo(arena+hblkhd)
        133859 MiB available memory on the node where the printing process lives
------------------
     ethr =  8.51E-09,  avg # of iterations =  4.0

     negative rho (up, down):  1.723E-01 0.000E+00

     total cpu time spent up to now is      133.5 secs

     total energy              =    -796.03542199 Ry
     estimated scf accuracy    <       0.00001013 Ry

     iteration #  9     ecut=    30.00 Ry     beta= 0.70
     Davidson diagonalization with overlap

---- Real-time Memory Report at c_bands before calling an iterative solver
           913 MiB given to the printing process from OS
             0 MiB allocation reported by mallinfo(arena+hblkhd)
        133860 MiB available memory on the node where the printing process lives
------------------
     ethr =  8.51E-09,  avg # of iterations =  2.0

     negative rho (up, down):  1.724E-01 0.000E+00

     total cpu time spent up to now is      146.2 secs

     End of self-consistent calculation

          k = 0.0000 0.0000 0.0000 (  2999 PWs)   bands (ev):

   -31.3648 -31.3519 -13.1310 -13.1310 -13.0441 -13.0131 -13.0131 -13.0000
   -13.0000 -12.9925 -12.9653 -12.9653 -11.8340 -11.7953 -11.7952 -11.5105
   -11.4834 -11.4834  -8.5162  -7.4829  -7.4825  -7.0609  -6.6063  -6.6060
    -1.1157   0.8895   4.4125   4.4126   5.3023   5.8491   6.0573   6.0573
     6.1089   6.6246   6.6248   7.3311   7.3313   7.6092   7.6093   7.7011
     7.9835   7.9836   8.5128   8.9082  12.7979  12.7980  13.8304  14.1169
    14.5255  14.5255  14.7769  15.0970  15.1884  15.1884  15.4497  15.4498
    16.2915  17.1633  17.1633  17.4990  17.4991  17.9177  19.6949  19.6950

     occupation numbers 
     1.0000   1.0000   1.0000   1.0000   1.0000   1.0000   1.0000   1.0000
     1.0000   1.0000   1.0000   1.0000   1.0000   1.0000   1.0000   1.0000
     1.0000   1.0000   1.0000   1.0000   1.0000   1.0000   1.0000   1.0000
     1.0000   1.0000   1.0000   1.0000   1.0000   1.0000   1.0000   1.0000
     1.0000   1.0000   1.0000   1.0000   1.0000   1.0000   1.0000   1.0000
     1.0000   1.0000   1.0000   1.0000   0.0000   0.0000   0.0000   0.0000
     0.0000   0.0000   0.0000   0.0000   0.0000   0.0000   0.0000   0.0000
     0.0000   0.0000   0.0000   0.0000   0.0000   0.0000   0.0000   0.0000

          k = 0.0000 0.0000 0.4162 (  2994 PWs)   bands (ev):

   -31.3615 -31.3551 -13.0954 -13.0834 -13.0453 -13.0256 -13.0095 -13.0033
   -12.9988 -12.9929 -12.9803 -12.9781 -11.8518 -11.7509 -11.6876 -11.6796
   -11.5815 -11.5280  -8.0492  -7.4185  -7.3188  -7.1305  -6.9310  -6.8334
    -0.7428   0.1980   4.8579   4.8739   5.4350   5.4556   6.1660   6.3029
     6.3172   6.7628   6.9802   7.1128   7.1874   7.4368   7.5209   7.6293
     7.7268   7.7843   8.5752   8.7301  12.6171  12.6922  13.6968  13.7241
    13.9876  14.1632  14.6581  14.7350  15.0541  15.1645  15.5235  15.5333
    17.4363  17.4596  17.7092  17.8103  18.0086  18.8543  19.6986  19.9242

     occupation numbers 
     1.0000   1.0000   1.0000   1.0000   1.0000   1.0000   1.0000   1.0000
     1.0000   1.0000   1.0000   1.0000   1.0000   1.0000   1.0000   1.0000
     1.0000   1.0000   1.0000   1.0000   1.0000   1.0000   1.0000   1.0000
     1.0000   1.0000   1.0000   1.0000   1.0000   1.0000   1.0000   1.0000
     1.0000   1.0000   1.0000   1.0000   1.0000   1.0000   1.0000   1.0000
     1.0000   1.0000   1.0000   1.0000   0.0000   0.0000   0.0000   0.0000
     0.0000   0.0000   0.0000   0.0000   0.0000   0.0000   0.0000   0.0000
     0.0000   0.0000   0.0000   0.0000   0.0000   0.0000   0.0000   0.0000

          k = 0.0000 0.3909-0.1428 (  2994 PWs)   bands (ev):

   -31.3615 -31.3551 -13.0954 -13.0834 -13.0453 -13.0256 -13.0095 -13.0033
   -12.9988 -12.9929 -12.9803 -12.9782 -11.8518 -11.7510 -11.6876 -11.6796
   -11.5815 -11.5280  -8.0492  -7.4187  -7.3185  -7.1306  -6.9307  -6.8337
    -0.7428   0.1980   4.8578   4.8739   5.4350   5.4555   6.1662   6.3029
     6.3172   6.7626   6.9803   7.1129   7.1872   7.4367   7.5209   7.6294
     7.7269   7.7843   8.5752   8.7301  12.6171  12.6922  13.6968  13.7241
    13.9876  14.1632  14.6581  14.7350  15.0541  15.1644  15.5236  15.5333
    17.4364  17.4596  17.7092  17.8102  18.0086  18.8543  19.6986  19.9242

     occupation numbers 
     1.0000   1.0000   1.0000   1.0000   1.0000   1.0000   1.0000   1.0000
     1.0000   1.0000   1.0000   1.0000   1.0000   1.0000   1.0000   1.0000
     1.0000   1.0000   1.0000   1.0000   1.0000   1.0000   1.0000   1.0000
     1.0000   1.0000   1.0000   1.0000   1.0000   1.0000   1.0000   1.0000
     1.0000   1.0000   1.0000   1.0000   1.0000   1.0000   1.0000   1.0000
     1.0000   1.0000   1.0000   1.0000   0.0000   0.0000   0.0000   0.0000
     0.0000   0.0000   0.0000   0.0000   0.0000   0.0000   0.0000   0.0000
     0.0000   0.0000   0.0000   0.0000   0.0000   0.0000   0.0000   0.0000

          k = 0.0000 0.3909 0.2734 (  2997 PWs)   bands (ev):

   -31.3615 -31.3551 -13.1013 -13.0699 -13.0534 -13.0209 -13.0102 -13.0021
   -13.0014 -12.9913 -12.9885 -12.9665 -11.8763 -11.8649 -11.8251 -11.5488
   -11.4714 -11.4707  -8.0924  -7.4381  -7.3319  -7.1792  -6.8937  -6.7861
    -0.7294   0.2373   4.6502   4.9706   5.4846   5.7433   6.1322   6.2210
     6.2253   6.5738   6.9167   7.0317   7.1078   7.5223   7.6400   7.6610
     7.7393   7.9635   8.6445   8.6459  12.1900  12.9383  12.9842  13.9296
    14.0419  14.3482  14.8165  14.8301  15.1488  15.3001  15.4713  15.7415
    16.9572  17.2560  17.5643  17.8238  18.3308  18.6077  19.8798  19.9996

     occupation numbers 
     1.0000   1.0000   1.0000   1.0000   1.0000   1.0000   1.0000   1.0000
     1.0000   1.0000   1.0000   1.0000   1.0000   1.0000   1.0000   1.0000
     1.0000   1.0000   1.0000   1.0000   1.0000   1.0000   1.0000   1.0000
     1.0000   1.0000   1.0000   1.0000   1.0000   1.0000   1.0000   1.0000
     1.0000   1.0000   1.0000   1.0000   1.0000   1.0000   1.0000   1.0000
     1.0000   1.0000   1.0000   1.0000   0.0000   0.0000   0.0000   0.0000
     0.0000   0.0000   0.0000   0.0000   0.0000   0.0000   0.0000   0.0000
     0.0000   0.0000   0.0000   0.0000   0.0000   0.0000   0.0000   0.0000

          k = 0.0000 0.3909-0.5589 (  3004 PWs)   bands (ev):

   -31.3583 -31.3583 -13.0748 -13.0713 -13.0411 -13.0319 -13.0112 -13.0051
   -12.9960 -12.9934 -12.9850 -12.9799 -11.9096 -11.8590 -11.7434 -11.6234
   -11.5272 -11.4598  -7.6928  -7.6498  -7.2550  -7.1004  -7.0532  -6.9405
    -0.3071  -0.2943   4.8781   5.2628   5.3291   5.6904   5.9666   6.2734
     6.4662   6.6518   6.6847   7.0861   7.2929   7.3952   7.5361   7.6973
     7.7890   7.8119   8.5731   8.6567  12.2720  12.5058  13.3603  13.6880
    13.9242  14.1443  14.4552  14.8757  15.1241  15.3033  15.5455  15.7424
    17.0579  17.3419  18.0775  18.3107  18.7209  18.8726  19.3980  19.6667

     occupation numbers 
     1.0000   1.0000   1.0000   1.0000   1.0000   1.0000   1.0000   1.0000
     1.0000   1.0000   1.0000   1.0000   1.0000   1.0000   1.0000   1.0000
     1.0000   1.0000   1.0000   1.0000   1.0000   1.0000   1.0000   1.0000
     1.0000   1.0000   1.0000   1.0000   1.0000   1.0000   1.0000   1.0000
     1.0000   1.0000   1.0000   1.0000   1.0000   1.0000   1.0000   1.0000
     1.0000   1.0000   1.0000   1.0000   0.0000   0.0000   0.0000   0.0000
     0.0000   0.0000   0.0000   0.0000   0.0000   0.0000   0.0000   0.0000
     0.0000   0.0000   0.0000   0.0000   0.0000   0.0000   0.0000   0.0000

          k = 0.3333-0.2042-0.1428 (  2994 PWs)   bands (ev):

   -31.3615 -31.3551 -13.0954 -13.0834 -13.0453 -13.0256 -13.0095 -13.0033
   -12.9988 -12.9929 -12.9803 -12.9781 -11.8518 -11.7510 -11.6876 -11.6796
   -11.5815 -11.5280  -8.0492  -7.4185  -7.3187  -7.1305  -6.9309  -6.8335
    -0.7428   0.1980   4.8578   4.8739   5.4350   5.4555   6.1661   6.3029
     6.3172   6.7627   6.9802   7.1128   7.1873   7.4368   7.5209   7.6294
     7.7269   7.7843   8.5752   8.7301  12.6171  12.6922  13.6969  13.7241
    13.9875  14.1632  14.6581  14.7350  15.0541  15.1644  15.5236  15.5333
    17.4363  17.4596  17.7092  17.8102  18.0086  18.8543  19.6986  19.9242

     occupation numbers 
     1.0000   1.0000   1.0000   1.0000   1.0000   1.0000   1.0000   1.0000
     1.0000   1.0000   1.0000   1.0000   1.0000   1.0000   1.0000   1.0000
     1.0000   1.0000   1.0000   1.0000   1.0000   1.0000   1.0000   1.0000
     1.0000   1.0000   1.0000   1.0000   1.0000   1.0000   1.0000   1.0000
     1.0000   1.0000   1.0000   1.0000   1.0000   1.0000   1.0000   1.0000
     1.0000   1.0000   1.0000   1.0000   0.0000   0.0000   0.0000   0.0000
     0.0000   0.0000   0.0000   0.0000   0.0000   0.0000   0.0000   0.0000
     0.0000   0.0000   0.0000   0.0000   0.0000   0.0000   0.0000   0.0000

          k = 0.3333-0.2042 0.2734 (  2997 PWs)   bands (ev):

   -31.3615 -31.3551 -13.1013 -13.0699 -13.0535 -13.0209 -13.0102 -13.0021
   -13.0014 -12.9913 -12.9886 -12.9664 -11.8763 -11.8649 -11.8251 -11.5488
   -11.4714 -11.4707  -8.0925  -7.4382  -7.3318  -7.1790  -6.8937  -6.7863
    -0.7294   0.2373   4.6503   4.9707   5.4845   5.7433   6.1321   6.2210
     6.2252   6.5738   6.9168   7.0317   7.1078   7.5224   7.6400   7.6610
     7.7392   7.9634   8.6446   8.6459  12.1900  12.9384  12.9841  13.9296
    14.0420  14.3481  14.8165  14.8301  15.1488  15.3001  15.4713  15.7415
    16.9572  17.2561  17.5643  17.8238  18.3308  18.6077  19.8798  19.9996

     occupation numbers 
     1.0000   1.0000   1.0000   1.0000   1.0000   1.0000   1.0000   1.0000
     1.0000   1.0000   1.0000   1.0000   1.0000   1.0000   1.0000   1.0000
     1.0000   1.0000   1.0000   1.0000   1.0000   1.0000   1.0000   1.0000
     1.0000   1.0000   1.0000   1.0000   1.0000   1.0000   1.0000   1.0000
     1.0000   1.0000   1.0000   1.0000   1.0000   1.0000   1.0000   1.0000
     1.0000   1.0000   1.0000   1.0000   0.0000   0.0000   0.0000   0.0000
     0.0000   0.0000   0.0000   0.0000   0.0000   0.0000   0.0000   0.0000
     0.0000   0.0000   0.0000   0.0000   0.0000   0.0000   0.0000   0.0000

          k = 0.3333-0.2042-0.5589 (  3004 PWs)   bands (ev):

   -31.3583 -31.3583 -13.0748 -13.0713 -13.0411 -13.0319 -13.0112 -13.0051
   -12.9960 -12.9934 -12.9850 -12.9799 -11.9096 -11.8590 -11.7434 -11.6234
   -11.5272 -11.4598  -7.6926  -7.6498  -7.2552  -7.1005  -7.0533  -6.9402
    -0.3071  -0.2943   4.8781   5.2628   5.3292   5.6904   5.9665   6.2734
     6.4662   6.6517   6.6847   7.0861   7.2930   7.3951   7.5361   7.6971
     7.7890   7.8120   8.5731   8.6567  12.2719  12.5058  13.3604  13.6880
    13.9243  14.1443  14.4552  14.8757  15.1241  15.3033  15.5455  15.7424
    17.0579  17.3420  18.0775  18.3106  18.7209  18.8726  19.3980  19.6667

     occupation numbers 
     1.0000   1.0000   1.0000   1.0000   1.0000   1.0000   1.0000   1.0000
     1.0000   1.0000   1.0000   1.0000   1.0000   1.0000   1.0000   1.0000
     1.0000   1.0000   1.0000   1.0000   1.0000   1.0000   1.0000   1.0000
     1.0000   1.0000   1.0000   1.0000   1.0000   1.0000   1.0000   1.0000
     1.0000   1.0000   1.0000   1.0000   1.0000   1.0000   1.0000   1.0000
     1.0000   1.0000   1.0000   1.0000   0.0000   0.0000   0.0000   0.0000
     0.0000   0.0000   0.0000   0.0000   0.0000   0.0000   0.0000   0.0000
     0.0000   0.0000   0.0000   0.0000   0.0000   0.0000   0.0000   0.0000

          k = 0.3333 0.1867-0.2856 (  2997 PWs)   bands (ev):

   -31.3615 -31.3551 -13.1013 -13.0699 -13.0534 -13.0209 -13.0102 -13.0021
   -13.0014 -12.9913 -12.9885 -12.9665 -11.8763 -11.8649 -11.8251 -11.5488
   -11.4714 -11.4707  -8.0923  -7.4381  -7.3322  -7.1794  -6.8935  -6.7860
    -0.7294   0.2373   4.6502   4.9705   5.4846   5.7432   6.1322   6.2210
     6.2253   6.5738   6.9166   7.0317   7.1078   7.5224   7.6399   7.6611
     7.7394   7.9636   8.6445   8.6459  12.1900  12.9383  12.9841  13.9295
    14.0419  14.3482  14.8165  14.8301  15.1488  15.3001  15.4713  15.7415
    16.9571  17.2560  17.5643  17.8237  18.3308  18.6077  19.8798  19.9996

     occupation numbers 
     1.0000   1.0000   1.0000   1.0000   1.0000   1.0000   1.0000   1.0000
     1.0000   1.0000   1.0000   1.0000   1.0000   1.0000   1.0000   1.0000
     1.0000   1.0000   1.0000   1.0000   1.0000   1.0000   1.0000   1.0000
     1.0000   1.0000   1.0000   1.0000   1.0000   1.0000   1.0000   1.0000
     1.0000   1.0000   1.0000   1.0000   1.0000   1.0000   1.0000   1.0000
     1.0000   1.0000   1.0000   1.0000   0.0000   0.0000   0.0000   0.0000
     0.0000   0.0000   0.0000   0.0000   0.0000   0.0000   0.0000   0.0000
     0.0000   0.0000   0.0000   0.0000   0.0000   0.0000   0.0000   0.0000

          k = 0.3333 0.1867 0.1306 (  2972 PWs)   bands (ev):

   -31.3616 -31.3551 -13.0940 -13.0939 -13.0308 -13.0308 -13.0222 -12.9993
   -12.9970 -12.9969 -12.9801 -12.9801 -11.7900 -11.7337 -11.7337 -11.6316
   -11.5789 -11.5789  -8.1388  -7.4230  -7.2557  -7.2553  -6.8195  -6.8192
    -0.7088   0.2459   4.8785   4.8786   5.8231   5.8231   5.8584   6.0140
     6.4905   6.6937   6.6939   7.0927   7.1089   7.1091   7.3807   7.3809
     7.8371   7.8372   8.7673   8.8912  12.9269  13.0723  13.3994  13.3995
    14.1799  14.1799  14.9258  15.1073  15.1073  15.1830  15.3881  15.3881
    17.4488  17.4489  17.6288  17.6289  17.8267  18.8826  20.0061  20.0061

     occupation numbers 
     1.0000   1.0000   1.0000   1.0000   1.0000   1.0000   1.0000   1.0000
     1.0000   1.0000   1.0000   1.0000   1.0000   1.0000   1.0000   1.0000
     1.0000   1.0000   1.0000   1.0000   1.0000   1.0000   1.0000   1.0000
     1.0000   1.0000   1.0000   1.0000   1.0000   1.0000   1.0000   1.0000
     1.0000   1.0000   1.0000   1.0000   1.0000   1.0000   1.0000   1.0000
     1.0000   1.0000   1.0000   1.0000   0.0000   0.0000   0.0000   0.0000
     0.0000   0.0000   0.0000   0.0000   0.0000   0.0000   0.0000   0.0000
     0.0000   0.0000   0.0000   0.0000   0.0000   0.0000   0.0000   0.0000

          k = 0.3333 0.1867-0.7017 (  3002 PWs)   bands (ev):

   -31.3584 -31.3583 -13.0825 -13.0700 -13.0355 -13.0317 -13.0108 -13.0093
   -12.9971 -12.9934 -12.9838 -12.9812 -11.9089 -11.8180 -11.7813 -11.5806
   -11.5576 -11.4602  -7.7485  -7.7032  -7.1983  -7.0725  -7.0591  -6.9259
    -0.2865  -0.2770   4.9142   5.3696   5.5024   5.7251   5.7730   5.9851
     6.4476   6.7872   6.9426   6.9481   7.0912   7.3349   7.4780   7.6244
     7.6873   7.8074   8.6814   8.7940  12.3865  12.7534  12.8484  13.7225
    13.8819  14.4490  14.6557  14.8765  15.0346  15.3794  15.4271  15.6943
    17.0433  17.4145  17.9149  18.1285  18.6541  19.3022  19.7789  19.7984

     occupation numbers 
     1.0000   1.0000   1.0000   1.0000   1.0000   1.0000   1.0000   1.0000
     1.0000   1.0000   1.0000   1.0000   1.0000   1.0000   1.0000   1.0000
     1.0000   1.0000   1.0000   1.0000   1.0000   1.0000   1.0000   1.0000
     1.0000   1.0000   1.0000   1.0000   1.0000   1.0000   1.0000   1.0000
     1.0000   1.0000   1.0000   1.0000   1.0000   1.0000   1.0000   1.0000
     1.0000   1.0000   1.0000   1.0000   0.0000   0.0000   0.0000   0.0000
     0.0000   0.0000   0.0000   0.0000   0.0000   0.0000   0.0000   0.0000
     0.0000   0.0000   0.0000   0.0000   0.0000   0.0000   0.0000   0.0000

          k = 0.3333-0.5951 0.0000 (  3004 PWs)   bands (ev):

   -31.3583 -31.3583 -13.0748 -13.0713 -13.0411 -13.0319 -13.0112 -13.0051
   -12.9960 -12.9934 -12.9850 -12.9799 -11.9096 -11.8590 -11.7434 -11.6234
   -11.5272 -11.4598  -7.6930  -7.6496  -7.2550  -7.1004  -7.0530  -6.9406
    -0.3071  -0.2943   4.8781   5.2627   5.3291   5.6904   5.9665   6.2735
     6.4661   6.6519   6.6846   7.0861   7.2930   7.3952   7.5361   7.6973
     7.7889   7.8118   8.5731   8.6567  12.2720  12.5058  13.3603  13.6880
    13.9242  14.1443  14.4552  14.8757  15.1241  15.3033  15.5455  15.7424
    17.0579  17.3419  18.0775  18.3107  18.7209  18.8727  19.3980  19.6667

     occupation numbers 
     1.0000   1.0000   1.0000   1.0000   1.0000   1.0000   1.0000   1.0000
     1.0000   1.0000   1.0000   1.0000   1.0000   1.0000   1.0000   1.0000
     1.0000   1.0000   1.0000   1.0000   1.0000   1.0000   1.0000   1.0000
     1.0000   1.0000   1.0000   1.0000   1.0000   1.0000   1.0000   1.0000
     1.0000   1.0000   1.0000   1.0000   1.0000   1.0000   1.0000   1.0000
     1.0000   1.0000   1.0000   1.0000   0.0000   0.0000   0.0000   0.0000
     0.0000   0.0000   0.0000   0.0000   0.0000   0.0000   0.0000   0.0000
     0.0000   0.0000   0.0000   0.0000   0.0000   0.0000   0.0000   0.0000

          k = 0.3333-0.5951 0.4162 (  3002 PWs)   bands (ev):

   -31.3584 -31.3583 -13.0825 -13.0700 -13.0356 -13.0317 -13.0108 -13.0093
   -12.9971 -12.9934 -12.9838 -12.9812 -11.9088 -11.8180 -11.7814 -11.5807
   -11.5577 -11.4601  -7.7482  -7.7034  -7.1984  -7.0727  -7.0590  -6.9258
    -0.2865  -0.2770   4.9142   5.3697   5.5024   5.7251   5.7732   5.9852
     6.4475   6.7871   6.9427   6.9480   7.0910   7.3348   7.4780   7.6243
     7.6873   7.8077   8.6815   8.7939  12.3864  12.7534  12.8485  13.7226
    13.8820  14.4490  14.6557  14.8765  15.0346  15.3793  15.4271  15.6943
    17.0434  17.4144  17.9149  18.1285  18.6541  19.3022  19.7790  19.7984

     occupation numbers 
     1.0000   1.0000   1.0000   1.0000   1.0000   1.0000   1.0000   1.0000
     1.0000   1.0000   1.0000   1.0000   1.0000   1.0000   1.0000   1.0000
     1.0000   1.0000   1.0000   1.0000   1.0000   1.0000   1.0000   1.0000
     1.0000   1.0000   1.0000   1.0000   1.0000   1.0000   1.0000   1.0000
     1.0000   1.0000   1.0000   1.0000   1.0000   1.0000   1.0000   1.0000
     1.0000   1.0000   1.0000   1.0000   0.0000   0.0000   0.0000   0.0000
     0.0000   0.0000   0.0000   0.0000   0.0000   0.0000   0.0000   0.0000
     0.0000   0.0000   0.0000   0.0000   0.0000   0.0000   0.0000   0.0000

          k = 0.3333-0.5951-0.4162 (  3002 PWs)   bands (ev):

   -31.3584 -31.3583 -13.0825 -13.0700 -13.0355 -13.0317 -13.0108 -13.0093
   -12.9971 -12.9934 -12.9838 -12.9812 -11.9089 -11.8180 -11.7814 -11.5807
   -11.5576 -11.4602  -7.7484  -7.7033  -7.1983  -7.0726  -7.0590  -6.9259
    -0.2865  -0.2770   4.9142   5.3696   5.5025   5.7251   5.7731   5.9851
     6.4476   6.7872   6.9426   6.9481   7.0910   7.3349   7.4780   7.6243
     7.6873   7.8075   8.6814   8.7940  12.3865  12.7534  12.8484  13.7225
    13.8819  14.4490  14.6557  14.8765  15.0346  15.3794  15.4271  15.6943
    17.0433  17.4144  17.9149  18.1285  18.6541  19.3022  19.7789  19.7984

     occupation numbers 
     1.0000   1.0000   1.0000   1.0000   1.0000   1.0000   1.0000   1.0000
     1.0000   1.0000   1.0000   1.0000   1.0000   1.0000   1.0000   1.0000
     1.0000   1.0000   1.0000   1.0000   1.0000   1.0000   1.0000   1.0000
     1.0000   1.0000   1.0000   1.0000   1.0000   1.0000   1.0000   1.0000
     1.0000   1.0000   1.0000   1.0000   1.0000   1.0000   1.0000   1.0000
     1.0000   1.0000   1.0000   1.0000   0.0000   0.0000   0.0000   0.0000
     0.0000   0.0000   0.0000   0.0000   0.0000   0.0000   0.0000   0.0000
     0.0000   0.0000   0.0000   0.0000   0.0000   0.0000   0.0000   0.0000

     highest occupied, lowest unoccupied level (ev):     8.9082   12.1900

!    total energy              =    -796.03542378 Ry
     estimated scf accuracy    <       0.00000014 Ry

     The total energy is the sum of the following terms:
     one-electron contribution =    -182.16932261 Ry
     hartree contribution      =     146.31107463 Ry
     xc contribution           =    -218.12260425 Ry
     ewald contribution        =    -484.89299711 Ry
     one-center paw contrib.   =     -57.16157444 Ry
      -> PAW hartree energy AE =     174.90993976 Ry
      -> PAW hartree energy PS =    -174.30920932 Ry
      -> PAW xc energy AE      =    -102.57794930 Ry
      -> PAW xc energy PS      =      44.81564442 Ry
      -> total E_H with PAW    =     146.91180507 Ry
      -> total E_XC with PAW   =    -275.88490913 Ry

     convergence has been achieved in   9 iterations

     Writing all to output data dir calculations_bands/myprefix.save/
 
     init_run     :    295.86s CPU     11.32s WALL (       1 calls)
     electrons    :   4252.63s CPU    134.75s WALL (       1 calls)

     Called by init_run:
     wfcinit      :    186.37s CPU      5.91s WALL (       1 calls)
     wfcinit:atom :      0.56s CPU      0.02s WALL (      14 calls)
     wfcinit:wfcr :    181.27s CPU      5.73s WALL (      14 calls)
     potinit      :     17.93s CPU      0.59s WALL (       1 calls)
     hinit0       :     85.68s CPU      4.58s WALL (       1 calls)

     Called by electrons:
     c_bands      :   3459.87s CPU    109.20s WALL (       9 calls)
     sum_band     :    724.71s CPU     23.27s WALL (       9 calls)
     v_of_rho     :      9.30s CPU      0.31s WALL (      10 calls)
     v_h          :      0.71s CPU      0.02s WALL (      10 calls)
     v_xc         :      8.56s CPU      0.28s WALL (      10 calls)
     newd         :     40.47s CPU      1.37s WALL (      10 calls)
     PAW_pot      :     18.61s CPU      0.61s WALL (      10 calls)
     mix_rho      :      2.44s CPU      0.08s WALL (       9 calls)

     Called by c_bands:
     init_us_2    :      3.69s CPU      0.12s WALL (     266 calls)
     init_us_2:cp :      3.25s CPU      0.11s WALL (     266 calls)
     cegterg      :   3441.18s CPU    108.58s WALL (     126 calls)

     Called by sum_band:
     sum_band:wei :      0.01s CPU      0.00s WALL (       9 calls)
     sum_band:loo :    679.28s CPU     21.49s WALL (       9 calls)
     sum_band:buf :      4.16s CPU      0.14s WALL (     126 calls)
     sum_band:ini :      1.50s CPU      0.05s WALL (     126 calls)
     sum_band:cal :      2.04s CPU      0.07s WALL (     126 calls)
     sum_band:bec :      0.70s CPU      0.02s WALL (     126 calls)
     addusdens    :     43.77s CPU      1.73s WALL (       9 calls)
     addusd:skk   :      0.35s CPU      0.02s WALL (      27 calls)
     addusd:dgemm :      1.88s CPU      0.33s WALL (      27 calls)
     addusd:qvan2 :     24.74s CPU      0.80s WALL (      27 calls)

     Called by *egterg:
     cdiaghg      :     88.78s CPU      2.94s WALL (     584 calls)
     cegterg:over :      5.00s CPU      0.16s WALL (     458 calls)
     cegterg:upda :      5.51s CPU      0.18s WALL (     458 calls)
     cegterg:last :      8.14s CPU      0.29s WALL (     252 calls)
     h_psi        :   3496.17s CPU    110.13s WALL (     598 calls)
     s_psi        :      3.87s CPU      0.13s WALL (     598 calls)
     g_psi        :      0.61s CPU      0.02s WALL (     458 calls)

     Called by h_psi:
     h_psi:calbec :      6.93s CPU      0.24s WALL (     598 calls)
     vloc_psi     :   3478.78s CPU    109.55s WALL (     598 calls)
     add_vuspsi   :      6.89s CPU      0.22s WALL (     598 calls)

     General routines
     calbec       :      7.98s CPU      0.27s WALL (     724 calls)
     fft          :     72.49s CPU      3.21s WALL (     128 calls)
     ffts         :     13.72s CPU      0.45s WALL (      19 calls)
     fftw         :   4028.06s CPU    127.11s WALL (   48596 calls)
     interpolate  :     14.37s CPU      0.47s WALL (      10 calls)
 
     Parallel routines

     PAW routines
     PAW_pot      :     18.61s CPU      0.61s WALL (      10 calls)
 
     PWSCF        :      1h16m CPU   2m27.14s WALL

 
   This run was terminated on:   4:16:12   3Jun2023            

=------------------------------------------------------------------------------=
   JOB DONE.
=------------------------------------------------------------------------------=
