
     Program PWSCF v.7.0 starts on  6Jun2023 at 14: 0:52 

     This program is part of the open-source Quantum ESPRESSO suite
     for quantum simulation of materials; please cite
         "P. Giannozzi et al., J. Phys.:Condens. Matter 21 395502 (2009);
         "P. Giannozzi et al., J. Phys.:Condens. Matter 29 465901 (2017);
         "P. Giannozzi et al., J. Chem. Phys. 152 154105 (2020);
          URL http://www.quantum-espresso.org", 
     in publications or presentations arising from this work. More details at
     http://www.quantum-espresso.org/quote

     Parallel version (MPI & OpenMP), running on      32 processor cores
     Number of MPI processes:                 8
     Threads/MPI process:                     4

     MPI processes distributed on     1 nodes
     K-points division:     npool     =       2
     R & G space division:  proc/nbgrp/npool/nimage =       4
     47151 MiB available memory on the printing compute node when the environment starts
 
     Reading input from espresso_16884.pwi
Warning: card &CELL ignored
Warning: card / ignored

     Current dimensions of program PWSCF are:
     Max number of different atomic species (ntypx) = 10
     Max number of k-points (npk) =  40000
     Max angular momentum in pseudopotentials (lmaxx) =  4
     Message from routine setup:
     using ibrav=0 with symmetry is DISCOURAGED, use correct ibrav instead

     Subspace diagonalization in iterative solution of the eigenvalue problem:
     one sub-group per band group will be used
     scalapack distributed-memory algorithm (size of sub-group:  2*  2 procs)

 
     Parallelization info
     --------------------
     sticks:   dense  smooth     PW     G-vecs:    dense   smooth      PW
     Min         365     184     58                 5599     1988     363
     Max         367     185     59                 5600     1989     364
     Sum        1463     737    233                22397     7953    1453
 
     Using Slab Decomposition
 


     bravais-lattice index     =            0
     lattice parameter (alat)  =       9.4768  a.u.
     unit-cell volume          =     356.6510 (a.u.)^3
     number of atoms/cell      =            3
     number of atomic types    =            2
     number of electrons       =        48.00
     number of Kohn-Sham states=           64
     kinetic-energy cutoff     =      30.0000  Ry
     charge density cutoff     =     240.0000  Ry
     scf convergence threshold =      1.0E-06
     mixing beta               =       0.7000
     number of iterations used =            8  plain     mixing
     Exchange-correlation= PBE
                           (   1   4   3   4   0   0   0)

     celldm(1)=   9.476842  celldm(2)=   0.000000  celldm(3)=   0.000000
     celldm(4)=   0.000000  celldm(5)=   0.000000  celldm(6)=   0.000000

     crystal axes: (cart. coord. in units of alat)
               a(1) = (   1.000000   0.000000   0.000000 )  
               a(2) = (   0.519206   0.854649   0.000000 )  
               a(3) = (  -0.759603  -0.427325   0.490303 )  

     reciprocal axes: (cart. coord. in units 2 pi/alat)
               b(1) = (  1.000000 -0.607507  1.019777 )  
               b(2) = (  0.000000  1.170071  1.019777 )  
               b(3) = (  0.000000  0.000000  2.039555 )  


     PseudoPot. # 1 for Zr read from file:
     /home/pragov/projects/rrg-bengioy-ad/pragov/crystal_structure_design/SSSP/Zr_pbe_v1.uspp.F.UPF
     MD5 check sum: 5db81b1e868ab7776c4564c113de050b
     Pseudo is Ultrasoft + core correction, Zval = 12.0
     Generated by new atomic code, or converted to UPF format
     Using radial grid of  887 points,  6 beta functions with: 
                l(1) =   0
                l(2) =   0
                l(3) =   1
                l(4) =   1
                l(5) =   2
                l(6) =   2
     Q(r) pseudized with  6 coefficients,  rinner =    1.200   1.200   1.200
                                                       1.200   1.200

     PseudoPot. # 2 for Pd read from file:
     /home/pragov/projects/rrg-bengioy-ad/pragov/crystal_structure_design/SSSP/Pd_ONCV_PBE-1.0.oncvpsp.upf
     MD5 check sum: eb77f42b51d86fb18e25f68156a31cf1
     Pseudo is Norm-conserving, Zval = 18.0
     Generated using ONCVPSP code by D. R. Hamann
     Using radial grid of 1410 points,  6 beta functions with: 
                l(1) =   0
                l(2) =   0
                l(3) =   1
                l(4) =   1
                l(5) =   2
                l(6) =   2

     atomic species   valence    mass     pseudopotential
        Zr            12.00    91.22400     Zr( 1.00)
        Pd            18.00   106.42000     Pd( 1.00)

      4 Sym. Ops., with inversion, found


                                    s                        frac. trans.

      isym =  1     identity                                     

 cryst.   s( 1) = (     1          0          0      )
                  (     0          1          0      )
                  (     0          0          1      )

 cart.    s( 1) = (  1.0000000  0.0000000 -0.0000000 )
                  (  0.0000000  1.0000000 -0.0000000 )
                  (  0.0000000  0.0000000  1.0000000 )


      isym =  2     180 deg rotation - cart. axis [0,0,1]        

 cryst.   s( 2) = (    -1          0          0      )
                  (     0         -1          0      )
                  (     1          1          1      )

 cart.    s( 2) = ( -1.0000000 -0.0000000  0.0000000 )
                  (  0.0000000 -1.0000000  0.0000000 )
                  (  0.0000000  0.0000000  1.0000000 )


      isym =  3     inversion                                    

 cryst.   s( 3) = (    -1          0          0      )
                  (     0         -1          0      )
                  (     0          0         -1      )

 cart.    s( 3) = ( -1.0000000 -0.0000000  0.0000000 )
                  (  0.0000000 -1.0000000  0.0000000 )
                  (  0.0000000  0.0000000 -1.0000000 )


      isym =  4     inv. 180 deg rotation - cart. axis [0,0,1]   

 cryst.   s( 4) = (     1          0          0      )
                  (     0          1          0      )
                  (    -1         -1         -1      )

 cart.    s( 4) = (  1.0000000  0.0000000 -0.0000000 )
                  (  0.0000000  1.0000000 -0.0000000 )
                  (  0.0000000  0.0000000 -1.0000000 )


   Cartesian axes

     site n.     atom                  positions (alat units)
         1           Zr  tau(   1) = (   0.0000000   0.0000000   0.0000000  )
         2           Pd  tau(   2) = (   1.0066804   0.5663214   0.0000000  )
         3           Pd  tau(   3) = (   0.5125253   0.2883279   0.0000000  )

   Crystallographic axes

     site n.     atom                  positions (cryst. coord.)
         1           Zr  tau(   1) = (  0.0000000  0.0000000  0.0000000  )
         2           Pd  tau(   2) = (  0.6626360  0.6626360  0.0000000  )
         3           Pd  tau(   3) = (  0.3373640  0.3373640  0.0000000  )

     number of k points=    10
                       cart. coord. in units 2pi/alat
        k(    1) = (   0.0000000   0.0000000   0.0000000), wk =   0.0740741
        k(    2) = (   0.0000000   0.0000000   0.6798516), wk =   0.1481481
        k(    3) = (   0.0000000   0.3900235   0.3399258), wk =   0.2962963
        k(    4) = (   0.0000000   0.3900235   1.0197773), wk =   0.1481481
        k(    5) = (   0.3333333  -0.2025024   0.3399258), wk =   0.2962963
        k(    6) = (   0.3333333  -0.2025024   1.0197773), wk =   0.1481481
        k(    7) = (   0.3333333   0.1875211   0.6798516), wk =   0.2962963
        k(    8) = (   0.3333333   0.1875211  -0.0000000), wk =   0.1481481
        k(    9) = (   0.3333333  -0.5925260  -0.0000000), wk =   0.1481481
        k(   10) = (   0.3333333  -0.5925260   0.6798516), wk =   0.2962963

                       cryst. coord.
        k(    1) = (   0.0000000   0.0000000   0.0000000), wk =   0.0740741
        k(    2) = (   0.0000000   0.0000000   0.3333333), wk =   0.1481481
        k(    3) = (   0.0000000   0.3333333   0.0000000), wk =   0.2962963
        k(    4) = (   0.0000000   0.3333333   0.3333333), wk =   0.1481481
        k(    5) = (   0.3333333   0.0000000  -0.0000000), wk =   0.2962963
        k(    6) = (   0.3333333   0.0000000   0.3333333), wk =   0.1481481
        k(    7) = (   0.3333333   0.3333333  -0.0000000), wk =   0.2962963
        k(    8) = (   0.3333333   0.3333333  -0.3333333), wk =   0.1481481
        k(    9) = (   0.3333333  -0.3333333  -0.0000000), wk =   0.1481481
        k(   10) = (   0.3333333  -0.3333333   0.3333333), wk =   0.2962963

     Dense  grid:    22397 G-vectors     FFT dimensions: (  48,  48,  48)

     Smooth grid:     7953 G-vectors     FFT dimensions: (  36,  36,  36)

     Dynamical RAM for                 wfc:       0.24 MB

     Dynamical RAM for     wfc (w. buffer):       1.45 MB

     Dynamical RAM for           str. fact:       0.17 MB

     Dynamical RAM for           local pot:       0.00 MB

     Dynamical RAM for          nlocal pot:       0.20 MB

     Dynamical RAM for                qrad:       2.49 MB

     Dynamical RAM for          rho,v,vnew:       0.89 MB

     Dynamical RAM for               rhoin:       0.30 MB

     Dynamical RAM for            rho*nmix:       1.37 MB

     Dynamical RAM for           G-vectors:       0.34 MB

     Dynamical RAM for          h,s,v(r/c):       0.19 MB

     Dynamical RAM for          <psi|beta>:       0.05 MB

     Dynamical RAM for                 psi:       0.48 MB

     Dynamical RAM for                hpsi:       0.48 MB

     Dynamical RAM for                spsi:       0.48 MB

     Dynamical RAM for      wfcinit/wfcrot:       0.58 MB

     Dynamical RAM for           addusdens:       8.03 MB

     Estimated static dynamical RAM per process >       7.14 MB

     Estimated max dynamical RAM per process >      16.54 MB

     Estimated total dynamical RAM >     126.86 MB

     Check: negative core charge=   -0.000003

     Initial potential from superposition of free atoms

     starting charge      47.9971, renormalised to      48.0000

     negative rho (up, down):  6.001E-02 0.000E+00
     Starting wfcs are   33 randomized atomic wfcs +   31 random wfcs

     total cpu time spent up to now is        1.3 secs

     Self-consistent Calculation

     iteration #  1     ecut=    30.00 Ry     beta= 0.70
     Davidson diagonalization with overlap

---- Real-time Memory Report at c_bands before calling an iterative solver
           142 MiB given to the printing process from OS
             0 MiB allocation reported by mallinfo(arena+hblkhd)
         46939 MiB available memory on the node where the printing process lives
------------------
     ethr =  1.00E-02,  avg # of iterations =  6.5

     Threshold (ethr) on eigenvalues was too large:
     Diagonalizing with lowered threshold

     Davidson diagonalization with overlap

---- Real-time Memory Report at c_bands before calling an iterative solver
           156 MiB given to the printing process from OS
             0 MiB allocation reported by mallinfo(arena+hblkhd)
         46894 MiB available memory on the node where the printing process lives
------------------
     ethr =  6.69E-04,  avg # of iterations =  1.0

     negative rho (up, down):  6.201E-02 0.000E+00

     total cpu time spent up to now is        3.1 secs

     total energy              =    -605.18047621 Ry
     estimated scf accuracy    <       0.32108973 Ry

     iteration #  2     ecut=    30.00 Ry     beta= 0.70
     Davidson diagonalization with overlap

---- Real-time Memory Report at c_bands before calling an iterative solver
           159 MiB given to the printing process from OS
             0 MiB allocation reported by mallinfo(arena+hblkhd)
         46867 MiB available memory on the node where the printing process lives
------------------
     ethr =  6.69E-04,  avg # of iterations =  2.8

     negative rho (up, down):  6.161E-02 0.000E+00

     total cpu time spent up to now is        3.5 secs

     total energy              =    -604.80959372 Ry
     estimated scf accuracy    <       3.16380369 Ry

     iteration #  3     ecut=    30.00 Ry     beta= 0.70
     Davidson diagonalization with overlap

---- Real-time Memory Report at c_bands before calling an iterative solver
           160 MiB given to the printing process from OS
             0 MiB allocation reported by mallinfo(arena+hblkhd)
         46863 MiB available memory on the node where the printing process lives
------------------
     ethr =  6.69E-04,  avg # of iterations =  2.1

     negative rho (up, down):  6.218E-02 0.000E+00

     total cpu time spent up to now is        3.9 secs

     total energy              =    -605.33634643 Ry
     estimated scf accuracy    <       0.09574199 Ry

     iteration #  4     ecut=    30.00 Ry     beta= 0.70
     Davidson diagonalization with overlap

---- Real-time Memory Report at c_bands before calling an iterative solver
           160 MiB given to the printing process from OS
             0 MiB allocation reported by mallinfo(arena+hblkhd)
         46866 MiB available memory on the node where the printing process lives
------------------
     ethr =  1.99E-04,  avg # of iterations =  1.0

     negative rho (up, down):  6.260E-02 0.000E+00

     total cpu time spent up to now is        4.2 secs

     total energy              =    -605.34069310 Ry
     estimated scf accuracy    <       0.01290684 Ry

     iteration #  5     ecut=    30.00 Ry     beta= 0.70
     Davidson diagonalization with overlap

---- Real-time Memory Report at c_bands before calling an iterative solver
           160 MiB given to the printing process from OS
             0 MiB allocation reported by mallinfo(arena+hblkhd)
         46865 MiB available memory on the node where the printing process lives
------------------
     ethr =  2.69E-05,  avg # of iterations =  2.3

     negative rho (up, down):  6.283E-02 0.000E+00

     total cpu time spent up to now is        4.6 secs

     total energy              =    -605.34148822 Ry
     estimated scf accuracy    <       0.00108756 Ry

     iteration #  6     ecut=    30.00 Ry     beta= 0.70
     Davidson diagonalization with overlap

---- Real-time Memory Report at c_bands before calling an iterative solver
           160 MiB given to the printing process from OS
             0 MiB allocation reported by mallinfo(arena+hblkhd)
         46864 MiB available memory on the node where the printing process lives
------------------
     ethr =  2.27E-06,  avg # of iterations =  6.0

     negative rho (up, down):  6.300E-02 0.000E+00

     total cpu time spent up to now is        5.1 secs

     total energy              =    -605.34157152 Ry
     estimated scf accuracy    <       0.00005464 Ry

     iteration #  7     ecut=    30.00 Ry     beta= 0.70
     Davidson diagonalization with overlap

---- Real-time Memory Report at c_bands before calling an iterative solver
           160 MiB given to the printing process from OS
             0 MiB allocation reported by mallinfo(arena+hblkhd)
         46864 MiB available memory on the node where the printing process lives
------------------
     ethr =  1.14E-07,  avg # of iterations =  1.0

     negative rho (up, down):  6.300E-02 0.000E+00

     total cpu time spent up to now is        5.4 secs

     total energy              =    -605.34158298 Ry
     estimated scf accuracy    <       0.00000911 Ry

     iteration #  8     ecut=    30.00 Ry     beta= 0.70
     Davidson diagonalization with overlap

---- Real-time Memory Report at c_bands before calling an iterative solver
           160 MiB given to the printing process from OS
             0 MiB allocation reported by mallinfo(arena+hblkhd)
         46865 MiB available memory on the node where the printing process lives
------------------
     ethr =  1.90E-08,  avg # of iterations =  1.0

     negative rho (up, down):  6.300E-02 0.000E+00

     total cpu time spent up to now is        5.7 secs

     End of self-consistent calculation

          k = 0.0000 0.0000 0.0000 (  1015 PWs)   bands (ev):

   -67.8527 -67.8302 -33.2877 -33.2877 -33.2521 -33.2275 -33.2275 -33.1334
   -31.4629  -9.4785  -9.3752  -9.3752  10.9470  13.5202  13.9418  14.1828
    14.2097  14.2564  14.9268  14.9268  15.1211  15.1211  16.0362  16.8452
    18.7460  19.0693  19.0693  21.1831  22.4434  25.5825  29.0749  29.0749
    29.9076  29.9367  29.9367  30.4233  32.6814  33.0912  33.0912  35.3596
    36.6000  40.7355  42.2117  42.2534  42.2534  42.5433  42.7654  43.5869
    45.4197  45.4197  45.9417  45.9417  46.5975  47.7247  48.0561  51.0237
    51.0237  51.2034  51.9816  55.4638  55.4638  56.7709  58.2834  58.3645

     occupation numbers 
     1.0000   1.0000   1.0000   1.0000   1.0000   1.0000   1.0000   1.0000
     1.0000   1.0000   1.0000   1.0000   1.0000   1.0000   1.0000   1.0000
     1.0000   1.0000   1.0000   1.0000   1.0000   1.0000   1.0000   1.0000
     0.0000   0.0000   0.0000   0.0000   0.0000   0.0000   0.0000   0.0000
     0.0000   0.0000   0.0000   0.0000   0.0000   0.0000   0.0000   0.0000
     0.0000   0.0000   0.0000   0.0000   0.0000   0.0000   0.0000   0.0000
     0.0000   0.0000   0.0000   0.0000   0.0000   0.0000   0.0000   0.0000
     0.0000   0.0000   0.0000   0.0000   0.0000   0.0000   0.0000   0.0000

          k = 0.0000 0.0000 0.6799 (   986 PWs)   bands (ev):

   -67.8455 -67.8358 -33.3056 -33.3008 -33.2429 -33.2249 -33.2193 -33.1387
   -31.4369  -9.5391  -9.5359  -9.4452  12.7691  13.4852  13.8257  14.1814
    14.3824  14.7274  14.9205  15.0857  15.6836  15.7979  16.3517  17.2811
    17.7239  19.5726  19.9099  20.1059  22.9719  25.5721  26.3941  26.8613
    27.5245  27.6583  28.2267  32.5470  33.0505  33.8336  36.2578  36.6329
    38.9480  39.6958  39.8419  40.3353  40.7963  41.0475  42.9863  45.1190
    45.9081  46.4810  46.8728  47.4600  48.1877  49.4150  50.0644  50.5342
    51.3467  51.7054  51.7596  52.4573  55.4971  56.0729  56.1138  56.4687

     occupation numbers 
     1.0000   1.0000   1.0000   1.0000   1.0000   1.0000   1.0000   1.0000
     1.0000   1.0000   1.0000   1.0000   1.0000   1.0000   1.0000   1.0000
     1.0000   1.0000   1.0000   1.0000   1.0000   1.0000   1.0000   1.0000
     0.0000   0.0000   0.0000   0.0000   0.0000   0.0000   0.0000   0.0000
     0.0000   0.0000   0.0000   0.0000   0.0000   0.0000   0.0000   0.0000
     0.0000   0.0000   0.0000   0.0000   0.0000   0.0000   0.0000   0.0000
     0.0000   0.0000   0.0000   0.0000   0.0000   0.0000   0.0000   0.0000
     0.0000   0.0000   0.0000   0.0000   0.0000   0.0000   0.0000   0.0000

          k = 0.0000 0.3900 0.3399 (   998 PWs)   bands (ev):

   -67.8472 -67.8349 -33.2942 -33.2772 -33.2728 -33.2408 -33.2093 -33.1364
   -31.4436  -9.5578  -9.4589  -9.3627  12.7208  13.0680  13.4972  13.8165
    14.2333  14.2849  14.9734  15.0549  15.4107  15.4895  16.0023  17.6329
    18.4976  19.0457  20.4355  21.0148  21.2345  23.2029  27.1885  27.9417
    29.1182  30.6259  31.0471  31.7169  33.3710  34.1719  34.4537  37.1409
    38.3941  38.6037  39.0384  40.4211  41.2039  41.7279  42.0792  42.8132
    45.1257  46.4098  47.1640  47.4447  48.7140  48.7885  49.8271  49.8562
    50.5975  51.6352  51.8988  53.1299  54.1629  54.9049  56.2107  57.4048

     occupation numbers 
     1.0000   1.0000   1.0000   1.0000   1.0000   1.0000   1.0000   1.0000
     1.0000   1.0000   1.0000   1.0000   1.0000   1.0000   1.0000   1.0000
     1.0000   1.0000   1.0000   1.0000   1.0000   1.0000   1.0000   1.0000
     0.0000   0.0000   0.0000   0.0000   0.0000   0.0000   0.0000   0.0000
     0.0000   0.0000   0.0000   0.0000   0.0000   0.0000   0.0000   0.0000
     0.0000   0.0000   0.0000   0.0000   0.0000   0.0000   0.0000   0.0000
     0.0000   0.0000   0.0000   0.0000   0.0000   0.0000   0.0000   0.0000
     0.0000   0.0000   0.0000   0.0000   0.0000   0.0000   0.0000   0.0000

          k = 0.0000 0.3900 1.0198 (   988 PWs)   bands (ev):

   -67.8432 -67.8382 -33.3090 -33.2945 -33.2594 -33.2186 -33.2070 -33.1487
   -31.4348  -9.5403  -9.5340  -9.4478  13.4445  13.4870  13.7163  13.8824
    14.3227  14.6330  14.8224  14.8400  15.4558  15.9610  16.3284  16.7090
    18.4113  20.1188  20.1322  20.6782  22.6112  22.7971  25.1833  27.0324
    29.0567  29.2669  30.3508  32.1377  32.3502  33.6984  35.6742  35.8187
    37.9277  38.5594  39.3121  41.1617  42.5281  43.4325  44.4197  44.8269
    45.1246  45.7880  46.8634  47.5270  47.6001  47.9308  48.4444  49.8488
    51.9223  52.0742  52.9488  53.2901  53.7586  54.3981  54.6378  55.3763

     occupation numbers 
     1.0000   1.0000   1.0000   1.0000   1.0000   1.0000   1.0000   1.0000
     1.0000   1.0000   1.0000   1.0000   1.0000   1.0000   1.0000   1.0000
     1.0000   1.0000   1.0000   1.0000   1.0000   1.0000   1.0000   1.0000
     0.0000   0.0000   0.0000   0.0000   0.0000   0.0000   0.0000   0.0000
     0.0000   0.0000   0.0000   0.0000   0.0000   0.0000   0.0000   0.0000
     0.0000   0.0000   0.0000   0.0000   0.0000   0.0000   0.0000   0.0000
     0.0000   0.0000   0.0000   0.0000   0.0000   0.0000   0.0000   0.0000
     0.0000   0.0000   0.0000   0.0000   0.0000   0.0000   0.0000   0.0000

          k = 0.3333-0.2025 0.3399 (   998 PWs)   bands (ev):

   -67.8472 -67.8349 -33.2942 -33.2772 -33.2728 -33.2408 -33.2093 -33.1364
   -31.4436  -9.5578  -9.4589  -9.3627  12.7208  13.0680  13.4972  13.8165
    14.2333  14.2849  14.9734  15.0549  15.4107  15.4895  16.0023  17.6329
    18.4976  19.0457  20.4355  21.0148  21.2345  23.2029  27.1885  27.9417
    29.1182  30.6259  31.0471  31.7169  33.3710  34.1719  34.4537  37.1409
    38.3941  38.6037  39.0384  40.4211  41.2039  41.7279  42.0792  42.8132
    45.1257  46.4098  47.1640  47.4447  48.7140  48.7885  49.8271  49.8562
    50.5975  51.6352  51.8988  53.1299  54.1629  54.9049  56.2107  57.4044

     occupation numbers 
     1.0000   1.0000   1.0000   1.0000   1.0000   1.0000   1.0000   1.0000
     1.0000   1.0000   1.0000   1.0000   1.0000   1.0000   1.0000   1.0000
     1.0000   1.0000   1.0000   1.0000   1.0000   1.0000   1.0000   1.0000
     0.0000   0.0000   0.0000   0.0000   0.0000   0.0000   0.0000   0.0000
     0.0000   0.0000   0.0000   0.0000   0.0000   0.0000   0.0000   0.0000
     0.0000   0.0000   0.0000   0.0000   0.0000   0.0000   0.0000   0.0000
     0.0000   0.0000   0.0000   0.0000   0.0000   0.0000   0.0000   0.0000
     0.0000   0.0000   0.0000   0.0000   0.0000   0.0000   0.0000   0.0000

          k = 0.3333-0.2025 1.0198 (   988 PWs)   bands (ev):

   -67.8432 -67.8382 -33.3090 -33.2945 -33.2594 -33.2186 -33.2070 -33.1487
   -31.4348  -9.5403  -9.5340  -9.4478  13.4445  13.4870  13.7163  13.8824
    14.3227  14.6330  14.8224  14.8400  15.4558  15.9610  16.3284  16.7090
    18.4113  20.1188  20.1322  20.6782  22.6112  22.7971  25.1833  27.0324
    29.0567  29.2669  30.3508  32.1377  32.3502  33.6984  35.6742  35.8187
    37.9277  38.5594  39.3121  41.1617  42.5281  43.4325  44.4197  44.8269
    45.1246  45.7880  46.8634  47.5270  47.6001  47.9308  48.4444  49.8488
    51.9223  52.0742  52.9488  53.2901  53.7586  54.3981  54.6378  55.3763

     occupation numbers 
     1.0000   1.0000   1.0000   1.0000   1.0000   1.0000   1.0000   1.0000
     1.0000   1.0000   1.0000   1.0000   1.0000   1.0000   1.0000   1.0000
     1.0000   1.0000   1.0000   1.0000   1.0000   1.0000   1.0000   1.0000
     0.0000   0.0000   0.0000   0.0000   0.0000   0.0000   0.0000   0.0000
     0.0000   0.0000   0.0000   0.0000   0.0000   0.0000   0.0000   0.0000
     0.0000   0.0000   0.0000   0.0000   0.0000   0.0000   0.0000   0.0000
     0.0000   0.0000   0.0000   0.0000   0.0000   0.0000   0.0000   0.0000
     0.0000   0.0000   0.0000   0.0000   0.0000   0.0000   0.0000   0.0000

          k = 0.3333 0.1875 0.6799 (   988 PWs)   bands (ev):

   -67.8432 -67.8382 -33.3090 -33.2945 -33.2594 -33.2186 -33.2070 -33.1487
   -31.4348  -9.5403  -9.5340  -9.4478  13.4445  13.4870  13.7163  13.8824
    14.3227  14.6330  14.8224  14.8400  15.4558  15.9610  16.3284  16.7090
    18.4113  20.1188  20.1322  20.6782  22.6112  22.7971  25.1833  27.0324
    29.0567  29.2669  30.3508  32.1377  32.3502  33.6984  35.6742  35.8187
    37.9277  38.5594  39.3121  41.1617  42.5281  43.4325  44.4197  44.8269
    45.1246  45.7880  46.8634  47.5270  47.6001  47.9308  48.4444  49.8488
    51.9223  52.0742  52.9488  53.2901  53.7586  54.3981  54.6378  55.3763

     occupation numbers 
     1.0000   1.0000   1.0000   1.0000   1.0000   1.0000   1.0000   1.0000
     1.0000   1.0000   1.0000   1.0000   1.0000   1.0000   1.0000   1.0000
     1.0000   1.0000   1.0000   1.0000   1.0000   1.0000   1.0000   1.0000
     0.0000   0.0000   0.0000   0.0000   0.0000   0.0000   0.0000   0.0000
     0.0000   0.0000   0.0000   0.0000   0.0000   0.0000   0.0000   0.0000
     0.0000   0.0000   0.0000   0.0000   0.0000   0.0000   0.0000   0.0000
     0.0000   0.0000   0.0000   0.0000   0.0000   0.0000   0.0000   0.0000
     0.0000   0.0000   0.0000   0.0000   0.0000   0.0000   0.0000   0.0000

          k = 0.3333 0.1875-0.0000 (   978 PWs)   bands (ev):

   -67.8489 -67.8339 -33.2924 -33.2924 -33.2276 -33.2190 -33.2190 -33.1581
   -31.4547  -9.4894  -9.3735  -9.3735  12.0340  12.8136  13.0856  14.1292
    14.4718  14.5016  14.5016  14.9790  15.5311  15.5311  15.6658  16.6855
    18.5669  20.0269  20.0269  21.2775  21.3253  25.0934  25.0934  27.4920
    30.9453  32.1944  32.9543  33.5237  33.5237  33.6150  36.1570  36.1570
    36.7395  37.2211  39.2418  39.2418  40.9112  40.9589  42.3142  42.3142
    43.4365  45.9104  47.1489  47.3170  48.7474  48.7474  49.1956  50.1606
    50.1606  51.9217  53.9606  53.9606  55.1688  55.3163  55.8705  57.2116

     occupation numbers 
     1.0000   1.0000   1.0000   1.0000   1.0000   1.0000   1.0000   1.0000
     1.0000   1.0000   1.0000   1.0000   1.0000   1.0000   1.0000   1.0000
     1.0000   1.0000   1.0000   1.0000   1.0000   1.0000   1.0000   1.0000
     0.0000   0.0000   0.0000   0.0000   0.0000   0.0000   0.0000   0.0000
     0.0000   0.0000   0.0000   0.0000   0.0000   0.0000   0.0000   0.0000
     0.0000   0.0000   0.0000   0.0000   0.0000   0.0000   0.0000   0.0000
     0.0000   0.0000   0.0000   0.0000   0.0000   0.0000   0.0000   0.0000
     0.0000   0.0000   0.0000   0.0000   0.0000   0.0000   0.0000   0.0000

          k = 0.3333-0.5925-0.0000 (   986 PWs)   bands (ev):

   -67.8455 -67.8358 -33.3056 -33.3008 -33.2429 -33.2248 -33.2193 -33.1387
   -31.4369  -9.5391  -9.5359  -9.4452  12.7691  13.4852  13.8257  14.1814
    14.3824  14.7274  14.9205  15.0857  15.6836  15.7979  16.3517  17.2811
    17.7239  19.5726  19.9099  20.1059  22.9719  25.5721  26.3941  26.8613
    27.5245  27.6583  28.2267  32.5470  33.0505  33.8336  36.2578  36.6329
    38.9480  39.6958  39.8419  40.3353  40.7963  41.0475  42.9863  45.1190
    45.9081  46.4810  46.8728  47.4600  48.1877  49.4150  50.0644  50.5342
    51.3467  51.7054  51.7596  52.4573  55.4970  56.0729  56.1138  56.4687

     occupation numbers 
     1.0000   1.0000   1.0000   1.0000   1.0000   1.0000   1.0000   1.0000
     1.0000   1.0000   1.0000   1.0000   1.0000   1.0000   1.0000   1.0000
     1.0000   1.0000   1.0000   1.0000   1.0000   1.0000   1.0000   1.0000
     0.0000   0.0000   0.0000   0.0000   0.0000   0.0000   0.0000   0.0000
     0.0000   0.0000   0.0000   0.0000   0.0000   0.0000   0.0000   0.0000
     0.0000   0.0000   0.0000   0.0000   0.0000   0.0000   0.0000   0.0000
     0.0000   0.0000   0.0000   0.0000   0.0000   0.0000   0.0000   0.0000
     0.0000   0.0000   0.0000   0.0000   0.0000   0.0000   0.0000   0.0000

          k = 0.3333-0.5925 0.6799 (   988 PWs)   bands (ev):

   -67.8425 -67.8396 -33.3109 -33.2757 -33.2571 -33.2338 -33.2009 -33.1504
   -31.4401  -9.5563  -9.4642  -9.3618  12.9564  12.9739  13.3771  13.6205
    13.7343  13.8675  15.7610  15.8079  16.1715  16.2526  16.3473  16.3770
    18.1926  19.6142  19.8704  19.9173  20.9822  21.7090  28.5089  29.4049
    30.0081  31.2387  32.0413  32.1544  32.4301  33.3585  36.1715  36.6109
    37.2297  37.3406  39.0269  39.1914  41.1952  41.6541  42.3966  44.5543
    44.5900  44.9948  45.1245  46.9817  47.2851  48.1792  50.1449  51.4674
    51.8954  52.3039  53.3370  53.4223  54.6642  54.8779  55.8625  57.4053

     occupation numbers 
     1.0000   1.0000   1.0000   1.0000   1.0000   1.0000   1.0000   1.0000
     1.0000   1.0000   1.0000   1.0000   1.0000   1.0000   1.0000   1.0000
     1.0000   1.0000   1.0000   1.0000   1.0000   1.0000   1.0000   1.0000
     0.0000   0.0000   0.0000   0.0000   0.0000   0.0000   0.0000   0.0000
     0.0000   0.0000   0.0000   0.0000   0.0000   0.0000   0.0000   0.0000
     0.0000   0.0000   0.0000   0.0000   0.0000   0.0000   0.0000   0.0000
     0.0000   0.0000   0.0000   0.0000   0.0000   0.0000   0.0000   0.0000
     0.0000   0.0000   0.0000   0.0000   0.0000   0.0000   0.0000   0.0000

     highest occupied, lowest unoccupied level (ev):    17.6329   17.7239

!    total energy              =    -605.34158373 Ry
     estimated scf accuracy    <       0.00000021 Ry

     The total energy is the sum of the following terms:
     one-electron contribution =    -208.72718172 Ry
     hartree contribution      =     128.77948493 Ry
     xc contribution           =     -67.29057735 Ry
     ewald contribution        =    -458.10330960 Ry

     convergence has been achieved in   8 iterations

     Writing all to output data dir calculations_bands/myprefix.save/
 
     init_run     :      3.62s CPU      1.19s WALL (       1 calls)
     electrons    :     16.87s CPU      4.47s WALL (       1 calls)

     Called by init_run:
     wfcinit      :      0.69s CPU      0.24s WALL (       1 calls)
     wfcinit:atom :      0.00s CPU      0.00s WALL (       5 calls)
     wfcinit:wfcr :      0.67s CPU      0.23s WALL (       5 calls)
     potinit      :      0.98s CPU      0.30s WALL (       1 calls)
     hinit0       :      1.86s CPU      0.61s WALL (       1 calls)

     Called by electrons:
     c_bands      :     13.68s CPU      3.59s WALL (       9 calls)
     sum_band     :      2.42s CPU      0.65s WALL (       9 calls)
     v_of_rho     :      0.29s CPU      0.08s WALL (       9 calls)
     v_h          :      0.02s CPU      0.01s WALL (       9 calls)
     v_xc         :      0.27s CPU      0.08s WALL (       9 calls)
     newd         :      0.38s CPU      0.11s WALL (       9 calls)
     mix_rho      :      0.04s CPU      0.01s WALL (       9 calls)

     Called by c_bands:
     init_us_2    :      0.06s CPU      0.02s WALL (      95 calls)
     init_us_2:cp :      0.05s CPU      0.01s WALL (      95 calls)
     cegterg      :     11.83s CPU      3.10s WALL (      45 calls)

     Called by sum_band:
     sum_band:wei :      0.00s CPU      0.00s WALL (       9 calls)
     sum_band:loo :      1.75s CPU      0.46s WALL (       9 calls)
     sum_band:buf :      0.01s CPU      0.00s WALL (      45 calls)
     sum_band:ini :      0.03s CPU      0.01s WALL (      45 calls)
     sum_band:cal :      0.04s CPU      0.01s WALL (      45 calls)
     sum_band:bec :      0.01s CPU      0.00s WALL (      45 calls)
     addusdens    :      0.28s CPU      0.09s WALL (       9 calls)
     addusd:skk   :      0.00s CPU      0.00s WALL (       9 calls)
     addusd:dgemm :      0.02s CPU      0.02s WALL (       9 calls)
     addusd:qvan2 :      0.21s CPU      0.06s WALL (       9 calls)

     Called by *egterg:
     cdiaghg      :      3.07s CPU      0.80s WALL (     176 calls)
     cegterg:over :      0.38s CPU      0.10s WALL (     136 calls)
     cegterg:upda :      0.30s CPU      0.08s WALL (     136 calls)
     cegterg:last :      0.45s CPU      0.12s WALL (      75 calls)
     cdiaghg:chol :      0.18s CPU      0.05s WALL (     176 calls)
     cdiaghg:inve :      0.04s CPU      0.01s WALL (     176 calls)
     cdiaghg:para :      0.65s CPU      0.17s WALL (     352 calls)
     h_psi        :      8.04s CPU      2.17s WALL (     186 calls)
     s_psi        :      0.04s CPU      0.01s WALL (     186 calls)
     g_psi        :      0.01s CPU      0.00s WALL (     136 calls)

     Called by h_psi:
     h_psi:calbec :      0.12s CPU      0.03s WALL (     186 calls)
     vloc_psi     :      7.84s CPU      2.11s WALL (     186 calls)
     add_vuspsi   :      0.06s CPU      0.02s WALL (     186 calls)

     General routines
     calbec       :      0.16s CPU      0.04s WALL (     231 calls)
     fft          :      1.32s CPU      0.40s WALL (     116 calls)
     ffts         :      0.82s CPU      0.25s WALL (      18 calls)
     fftw         :      7.80s CPU      2.08s WALL (   16484 calls)
     interpolate  :      0.83s CPU      0.25s WALL (       9 calls)
 
     Parallel routines
 
     PWSCF        :     21.74s CPU      6.18s WALL

 
   This run was terminated on:  14: 0:58   6Jun2023            

=------------------------------------------------------------------------------=
   JOB DONE.
=------------------------------------------------------------------------------=
