
     Program PWSCF v.7.0 starts on  7Jun2023 at  9:34: 8 

     This program is part of the open-source Quantum ESPRESSO suite
     for quantum simulation of materials; please cite
         "P. Giannozzi et al., J. Phys.:Condens. Matter 21 395502 (2009);
         "P. Giannozzi et al., J. Phys.:Condens. Matter 29 465901 (2017);
         "P. Giannozzi et al., J. Chem. Phys. 152 154105 (2020);
          URL http://www.quantum-espresso.org", 
     in publications or presentations arising from this work. More details at
     http://www.quantum-espresso.org/quote

     Parallel version (MPI & OpenMP), running on      32 processor cores
     Number of MPI processes:                 8
     Threads/MPI process:                     4

     MPI processes distributed on     1 nodes
     K-points division:     npool     =       2
     R & G space division:  proc/nbgrp/npool/nimage =       4
     124485 MiB available memory on the printing compute node when the environment starts
 
     Reading input from espresso_9719.pwi
Warning: card &CELL ignored
Warning: card / ignored

     Current dimensions of program PWSCF are:
     Max number of different atomic species (ntypx) = 10
     Max number of k-points (npk) =  40000
     Max angular momentum in pseudopotentials (lmaxx) =  4
     file Fe.pbe-spn-kjpaw_psl.0.2.1.UPF: wavefunction(s)  3D renormalized
     Message from routine setup:
     using ibrav=0 with symmetry is DISCOURAGED, use correct ibrav instead

     Subspace diagonalization in iterative solution of the eigenvalue problem:
     one sub-group per band group will be used
     scalapack distributed-memory algorithm (size of sub-group:  2*  2 procs)

 
     Parallelization info
     --------------------
     sticks:   dense  smooth     PW     G-vecs:    dense   smooth      PW
     Min         458     230     71                 8054     2838     498
     Max         459     231     72                 8056     2839     499
     Sum        1835     921    287                32221    11355    1993
 
     Using Slab Decomposition
 


     bravais-lattice index     =            0
     lattice parameter (alat)  =      10.5255  a.u.
     unit-cell volume          =     513.0758 (a.u.)^3
     number of atoms/cell      =            5
     number of atomic types    =            3
     number of electrons       =        58.00
     number of Kohn-Sham states=           64
     kinetic-energy cutoff     =      30.0000  Ry
     charge density cutoff     =     240.0000  Ry
     scf convergence threshold =      1.0E-06
     mixing beta               =       0.7000
     number of iterations used =            8  plain     mixing
     Exchange-correlation= PBE
                           (   1   4   3   4   0   0   0)

     celldm(1)=  10.525529  celldm(2)=   0.000000  celldm(3)=   0.000000
     celldm(4)=   0.000000  celldm(5)=   0.000000  celldm(6)=   0.000000

     crystal axes: (cart. coord. in units of alat)
               a(1) = (   1.000000   0.000000   0.000000 )  
               a(2) = (   0.490281   0.871564   0.000000 )  
               a(3) = (  -0.745141  -0.435782   0.504836 )  

     reciprocal axes: (cart. coord. in units 2 pi/alat)
               b(1) = (  1.000000 -0.562530  0.990421 )  
               b(2) = (  0.000000  1.147362  0.990421 )  
               b(3) = (  0.000000  0.000000  1.980841 )  


     PseudoPot. # 1 for Gd read from file:
     /home/pragov/projects/rrg-bengioy-ad/pragov/crystal_structure_design/SSSP/Gd.GGA-PBE-paw-v1.0.UPF
     MD5 check sum: 3e8e0d208da550914ae52eaf991d13de
     Pseudo is Projector augmented-wave + core cor, Zval = 18.0
     Generated using ATOMPAW code
     Shape of augmentation charge: BESSEL
     Using radial grid of 1110 points,  8 beta functions with: 
                l(1) =   0
                l(2) =   0
                l(3) =   1
                l(4) =   1
                l(5) =   2
                l(6) =   2
                l(7) =   3
                l(8) =   3
     Q(r) pseudized with 0 coefficients 


     PseudoPot. # 2 for Fe read from file:
     /home/pragov/projects/rrg-bengioy-ad/pragov/crystal_structure_design/SSSP/Fe.pbe-spn-kjpaw_psl.0.2.1.UPF
     MD5 check sum: e86618425769142926afa95317d90200
     Pseudo is Projector augmented-wave + core cor, Zval = 16.0
     Generated using "atomic" code by A. Dal Corso  v.5.0.99 svn rev. 10869
     Shape of augmentation charge: PSQ
     Using radial grid of 1191 points,  6 beta functions with: 
                l(1) =   0
                l(2) =   0
                l(3) =   1
                l(4) =   1
                l(5) =   2
                l(6) =   2
     Q(r) pseudized with 0 coefficients 


     PseudoPot. # 3 for Si read from file:
     /home/pragov/projects/rrg-bengioy-ad/pragov/crystal_structure_design/SSSP/Si.pbe-n-rrkjus_psl.1.0.0.UPF
     MD5 check sum: 0b0bb1205258b0d07b9f9672cf965d36
     Pseudo is Ultrasoft + core correction, Zval =  4.0
     Generated using "atomic" code by A. Dal Corso  v.5.1
     Using radial grid of 1141 points,  6 beta functions with: 
                l(1) =   0
                l(2) =   0
                l(3) =   1
                l(4) =   1
                l(5) =   2
                l(6) =   2
     Q(r) pseudized with 0 coefficients 


     atomic species   valence    mass     pseudopotential
        Gd            18.00   157.25000     Gd( 1.00)
        Fe            16.00    55.84500     Fe( 1.00)
        Si             4.00    28.08500     Si( 1.00)

      4 Sym. Ops., with inversion, found


                                    s                        frac. trans.

      isym =  1     identity                                     

 cryst.   s( 1) = (     1          0          0      )
                  (     0          1          0      )
                  (     0          0          1      )

 cart.    s( 1) = (  1.0000000 -0.0000000 -0.0000000 )
                  (  0.0000000  1.0000000 -0.0000000 )
                  (  0.0000000  0.0000000  1.0000000 )


      isym =  2     180 deg rotation - cart. axis [0,0,1]        

 cryst.   s( 2) = (    -1          0          0      )
                  (     0         -1          0      )
                  (     1          1          1      )

 cart.    s( 2) = ( -1.0000000  0.0000000 -0.0000000 )
                  (  0.0000000 -1.0000000 -0.0000000 )
                  (  0.0000000  0.0000000  1.0000000 )


      isym =  3     inversion                                    

 cryst.   s( 3) = (    -1          0          0      )
                  (     0         -1          0      )
                  (     0          0         -1      )

 cart.    s( 3) = ( -1.0000000  0.0000000  0.0000000 )
                  (  0.0000000 -1.0000000  0.0000000 )
                  (  0.0000000  0.0000000 -1.0000000 )


      isym =  4     inv. 180 deg rotation - cart. axis [0,0,1]   

 cryst.   s( 4) = (     1          0          0      )
                  (     0          1          0      )
                  (    -1         -1         -1      )

 cart.    s( 4) = (  1.0000000 -0.0000000  0.0000000 )
                  (  0.0000000  1.0000000  0.0000000 )
                  (  0.0000000  0.0000000 -1.0000000 )


   Cartesian axes

     site n.     atom                  positions (alat units)
         1           Gd  tau(   1) = (   0.0000000   0.0000000   0.0000000  )
         2           Fe  tau(   2) = (   0.2451406   0.4357821   0.2524180  )
         3           Fe  tau(   3) = (   0.5000000   0.0000000   0.2524180  )
         4           Si  tau(   4) = (   0.5438021   0.3180329   0.0000000  )
         5           Si  tau(   5) = (   0.9464791   0.5535314   0.0000000  )

   Crystallographic axes

     site n.     atom                  positions (cryst. coord.)
         1           Gd  tau(   1) = (  0.0000000  0.0000000  0.0000000  )
         2           Fe  tau(   2) = (  0.2500000  0.7500000  0.5000000  )
         3           Fe  tau(   3) = (  0.7500000  0.2500000  0.5000000  )
         4           Si  tau(   4) = (  0.3648990  0.3648990  0.0000000  )
         5           Si  tau(   5) = (  0.6351010  0.6351010  0.0000000  )

     number of k points=    10
                       cart. coord. in units 2pi/alat
        k(    1) = (   0.0000000   0.0000000   0.0000000), wk =   0.0740741
        k(    2) = (   0.0000000   0.0000000   0.6602804), wk =   0.1481481
        k(    3) = (   0.0000000   0.3824541   0.3301402), wk =   0.2962963
        k(    4) = (   0.0000000   0.3824541   0.9904207), wk =   0.1481481
        k(    5) = (   0.3333333  -0.1875101   0.3301402), wk =   0.2962963
        k(    6) = (   0.3333333  -0.1875101   0.9904207), wk =   0.1481481
        k(    7) = (   0.3333333   0.1949440   0.6602804), wk =   0.2962963
        k(    8) = (   0.3333333   0.1949440   0.0000000), wk =   0.1481481
        k(    9) = (   0.3333333  -0.5699642   0.0000000), wk =   0.1481481
        k(   10) = (   0.3333333  -0.5699642   0.6602804), wk =   0.2962963

                       cryst. coord.
        k(    1) = (   0.0000000   0.0000000   0.0000000), wk =   0.0740741
        k(    2) = (   0.0000000   0.0000000   0.3333333), wk =   0.1481481
        k(    3) = (   0.0000000   0.3333333   0.0000000), wk =   0.2962963
        k(    4) = (   0.0000000   0.3333333   0.3333333), wk =   0.1481481
        k(    5) = (   0.3333333  -0.0000000  -0.0000000), wk =   0.2962963
        k(    6) = (   0.3333333  -0.0000000   0.3333333), wk =   0.1481481
        k(    7) = (   0.3333333   0.3333333  -0.0000000), wk =   0.2962963
        k(    8) = (   0.3333333   0.3333333  -0.3333333), wk =   0.1481481
        k(    9) = (   0.3333333  -0.3333333  -0.0000000), wk =   0.1481481
        k(   10) = (   0.3333333  -0.3333333   0.3333333), wk =   0.2962963

     Dense  grid:    32221 G-vectors     FFT dimensions: (  54,  54,  54)

     Smooth grid:    11355 G-vectors     FFT dimensions: (  40,  40,  40)

     Dynamical RAM for                 wfc:       0.35 MB

     Dynamical RAM for     wfc (w. buffer):       2.09 MB

     Dynamical RAM for           str. fact:       0.37 MB

     Dynamical RAM for           local pot:       0.00 MB

     Dynamical RAM for          nlocal pot:       0.56 MB

     Dynamical RAM for                qrad:       8.96 MB

     Dynamical RAM for          rho,v,vnew:       1.30 MB

     Dynamical RAM for               rhoin:       0.43 MB

     Dynamical RAM for            rho*nmix:       1.97 MB

     Dynamical RAM for           G-vectors:       0.48 MB

     Dynamical RAM for          h,s,v(r/c):       0.19 MB

     Dynamical RAM for          <psi|beta>:       0.10 MB

     Dynamical RAM for                 psi:       0.70 MB

     Dynamical RAM for                hpsi:       0.70 MB

     Dynamical RAM for                spsi:       0.70 MB

     Dynamical RAM for      wfcinit/wfcrot:       0.82 MB

     Dynamical RAM for           addusdens:      34.30 MB

     Estimated static dynamical RAM per process >      16.25 MB

     Estimated max dynamical RAM per process >      52.51 MB

     Estimated total dynamical RAM >     412.21 MB

     Check: negative core charge=   -0.000136

     Initial potential from superposition of free atoms

     starting charge      57.9928, renormalised to      58.0000
     Starting wfcs are   66 randomized atomic wfcs
     Checking if some PAW data can be deallocated... 
       PAW data deallocated on    6 nodes for type:  1
       PAW data deallocated on    4 nodes for type:  2

     total cpu time spent up to now is        2.7 secs

     Self-consistent Calculation

     iteration #  1     ecut=    30.00 Ry     beta= 0.70
     Davidson diagonalization with overlap

---- Real-time Memory Report at c_bands before calling an iterative solver
           204 MiB given to the printing process from OS
             0 MiB allocation reported by mallinfo(arena+hblkhd)
        123974 MiB available memory on the node where the printing process lives
------------------
     ethr =  1.00E-02,  avg # of iterations =  5.9

     total cpu time spent up to now is        3.7 secs

     total energy              =   -1363.54341297 Ry
     estimated scf accuracy    <       0.83921410 Ry

     iteration #  2     ecut=    30.00 Ry     beta= 0.70
     Davidson diagonalization with overlap

---- Real-time Memory Report at c_bands before calling an iterative solver
           251 MiB given to the printing process from OS
             0 MiB allocation reported by mallinfo(arena+hblkhd)
        123882 MiB available memory on the node where the printing process lives
------------------
     ethr =  1.45E-03,  avg # of iterations =  2.3

     total cpu time spent up to now is        4.6 secs

     total energy              =   -1360.68910838 Ry
     estimated scf accuracy    <      75.28351068 Ry

     iteration #  3     ecut=    30.00 Ry     beta= 0.70
     Davidson diagonalization with overlap

---- Real-time Memory Report at c_bands before calling an iterative solver
           253 MiB given to the printing process from OS
             0 MiB allocation reported by mallinfo(arena+hblkhd)
        122868 MiB available memory on the node where the printing process lives
------------------
     ethr =  1.45E-03,  avg # of iterations =  2.2

     total cpu time spent up to now is        5.4 secs

     total energy              =   -1363.73219022 Ry
     estimated scf accuracy    <      37.08288933 Ry

     iteration #  4     ecut=    30.00 Ry     beta= 0.70
     Davidson diagonalization with overlap

---- Real-time Memory Report at c_bands before calling an iterative solver
           254 MiB given to the printing process from OS
             0 MiB allocation reported by mallinfo(arena+hblkhd)
        123834 MiB available memory on the node where the printing process lives
------------------
     ethr =  1.45E-03,  avg # of iterations =  2.0

     total cpu time spent up to now is        6.2 secs

     total energy              =   -1364.48078726 Ry
     estimated scf accuracy    <       1.16754578 Ry

     iteration #  5     ecut=    30.00 Ry     beta= 0.70
     Davidson diagonalization with overlap

---- Real-time Memory Report at c_bands before calling an iterative solver
           254 MiB given to the printing process from OS
             0 MiB allocation reported by mallinfo(arena+hblkhd)
        123835 MiB available memory on the node where the printing process lives
------------------
     ethr =  1.45E-03,  avg # of iterations =  1.0

     total cpu time spent up to now is        6.9 secs

     total energy              =   -1364.52708027 Ry
     estimated scf accuracy    <       1.17351663 Ry

     iteration #  6     ecut=    30.00 Ry     beta= 0.70
     Davidson diagonalization with overlap

---- Real-time Memory Report at c_bands before calling an iterative solver
           256 MiB given to the printing process from OS
             0 MiB allocation reported by mallinfo(arena+hblkhd)
        123836 MiB available memory on the node where the printing process lives
------------------
     ethr =  1.45E-03,  avg # of iterations =  1.0

     total cpu time spent up to now is        7.7 secs

     total energy              =   -1364.60140305 Ry
     estimated scf accuracy    <       1.19052018 Ry

     iteration #  7     ecut=    30.00 Ry     beta= 0.70
     Davidson diagonalization with overlap

---- Real-time Memory Report at c_bands before calling an iterative solver
           256 MiB given to the printing process from OS
             0 MiB allocation reported by mallinfo(arena+hblkhd)
        123836 MiB available memory on the node where the printing process lives
------------------
     ethr =  1.45E-03,  avg # of iterations =  1.0

     total cpu time spent up to now is        8.4 secs

     total energy              =   -1363.94260281 Ry
     estimated scf accuracy    <       1.65631931 Ry

     iteration #  8     ecut=    30.00 Ry     beta= 0.70
     Davidson diagonalization with overlap

---- Real-time Memory Report at c_bands before calling an iterative solver
           256 MiB given to the printing process from OS
             0 MiB allocation reported by mallinfo(arena+hblkhd)
        123954 MiB available memory on the node where the printing process lives
------------------
     ethr =  1.45E-03,  avg # of iterations =  2.0

     total cpu time spent up to now is        9.1 secs

     total energy              =   -1364.75264900 Ry
     estimated scf accuracy    <       0.81275569 Ry

     iteration #  9     ecut=    30.00 Ry     beta= 0.70
     Davidson diagonalization with overlap

---- Real-time Memory Report at c_bands before calling an iterative solver
           256 MiB given to the printing process from OS
             0 MiB allocation reported by mallinfo(arena+hblkhd)
        122827 MiB available memory on the node where the printing process lives
------------------
     ethr =  1.40E-03,  avg # of iterations =  1.0

     total cpu time spent up to now is        9.9 secs

     total energy              =   -1364.58691924 Ry
     estimated scf accuracy    <       0.84201802 Ry

     iteration # 10     ecut=    30.00 Ry     beta= 0.70
     Davidson diagonalization with overlap

---- Real-time Memory Report at c_bands before calling an iterative solver
           256 MiB given to the printing process from OS
             0 MiB allocation reported by mallinfo(arena+hblkhd)
        123772 MiB available memory on the node where the printing process lives
------------------
     ethr =  1.40E-03,  avg # of iterations =  1.0

     total cpu time spent up to now is       10.6 secs

     total energy              =   -1364.23076075 Ry
     estimated scf accuracy    <       0.43392445 Ry

     iteration # 11     ecut=    30.00 Ry     beta= 0.70
     Davidson diagonalization with overlap

---- Real-time Memory Report at c_bands before calling an iterative solver
           256 MiB given to the printing process from OS
             0 MiB allocation reported by mallinfo(arena+hblkhd)
        123773 MiB available memory on the node where the printing process lives
------------------
     ethr =  7.48E-04,  avg # of iterations =  1.2

     total cpu time spent up to now is       11.4 secs

     total energy              =   -1364.41997065 Ry
     estimated scf accuracy    <       0.27408378 Ry

     iteration # 12     ecut=    30.00 Ry     beta= 0.70
     Davidson diagonalization with overlap

---- Real-time Memory Report at c_bands before calling an iterative solver
           256 MiB given to the printing process from OS
             0 MiB allocation reported by mallinfo(arena+hblkhd)
        123776 MiB available memory on the node where the printing process lives
------------------
     ethr =  4.73E-04,  avg # of iterations =  1.1

     total cpu time spent up to now is       12.3 secs

     total energy              =   -1364.33184149 Ry
     estimated scf accuracy    <       0.20753616 Ry

     iteration # 13     ecut=    30.00 Ry     beta= 0.70
     Davidson diagonalization with overlap

---- Real-time Memory Report at c_bands before calling an iterative solver
           256 MiB given to the printing process from OS
             0 MiB allocation reported by mallinfo(arena+hblkhd)
        123773 MiB available memory on the node where the printing process lives
------------------
     ethr =  3.58E-04,  avg # of iterations =  1.1

     total cpu time spent up to now is       13.8 secs

     total energy              =   -1364.34092558 Ry
     estimated scf accuracy    <       0.06080785 Ry

     iteration # 14     ecut=    30.00 Ry     beta= 0.70
     Davidson diagonalization with overlap

---- Real-time Memory Report at c_bands before calling an iterative solver
           256 MiB given to the printing process from OS
             0 MiB allocation reported by mallinfo(arena+hblkhd)
        122827 MiB available memory on the node where the printing process lives
------------------
     ethr =  1.05E-04,  avg # of iterations =  1.8

     total cpu time spent up to now is       14.6 secs

     total energy              =   -1364.29775181 Ry
     estimated scf accuracy    <       0.15644272 Ry

     iteration # 15     ecut=    30.00 Ry     beta= 0.70
     Davidson diagonalization with overlap

---- Real-time Memory Report at c_bands before calling an iterative solver
           256 MiB given to the printing process from OS
             0 MiB allocation reported by mallinfo(arena+hblkhd)
        123772 MiB available memory on the node where the printing process lives
------------------
     ethr =  1.05E-04,  avg # of iterations =  1.0

     total cpu time spent up to now is       15.3 secs

     total energy              =   -1364.36624043 Ry
     estimated scf accuracy    <       0.17842804 Ry

     iteration # 16     ecut=    30.00 Ry     beta= 0.70
     Davidson diagonalization with overlap

---- Real-time Memory Report at c_bands before calling an iterative solver
           256 MiB given to the printing process from OS
             0 MiB allocation reported by mallinfo(arena+hblkhd)
        123774 MiB available memory on the node where the printing process lives
------------------
     ethr =  1.05E-04,  avg # of iterations =  1.2

     total cpu time spent up to now is       16.0 secs

     total energy              =   -1364.33099449 Ry
     estimated scf accuracy    <       0.12683709 Ry

     iteration # 17     ecut=    30.00 Ry     beta= 0.70
     Davidson diagonalization with overlap

---- Real-time Memory Report at c_bands before calling an iterative solver
           256 MiB given to the printing process from OS
             0 MiB allocation reported by mallinfo(arena+hblkhd)
        123773 MiB available memory on the node where the printing process lives
------------------
     ethr =  1.05E-04,  avg # of iterations =  1.1

     total cpu time spent up to now is       16.9 secs

     total energy              =   -1364.35024878 Ry
     estimated scf accuracy    <       0.05952183 Ry

     iteration # 18     ecut=    30.00 Ry     beta= 0.70
     Davidson diagonalization with overlap

---- Real-time Memory Report at c_bands before calling an iterative solver
           256 MiB given to the printing process from OS
             0 MiB allocation reported by mallinfo(arena+hblkhd)
        123785 MiB available memory on the node where the printing process lives
------------------
     ethr =  1.03E-04,  avg # of iterations =  1.0

     total cpu time spent up to now is       18.2 secs

     total energy              =   -1364.35279783 Ry
     estimated scf accuracy    <       0.02487257 Ry

     iteration # 19     ecut=    30.00 Ry     beta= 0.70
     Davidson diagonalization with overlap

---- Real-time Memory Report at c_bands before calling an iterative solver
           256 MiB given to the printing process from OS
             0 MiB allocation reported by mallinfo(arena+hblkhd)
        122787 MiB available memory on the node where the printing process lives
------------------
     ethr =  4.29E-05,  avg # of iterations =  1.9

     total cpu time spent up to now is       19.4 secs

     total energy              =   -1364.35070383 Ry
     estimated scf accuracy    <       0.06317769 Ry

     iteration # 20     ecut=    30.00 Ry     beta= 0.70
     Davidson diagonalization with overlap

---- Real-time Memory Report at c_bands before calling an iterative solver
           256 MiB given to the printing process from OS
             0 MiB allocation reported by mallinfo(arena+hblkhd)
        123773 MiB available memory on the node where the printing process lives
------------------
     ethr =  4.29E-05,  avg # of iterations =  1.2

     total cpu time spent up to now is       20.3 secs

     total energy              =   -1364.35206226 Ry
     estimated scf accuracy    <       0.02700903 Ry

     iteration # 21     ecut=    30.00 Ry     beta= 0.70
     Davidson diagonalization with overlap

---- Real-time Memory Report at c_bands before calling an iterative solver
           256 MiB given to the printing process from OS
             0 MiB allocation reported by mallinfo(arena+hblkhd)
        123783 MiB available memory on the node where the printing process lives
------------------
     ethr =  4.29E-05,  avg # of iterations =  1.2

     total cpu time spent up to now is       21.3 secs

     total energy              =   -1364.35296895 Ry
     estimated scf accuracy    <       0.00454052 Ry

     iteration # 22     ecut=    30.00 Ry     beta= 0.70
     Davidson diagonalization with overlap

---- Real-time Memory Report at c_bands before calling an iterative solver
           256 MiB given to the printing process from OS
             0 MiB allocation reported by mallinfo(arena+hblkhd)
        123778 MiB available memory on the node where the printing process lives
------------------
     ethr =  7.83E-06,  avg # of iterations =  3.0

     total cpu time spent up to now is       22.1 secs

     total energy              =   -1364.35314680 Ry
     estimated scf accuracy    <       0.00340094 Ry

     iteration # 23     ecut=    30.00 Ry     beta= 0.70
     Davidson diagonalization with overlap

---- Real-time Memory Report at c_bands before calling an iterative solver
           256 MiB given to the printing process from OS
             0 MiB allocation reported by mallinfo(arena+hblkhd)
        123616 MiB available memory on the node where the printing process lives
------------------
     ethr =  5.86E-06,  avg # of iterations =  1.0

     total cpu time spent up to now is       22.8 secs

     total energy              =   -1364.35238630 Ry
     estimated scf accuracy    <       0.00881208 Ry

     iteration # 24     ecut=    30.00 Ry     beta= 0.70
     Davidson diagonalization with overlap

---- Real-time Memory Report at c_bands before calling an iterative solver
           256 MiB given to the printing process from OS
             0 MiB allocation reported by mallinfo(arena+hblkhd)
        122827 MiB available memory on the node where the printing process lives
------------------
     ethr =  5.86E-06,  avg # of iterations =  1.0

     total cpu time spent up to now is       23.5 secs

     total energy              =   -1364.35242635 Ry
     estimated scf accuracy    <       0.06253874 Ry

     iteration # 25     ecut=    30.00 Ry     beta= 0.70
     Davidson diagonalization with overlap

---- Real-time Memory Report at c_bands before calling an iterative solver
           256 MiB given to the printing process from OS
             0 MiB allocation reported by mallinfo(arena+hblkhd)
        123783 MiB available memory on the node where the printing process lives
------------------
     ethr =  5.86E-06,  avg # of iterations =  1.0

     total cpu time spent up to now is       24.2 secs

     total energy              =   -1364.35489269 Ry
     estimated scf accuracy    <       0.01257544 Ry

     iteration # 26     ecut=    30.00 Ry     beta= 0.70
     Davidson diagonalization with overlap

---- Real-time Memory Report at c_bands before calling an iterative solver
           256 MiB given to the printing process from OS
             0 MiB allocation reported by mallinfo(arena+hblkhd)
        123784 MiB available memory on the node where the printing process lives
------------------
     ethr =  5.86E-06,  avg # of iterations =  1.0

     total cpu time spent up to now is       25.0 secs

     total energy              =   -1364.35564122 Ry
     estimated scf accuracy    <       0.01086556 Ry

     iteration # 27     ecut=    30.00 Ry     beta= 0.70
     Davidson diagonalization with overlap

---- Real-time Memory Report at c_bands before calling an iterative solver
           256 MiB given to the printing process from OS
             0 MiB allocation reported by mallinfo(arena+hblkhd)
        123784 MiB available memory on the node where the printing process lives
------------------
     ethr =  5.86E-06,  avg # of iterations =  1.0

     total cpu time spent up to now is       26.0 secs

     total energy              =   -1364.35718601 Ry
     estimated scf accuracy    <       0.00810156 Ry

     iteration # 28     ecut=    30.00 Ry     beta= 0.70
     Davidson diagonalization with overlap

---- Real-time Memory Report at c_bands before calling an iterative solver
           256 MiB given to the printing process from OS
             0 MiB allocation reported by mallinfo(arena+hblkhd)
        123787 MiB available memory on the node where the printing process lives
------------------
     ethr =  5.86E-06,  avg # of iterations =  1.0

     total cpu time spent up to now is       27.2 secs

     total energy              =   -1364.35827900 Ry
     estimated scf accuracy    <       0.00702420 Ry

     iteration # 29     ecut=    30.00 Ry     beta= 0.70
     Davidson diagonalization with overlap

---- Real-time Memory Report at c_bands before calling an iterative solver
           256 MiB given to the printing process from OS
             0 MiB allocation reported by mallinfo(arena+hblkhd)
        123788 MiB available memory on the node where the printing process lives
------------------
     ethr =  5.86E-06,  avg # of iterations =  1.0

     total cpu time spent up to now is       28.2 secs

     total energy              =   -1364.35829885 Ry
     estimated scf accuracy    <       0.00651429 Ry

     iteration # 30     ecut=    30.00 Ry     beta= 0.70
     Davidson diagonalization with overlap

---- Real-time Memory Report at c_bands before calling an iterative solver
           256 MiB given to the printing process from OS
             0 MiB allocation reported by mallinfo(arena+hblkhd)
        123790 MiB available memory on the node where the printing process lives
------------------
     ethr =  5.86E-06,  avg # of iterations =  1.0

     total cpu time spent up to now is       29.0 secs

     total energy              =   -1364.35450626 Ry
     estimated scf accuracy    <       0.00506438 Ry

     iteration # 31     ecut=    30.00 Ry     beta= 0.70
     Davidson diagonalization with overlap

---- Real-time Memory Report at c_bands before calling an iterative solver
           256 MiB given to the printing process from OS
             0 MiB allocation reported by mallinfo(arena+hblkhd)
        123786 MiB available memory on the node where the printing process lives
------------------
     ethr =  5.86E-06,  avg # of iterations =  1.0

     total cpu time spent up to now is       29.7 secs

     total energy              =   -1364.34608891 Ry
     estimated scf accuracy    <       0.08006258 Ry

     iteration # 32     ecut=    30.00 Ry     beta= 0.70
     Davidson diagonalization with overlap

---- Real-time Memory Report at c_bands before calling an iterative solver
           256 MiB given to the printing process from OS
             0 MiB allocation reported by mallinfo(arena+hblkhd)
        123788 MiB available memory on the node where the printing process lives
------------------
     ethr =  5.86E-06,  avg # of iterations =  1.0

     total cpu time spent up to now is       30.4 secs

     total energy              =   -1364.35839333 Ry
     estimated scf accuracy    <       0.00569470 Ry

     iteration # 33     ecut=    30.00 Ry     beta= 0.70
     Davidson diagonalization with overlap

---- Real-time Memory Report at c_bands before calling an iterative solver
           256 MiB given to the printing process from OS
             0 MiB allocation reported by mallinfo(arena+hblkhd)
        123790 MiB available memory on the node where the printing process lives
------------------
     ethr =  5.86E-06,  avg # of iterations =  1.0

     total cpu time spent up to now is       31.1 secs

     total energy              =   -1364.35897685 Ry
     estimated scf accuracy    <       0.00322126 Ry

     iteration # 34     ecut=    30.00 Ry     beta= 0.70
     Davidson diagonalization with overlap

---- Real-time Memory Report at c_bands before calling an iterative solver
           256 MiB given to the printing process from OS
             0 MiB allocation reported by mallinfo(arena+hblkhd)
        123708 MiB available memory on the node where the printing process lives
------------------
     ethr =  5.55E-06,  avg # of iterations =  1.0

     total cpu time spent up to now is       31.9 secs

     total energy              =   -1364.35789989 Ry
     estimated scf accuracy    <       0.04885466 Ry

     iteration # 35     ecut=    30.00 Ry     beta= 0.70
     Davidson diagonalization with overlap

---- Real-time Memory Report at c_bands before calling an iterative solver
           256 MiB given to the printing process from OS
             0 MiB allocation reported by mallinfo(arena+hblkhd)
        122855 MiB available memory on the node where the printing process lives
------------------
     ethr =  5.55E-06,  avg # of iterations =  1.0

     total cpu time spent up to now is       32.6 secs

     total energy              =   -1364.36014257 Ry
     estimated scf accuracy    <       0.00177767 Ry

     iteration # 36     ecut=    30.00 Ry     beta= 0.70
     Davidson diagonalization with overlap

---- Real-time Memory Report at c_bands before calling an iterative solver
           256 MiB given to the printing process from OS
             0 MiB allocation reported by mallinfo(arena+hblkhd)
        123826 MiB available memory on the node where the printing process lives
------------------
     ethr =  3.06E-06,  avg # of iterations =  1.0

     total cpu time spent up to now is       33.4 secs

     total energy              =   -1364.36073679 Ry
     estimated scf accuracy    <       0.00300752 Ry

     iteration # 37     ecut=    30.00 Ry     beta= 0.70
     Davidson diagonalization with overlap

---- Real-time Memory Report at c_bands before calling an iterative solver
           256 MiB given to the printing process from OS
             0 MiB allocation reported by mallinfo(arena+hblkhd)
        123819 MiB available memory on the node where the printing process lives
------------------
     ethr =  3.06E-06,  avg # of iterations =  1.0

     total cpu time spent up to now is       34.1 secs

     total energy              =   -1364.36050791 Ry
     estimated scf accuracy    <       0.00193056 Ry

     iteration # 38     ecut=    30.00 Ry     beta= 0.70
     Davidson diagonalization with overlap

---- Real-time Memory Report at c_bands before calling an iterative solver
           256 MiB given to the printing process from OS
             0 MiB allocation reported by mallinfo(arena+hblkhd)
        123817 MiB available memory on the node where the printing process lives
------------------
     ethr =  3.06E-06,  avg # of iterations =  1.0

     total cpu time spent up to now is       34.9 secs

     total energy              =   -1364.36117054 Ry
     estimated scf accuracy    <       0.00159716 Ry

     iteration # 39     ecut=    30.00 Ry     beta= 0.70
     Davidson diagonalization with overlap

---- Real-time Memory Report at c_bands before calling an iterative solver
           256 MiB given to the printing process from OS
             0 MiB allocation reported by mallinfo(arena+hblkhd)
        123817 MiB available memory on the node where the printing process lives
------------------
     ethr =  2.75E-06,  avg # of iterations =  1.0

     total cpu time spent up to now is       35.9 secs

     total energy              =   -1364.36127180 Ry
     estimated scf accuracy    <       0.00295369 Ry

     iteration # 40     ecut=    30.00 Ry     beta= 0.70
     Davidson diagonalization with overlap

---- Real-time Memory Report at c_bands before calling an iterative solver
           256 MiB given to the printing process from OS
             0 MiB allocation reported by mallinfo(arena+hblkhd)
        123821 MiB available memory on the node where the printing process lives
------------------
     ethr =  2.75E-06,  avg # of iterations =  1.0

     total cpu time spent up to now is       37.0 secs

     total energy              =   -1364.36058198 Ry
     estimated scf accuracy    <       0.00092343 Ry

     iteration # 41     ecut=    30.00 Ry     beta= 0.70
     Davidson diagonalization with overlap

---- Real-time Memory Report at c_bands before calling an iterative solver
           256 MiB given to the printing process from OS
             0 MiB allocation reported by mallinfo(arena+hblkhd)
        124035 MiB available memory on the node where the printing process lives
------------------
     ethr =  1.59E-06,  avg # of iterations =  2.0

     total cpu time spent up to now is       37.8 secs

     total energy              =   -1364.36011723 Ry
     estimated scf accuracy    <       0.00758107 Ry

     iteration # 42     ecut=    30.00 Ry     beta= 0.70
     Davidson diagonalization with overlap

---- Real-time Memory Report at c_bands before calling an iterative solver
           256 MiB given to the printing process from OS
             0 MiB allocation reported by mallinfo(arena+hblkhd)
        122879 MiB available memory on the node where the printing process lives
------------------
     ethr =  1.59E-06,  avg # of iterations =  2.0

     total cpu time spent up to now is       38.5 secs

     total energy              =   -1364.36235288 Ry
     estimated scf accuracy    <       0.00014557 Ry

     iteration # 43     ecut=    30.00 Ry     beta= 0.70
     Davidson diagonalization with overlap

---- Real-time Memory Report at c_bands before calling an iterative solver
           256 MiB given to the printing process from OS
             0 MiB allocation reported by mallinfo(arena+hblkhd)
        123788 MiB available memory on the node where the printing process lives
------------------
     ethr =  2.51E-07,  avg # of iterations =  1.0

     total cpu time spent up to now is       39.2 secs

     total energy              =   -1364.36237919 Ry
     estimated scf accuracy    <       0.00002699 Ry

     iteration # 44     ecut=    30.00 Ry     beta= 0.70
     Davidson diagonalization with overlap

---- Real-time Memory Report at c_bands before calling an iterative solver
           256 MiB given to the printing process from OS
             0 MiB allocation reported by mallinfo(arena+hblkhd)
        123786 MiB available memory on the node where the printing process lives
------------------
     ethr =  4.65E-08,  avg # of iterations =  1.0

     total cpu time spent up to now is       39.9 secs

     total energy              =   -1364.36238835 Ry
     estimated scf accuracy    <       0.00001430 Ry

     iteration # 45     ecut=    30.00 Ry     beta= 0.70
     Davidson diagonalization with overlap

---- Real-time Memory Report at c_bands before calling an iterative solver
           256 MiB given to the printing process from OS
             0 MiB allocation reported by mallinfo(arena+hblkhd)
        123786 MiB available memory on the node where the printing process lives
------------------
     ethr =  2.47E-08,  avg # of iterations =  1.0

     total cpu time spent up to now is       40.6 secs

     total energy              =   -1364.36239853 Ry
     estimated scf accuracy    <       0.00004031 Ry

     iteration # 46     ecut=    30.00 Ry     beta= 0.70
     Davidson diagonalization with overlap

---- Real-time Memory Report at c_bands before calling an iterative solver
           256 MiB given to the printing process from OS
             0 MiB allocation reported by mallinfo(arena+hblkhd)
        123787 MiB available memory on the node where the printing process lives
------------------
     ethr =  2.47E-08,  avg # of iterations =  1.0

     total cpu time spent up to now is       41.3 secs

     total energy              =   -1364.36240863 Ry
     estimated scf accuracy    <       0.00000428 Ry

     iteration # 47     ecut=    30.00 Ry     beta= 0.70
     Davidson diagonalization with overlap

---- Real-time Memory Report at c_bands before calling an iterative solver
           256 MiB given to the printing process from OS
             0 MiB allocation reported by mallinfo(arena+hblkhd)
        123788 MiB available memory on the node where the printing process lives
------------------
     ethr =  7.38E-09,  avg # of iterations =  1.8

     total cpu time spent up to now is       42.1 secs

     total energy              =   -1364.36241590 Ry
     estimated scf accuracy    <       0.00000200 Ry

     iteration # 48     ecut=    30.00 Ry     beta= 0.70
     Davidson diagonalization with overlap

---- Real-time Memory Report at c_bands before calling an iterative solver
           256 MiB given to the printing process from OS
             0 MiB allocation reported by mallinfo(arena+hblkhd)
        123304 MiB available memory on the node where the printing process lives
------------------
     ethr =  3.45E-09,  avg # of iterations =  1.0

     total cpu time spent up to now is       43.3 secs

     total energy              =   -1364.36241911 Ry
     estimated scf accuracy    <       0.00000211 Ry

     iteration # 49     ecut=    30.00 Ry     beta= 0.70
     Davidson diagonalization with overlap

---- Real-time Memory Report at c_bands before calling an iterative solver
           256 MiB given to the printing process from OS
             0 MiB allocation reported by mallinfo(arena+hblkhd)
        123785 MiB available memory on the node where the printing process lives
------------------
     ethr =  3.45E-09,  avg # of iterations =  1.0

     total cpu time spent up to now is       44.2 secs

     total energy              =   -1364.36242256 Ry
     estimated scf accuracy    <       0.00000335 Ry

     iteration # 50     ecut=    30.00 Ry     beta= 0.70
     Davidson diagonalization with overlap

---- Real-time Memory Report at c_bands before calling an iterative solver
           256 MiB given to the printing process from OS
             0 MiB allocation reported by mallinfo(arena+hblkhd)
        123784 MiB available memory on the node where the printing process lives
------------------
     ethr =  3.45E-09,  avg # of iterations =  2.0

     total cpu time spent up to now is       45.4 secs

     total energy              =   -1364.36242654 Ry
     estimated scf accuracy    <       0.00001063 Ry

     iteration # 51     ecut=    30.00 Ry     beta= 0.70
     Davidson diagonalization with overlap

---- Real-time Memory Report at c_bands before calling an iterative solver
           256 MiB given to the printing process from OS
             0 MiB allocation reported by mallinfo(arena+hblkhd)
        123784 MiB available memory on the node where the printing process lives
------------------
     ethr =  3.45E-09,  avg # of iterations =  1.0

     total cpu time spent up to now is       46.1 secs

     total energy              =   -1364.36242080 Ry
     estimated scf accuracy    <       0.00000181 Ry

     iteration # 52     ecut=    30.00 Ry     beta= 0.70
     Davidson diagonalization with overlap

---- Real-time Memory Report at c_bands before calling an iterative solver
           256 MiB given to the printing process from OS
             0 MiB allocation reported by mallinfo(arena+hblkhd)
        123784 MiB available memory on the node where the printing process lives
------------------
     ethr =  3.12E-09,  avg # of iterations =  2.0

     total cpu time spent up to now is       46.9 secs

     total energy              =   -1364.36243473 Ry
     estimated scf accuracy    <       0.00000198 Ry

     iteration # 53     ecut=    30.00 Ry     beta= 0.70
     Davidson diagonalization with overlap

---- Real-time Memory Report at c_bands before calling an iterative solver
           256 MiB given to the printing process from OS
             0 MiB allocation reported by mallinfo(arena+hblkhd)
        123349 MiB available memory on the node where the printing process lives
------------------
     ethr =  3.12E-09,  avg # of iterations =  2.0

     total cpu time spent up to now is       47.6 secs

     End of self-consistent calculation

          k = 0.0000 0.0000 0.0000 (  1435 PWs)   bands (ev):

   -72.2512 -72.2417 -37.9891 -37.9876 -37.9196 -37.9181 -37.7527 -37.7333
   -27.6790  -5.6596  -5.6368  -5.5941   3.9125   8.0047   9.2338  11.6245
    11.6249  11.9903  12.6679  13.0599  13.0632  13.4541  14.0453  14.0479
    14.0528  14.0777  14.2610  14.2729  14.2786  14.3506  14.4021  14.5351
    14.5771  14.5891  14.9696  17.5584  17.5639  18.3611  19.7995  19.8147
    20.2503  20.3475  21.5120  21.5310  25.0182  25.1799  25.1837  26.1318
    26.2782  26.2814  26.8486  26.8727  28.3528  28.4414  28.4480  31.1001
    31.4557  34.9826  35.2187  36.1293  36.1351  37.6964  38.5195  38.5305

     occupation numbers 
     1.0000   1.0000   1.0000   1.0000   1.0000   1.0000   1.0000   1.0000
     1.0000   1.0000   1.0000   1.0000   1.0000   1.0000   1.0000   1.0000
     1.0000   1.0000   1.0000   1.0000   1.0000   1.0000   1.0000   1.0000
     1.0000   1.0000   1.0000   1.0000   1.0000   0.0000   0.0000   0.0000
     0.0000   0.0000   0.0000   0.0000   0.0000   0.0000   0.0000   0.0000
     0.0000   0.0000   0.0000   0.0000   0.0000   0.0000   0.0000   0.0000
     0.0000   0.0000   0.0000   0.0000   0.0000   0.0000   0.0000   0.0000
     0.0000   0.0000   0.0000   0.0000   0.0000   0.0000   0.0000   0.0000

          k = 0.0000 0.0000 0.6603 (  1421 PWs)   bands (ev):

   -72.2450 -72.2445 -37.9654 -37.9430 -37.9145 -37.8804 -37.7801 -37.7671
   -27.6670  -5.7958  -5.7426  -5.6160   5.5499   8.0496   9.4857  10.2742
    11.5180  12.1519  12.3802  12.4151  13.2389  13.2464  13.5283  13.6881
    13.7658  13.8290  14.1325  14.1613  14.2101  14.2701  14.4311  14.4722
    14.5210  14.5767  15.3961  15.5521  19.0288  19.0736  19.9110  20.0348
    20.1931  20.4718  21.3636  23.9940  24.4697  25.2749  25.5397  25.9175
    26.4846  26.7727  27.5490  28.1546  29.7496  29.9955  30.2108  32.3077
    32.8579  33.0297  34.4841  34.6992  35.6742  36.5058  36.8989  37.3266

     occupation numbers 
     1.0000   1.0000   1.0000   1.0000   1.0000   1.0000   1.0000   1.0000
     1.0000   1.0000   1.0000   1.0000   1.0000   1.0000   1.0000   1.0000
     1.0000   1.0000   1.0000   1.0000   1.0000   1.0000   1.0000   1.0000
     1.0000   1.0000   1.0000   1.0000   1.0000   0.0000   0.0000   0.0000
     0.0000   0.0000   0.0000   0.0000   0.0000   0.0000   0.0000   0.0000
     0.0000   0.0000   0.0000   0.0000   0.0000   0.0000   0.0000   0.0000
     0.0000   0.0000   0.0000   0.0000   0.0000   0.0000   0.0000   0.0000
     0.0000   0.0000   0.0000   0.0000   0.0000   0.0000   0.0000   0.0000

          k = 0.0000 0.3825 0.3301 (  1429 PWs)   bands (ev):

   -72.2507 -72.2429 -37.9485 -37.9463 -37.9367 -37.9150 -37.7789 -37.7692
   -27.6728  -5.8083  -5.6456  -5.5916   5.1332   7.3369  10.3262  10.6182
    11.4655  11.8064  12.4179  12.5687  12.5873  13.3734  13.5388  13.5536
    13.6511  13.9626  14.1241  14.1325  14.2960  14.3691  14.4327  14.4835
    14.6510  15.4352  15.6540  16.8023  18.0223  18.5008  19.7630  19.8562
    21.2312  21.3478  21.4943  22.9082  23.2464  23.5106  24.7570  25.3727
    25.6796  26.7139  28.5948  28.7289  29.7223  29.9203  32.0159  32.5776
    32.6465  33.3073  33.9068  34.1578  34.9949  36.2034  36.6668  37.6567

     occupation numbers 
     1.0000   1.0000   1.0000   1.0000   1.0000   1.0000   1.0000   1.0000
     1.0000   1.0000   1.0000   1.0000   1.0000   1.0000   1.0000   1.0000
     1.0000   1.0000   1.0000   1.0000   1.0000   1.0000   1.0000   1.0000
     1.0000   1.0000   1.0000   1.0000   1.0000   0.0000   0.0000   0.0000
     0.0000   0.0000   0.0000   0.0000   0.0000   0.0000   0.0000   0.0000
     0.0000   0.0000   0.0000   0.0000   0.0000   0.0000   0.0000   0.0000
     0.0000   0.0000   0.0000   0.0000   0.0000   0.0000   0.0000   0.0000
     0.0000   0.0000   0.0000   0.0000   0.0000   0.0000   0.0000   0.0000

          k = 0.0000 0.3825 0.9904 (  1422 PWs)   bands (ev):

   -72.2456 -72.2450 -37.9629 -37.9365 -37.9310 -37.8906 -37.7747 -37.7665
   -27.6669  -5.7798  -5.7587  -5.6223   5.8772   7.2262  10.3513  10.4597
    11.3518  12.0497  12.2875  12.3781  13.0039  13.0320  13.0602  13.4683
    13.8164  14.0177  14.0851  14.1804  14.2211  14.4222  14.4518  14.4754
    14.6903  15.1160  15.3893  16.1157  17.5395  19.3207  19.8134  20.1840
    20.8460  20.9472  22.0160  22.7696  23.4263  24.0694  24.9730  26.2288
    26.7056  26.8242  29.1051  29.5218  30.3310  31.5320  31.7982  32.0185
    32.0565  33.4263  33.4901  34.3042  34.3632  34.4653  35.5159  36.4793

     occupation numbers 
     1.0000   1.0000   1.0000   1.0000   1.0000   1.0000   1.0000   1.0000
     1.0000   1.0000   1.0000   1.0000   1.0000   1.0000   1.0000   1.0000
     1.0000   1.0000   1.0000   1.0000   1.0000   1.0000   1.0000   1.0000
     1.0000   1.0000   1.0000   1.0000   1.0000   0.0000   0.0000   0.0000
     0.0000   0.0000   0.0000   0.0000   0.0000   0.0000   0.0000   0.0000
     0.0000   0.0000   0.0000   0.0000   0.0000   0.0000   0.0000   0.0000
     0.0000   0.0000   0.0000   0.0000   0.0000   0.0000   0.0000   0.0000
     0.0000   0.0000   0.0000   0.0000   0.0000   0.0000   0.0000   0.0000

          k = 0.3333-0.1875 0.3301 (  1429 PWs)   bands (ev):

   -72.2507 -72.2429 -37.9482 -37.9463 -37.9367 -37.9146 -37.7791 -37.7696
   -27.6728  -5.8058  -5.6473  -5.5926   5.1338   7.3368  10.3257  10.6191
    11.4658  11.8067  12.4170  12.5689  12.5840  13.3679  13.5400  13.5556
    13.6185  14.0121  14.1287  14.1910  14.2424  14.4077  14.4390  14.4874
    14.5706  15.4310  15.6648  16.8063  18.0216  18.5042  19.7646  19.8526
    21.2308  21.3425  21.4969  22.9067  23.2450  23.5144  24.7536  25.3775
    25.6836  26.7132  28.5944  28.7243  29.7262  29.9192  32.0142  32.5791
    32.6451  33.3061  33.9071  34.1586  34.9936  36.2061  36.6650  37.6551

     occupation numbers 
     1.0000   1.0000   1.0000   1.0000   1.0000   1.0000   1.0000   1.0000
     1.0000   1.0000   1.0000   1.0000   1.0000   1.0000   1.0000   1.0000
     1.0000   1.0000   1.0000   1.0000   1.0000   1.0000   1.0000   1.0000
     1.0000   1.0000   1.0000   1.0000   1.0000   0.0000   0.0000   0.0000
     0.0000   0.0000   0.0000   0.0000   0.0000   0.0000   0.0000   0.0000
     0.0000   0.0000   0.0000   0.0000   0.0000   0.0000   0.0000   0.0000
     0.0000   0.0000   0.0000   0.0000   0.0000   0.0000   0.0000   0.0000
     0.0000   0.0000   0.0000   0.0000   0.0000   0.0000   0.0000   0.0000

          k = 0.3333-0.1875 0.9904 (  1422 PWs)   bands (ev):

   -72.2456 -72.2450 -37.9629 -37.9367 -37.9311 -37.8906 -37.7747 -37.7664
   -27.6668  -5.7798  -5.7554  -5.6257   5.8781   7.2254  10.3520  10.4600
    11.3522  12.0484  12.2872  12.3762  13.0034  13.0283  13.0608  13.4690
    13.8219  14.0584  14.1021  14.1753  14.2363  14.3687  14.4246  14.4307
    14.7341  15.1252  15.3918  16.1184  17.5374  19.3249  19.8092  20.1923
    20.8354  20.9439  22.0198  22.7699  23.4294  24.0723  24.9693  26.2293
    26.7017  26.8247  29.1051  29.5252  30.3330  31.5309  31.8079  32.0172
    32.0526  33.4226  33.4951  34.3014  34.3636  34.4657  35.5077  36.4785

     occupation numbers 
     1.0000   1.0000   1.0000   1.0000   1.0000   1.0000   1.0000   1.0000
     1.0000   1.0000   1.0000   1.0000   1.0000   1.0000   1.0000   1.0000
     1.0000   1.0000   1.0000   1.0000   1.0000   1.0000   1.0000   1.0000
     1.0000   1.0000   1.0000   1.0000   1.0000   0.0000   0.0000   0.0000
     0.0000   0.0000   0.0000   0.0000   0.0000   0.0000   0.0000   0.0000
     0.0000   0.0000   0.0000   0.0000   0.0000   0.0000   0.0000   0.0000
     0.0000   0.0000   0.0000   0.0000   0.0000   0.0000   0.0000   0.0000
     0.0000   0.0000   0.0000   0.0000   0.0000   0.0000   0.0000   0.0000

          k = 0.3333 0.1949 0.6603 (  1422 PWs)   bands (ev):

   -72.2456 -72.2450 -37.9644 -37.9351 -37.9296 -37.8920 -37.7747 -37.7664
   -27.6668  -5.7874  -5.7496  -5.6238   5.8773   7.2250  10.3564  10.4576
    11.3508  12.0469  12.2901  12.3776  13.0040  13.0323  13.0591  13.4717
    13.8293  13.9864  14.1005  14.1834  14.2198  14.4113  14.4376  14.4905
    14.6906  15.1242  15.3895  16.1168  17.5359  19.3265  19.8119  20.1880
    20.8306  20.9549  22.0164  22.7831  23.4228  24.0684  24.9633  26.2249
    26.7020  26.8278  29.1027  29.5215  30.3360  31.5306  31.8075  32.0177
    32.0517  33.4248  33.4862  34.3031  34.3690  34.4693  35.5130  36.4781

     occupation numbers 
     1.0000   1.0000   1.0000   1.0000   1.0000   1.0000   1.0000   1.0000
     1.0000   1.0000   1.0000   1.0000   1.0000   1.0000   1.0000   1.0000
     1.0000   1.0000   1.0000   1.0000   1.0000   1.0000   1.0000   1.0000
     1.0000   1.0000   1.0000   1.0000   1.0000   0.0000   0.0000   0.0000
     0.0000   0.0000   0.0000   0.0000   0.0000   0.0000   0.0000   0.0000
     0.0000   0.0000   0.0000   0.0000   0.0000   0.0000   0.0000   0.0000
     0.0000   0.0000   0.0000   0.0000   0.0000   0.0000   0.0000   0.0000
     0.0000   0.0000   0.0000   0.0000   0.0000   0.0000   0.0000   0.0000

          k = 0.3333 0.1949 0.0000 (  1424 PWs)   bands (ev):

   -72.2588 -72.2332 -37.9530 -37.9515 -37.9253 -37.9239 -37.7902 -37.7324
   -27.6783  -5.6919  -5.6356  -5.5959   4.6709   6.3963  10.0815  11.5629
    11.5650  12.0182  12.3399  12.7433  12.7622  12.7713  14.0117  14.0925
    14.1144  14.1258  14.1843  14.3780  14.3943  14.4855  14.9696  14.9917
    14.9922  15.1243  15.8520  18.1349  18.2160  18.2210  19.0848  19.6377
    20.3888  20.6441  20.6579  20.9645  22.3497  22.3528  23.6470  24.5769
    26.0356  28.3570  28.7993  28.8073  29.1974  31.8401  31.8433  32.1783
    32.6018  33.9949  34.0030  34.4346  35.0201  38.0483  38.3845  38.7008

     occupation numbers 
     1.0000   1.0000   1.0000   1.0000   1.0000   1.0000   1.0000   1.0000
     1.0000   1.0000   1.0000   1.0000   1.0000   1.0000   1.0000   1.0000
     1.0000   1.0000   1.0000   1.0000   1.0000   1.0000   1.0000   1.0000
     1.0000   1.0000   1.0000   1.0000   1.0000   0.0000   0.0000   0.0000
     0.0000   0.0000   0.0000   0.0000   0.0000   0.0000   0.0000   0.0000
     0.0000   0.0000   0.0000   0.0000   0.0000   0.0000   0.0000   0.0000
     0.0000   0.0000   0.0000   0.0000   0.0000   0.0000   0.0000   0.0000
     0.0000   0.0000   0.0000   0.0000   0.0000   0.0000   0.0000   0.0000

          k = 0.3333-0.5700 0.0000 (  1421 PWs)   bands (ev):

   -72.2450 -72.2445 -37.9639 -37.9445 -37.9160 -37.8789 -37.7801 -37.7671
   -27.6670  -5.7728  -5.7651  -5.6166   5.5502   8.0503   9.4883  10.2694
    11.5189  12.1495  12.3795  12.4175  13.2404  13.2414  13.5144  13.6862
    13.7693  13.8280  14.1413  14.2186  14.2250  14.2509  14.4101  14.4669
    14.5092  14.5687  15.3978  15.5531  19.0353  19.0773  19.9072  20.0327
    20.1920  20.4803  21.3445  23.9982  24.4775  25.2669  25.5380  25.9193
    26.4839  26.7674  27.5495  28.1649  29.7516  29.9902  30.2088  32.3097
    32.8604  33.0215  34.4856  34.7097  35.6770  36.4994  36.9017  37.3296

     occupation numbers 
     1.0000   1.0000   1.0000   1.0000   1.0000   1.0000   1.0000   1.0000
     1.0000   1.0000   1.0000   1.0000   1.0000   1.0000   1.0000   1.0000
     1.0000   1.0000   1.0000   1.0000   1.0000   1.0000   1.0000   1.0000
     1.0000   1.0000   1.0000   1.0000   1.0000   0.0000   0.0000   0.0000
     0.0000   0.0000   0.0000   0.0000   0.0000   0.0000   0.0000   0.0000
     0.0000   0.0000   0.0000   0.0000   0.0000   0.0000   0.0000   0.0000
     0.0000   0.0000   0.0000   0.0000   0.0000   0.0000   0.0000   0.0000
     0.0000   0.0000   0.0000   0.0000   0.0000   0.0000   0.0000   0.0000

          k = 0.3333-0.5700 0.6603 (  1414 PWs)   bands (ev):

   -72.2479 -72.2402 -37.9480 -37.9263 -37.9136 -37.8960 -37.7793 -37.7683
   -27.6724  -5.8051  -5.6619  -5.5929   6.0265   6.2301   9.8684  11.2914
    11.5781  11.8384  11.8986  12.4477  12.6446  13.2662  13.4851  13.5679
    13.6393  13.9777  14.0957  14.2049  14.2787  14.4217  14.4493  14.5227
    15.3753  16.2030  16.3663  17.1760  18.2956  18.4776  19.0965  19.2018
    19.2125  19.7294  20.2981  23.9728  24.4015  24.8944  25.0208  25.8658
    26.7480  27.7971  27.8773  28.5095  28.5303  29.6783  30.3806  32.3241
    32.6603  34.0119  34.8066  35.2977  35.5472  36.1666  37.2484  38.6915

     occupation numbers 
     1.0000   1.0000   1.0000   1.0000   1.0000   1.0000   1.0000   1.0000
     1.0000   1.0000   1.0000   1.0000   1.0000   1.0000   1.0000   1.0000
     1.0000   1.0000   1.0000   1.0000   1.0000   1.0000   1.0000   1.0000
     1.0000   1.0000   1.0000   1.0000   1.0000   0.0000   0.0000   0.0000
     0.0000   0.0000   0.0000   0.0000   0.0000   0.0000   0.0000   0.0000
     0.0000   0.0000   0.0000   0.0000   0.0000   0.0000   0.0000   0.0000
     0.0000   0.0000   0.0000   0.0000   0.0000   0.0000   0.0000   0.0000
     0.0000   0.0000   0.0000   0.0000   0.0000   0.0000   0.0000   0.0000

     highest occupied, lowest unoccupied level (ev):    14.3943   14.2509

!    total energy              =   -1364.36243913 Ry
     estimated scf accuracy    <       0.00000023 Ry

     The total energy is the sum of the following terms:
     one-electron contribution =    -415.17170613 Ry
     hartree contribution      =     244.73771003 Ry
     xc contribution           =    -104.63117299 Ry
     ewald contribution        =    -471.19519989 Ry
     one-center paw contrib.   =    -618.10207015 Ry
      -> PAW hartree energy AE =     184.69667219 Ry
      -> PAW hartree energy PS =    -175.27314719 Ry
      -> PAW xc energy AE      =    -496.80438826 Ry
      -> PAW xc energy PS      =      21.42590155 Ry
      -> total E_H with PAW    =     254.16123503 Ry
      -> total E_XC with PAW   =    -580.00965970 Ry

     convergence has been achieved in  53 iterations

     Writing all to output data dir calculations_bands/myprefix.save/
 
     init_run     :      6.64s CPU      2.08s WALL (       1 calls)
     electrons    :    169.92s CPU     45.22s WALL (       1 calls)

     Called by init_run:
     wfcinit      :      0.54s CPU      0.15s WALL (       1 calls)
     wfcinit:atom :      0.00s CPU      0.00s WALL (       5 calls)
     wfcinit:wfcr :      0.50s CPU      0.14s WALL (       5 calls)
     potinit      :      2.27s CPU      0.63s WALL (       1 calls)
     hinit0       :      3.03s CPU      1.00s WALL (       1 calls)

     Called by electrons:
     c_bands      :     68.79s CPU     17.90s WALL (      53 calls)
     sum_band     :     28.42s CPU      7.79s WALL (      53 calls)
     v_of_rho     :      2.54s CPU      0.66s WALL (      54 calls)
     v_h          :      0.23s CPU      0.06s WALL (      54 calls)
     v_xc         :      2.31s CPU      0.60s WALL (      54 calls)
     newd         :     18.03s CPU      5.10s WALL (      54 calls)
     PAW_pot      :     51.54s CPU     13.46s WALL (      54 calls)
     mix_rho      :      0.74s CPU      0.20s WALL (      53 calls)

     Called by c_bands:
     init_us_2    :      0.53s CPU      0.14s WALL (     535 calls)
     init_us_2:cp :      0.51s CPU      0.14s WALL (     535 calls)
     cegterg      :     58.40s CPU     15.17s WALL (     265 calls)

     Called by sum_band:
     sum_band:wei :      0.02s CPU      0.01s WALL (      53 calls)
     sum_band:loo :     12.01s CPU      3.12s WALL (      53 calls)
     sum_band:buf :      0.09s CPU      0.03s WALL (     265 calls)
     sum_band:ini :      0.25s CPU      0.07s WALL (     265 calls)
     sum_band:cal :      0.42s CPU      0.11s WALL (     265 calls)
     sum_band:bec :      0.10s CPU      0.03s WALL (     265 calls)
     addusdens    :      9.33s CPU      2.81s WALL (      53 calls)
     addusd:skk   :      0.01s CPU      0.00s WALL (     159 calls)
     addusd:dgemm :      0.90s CPU      0.61s WALL (     159 calls)
     addusd:qvan2 :      6.05s CPU      1.52s WALL (     159 calls)

     Called by *egterg:
     cdiaghg      :      9.74s CPU      2.54s WALL (     630 calls)
     cegterg:over :      1.24s CPU      0.32s WALL (     365 calls)
     cegterg:upda :      0.66s CPU      0.17s WALL (     365 calls)
     cegterg:last :      0.67s CPU      0.17s WALL (     332 calls)
     cdiaghg:chol :      0.71s CPU      0.18s WALL (     630 calls)
     cdiaghg:inve :      0.14s CPU      0.04s WALL (     630 calls)
     cdiaghg:para :      1.48s CPU      0.39s WALL (    1260 calls)
     h_psi        :     45.29s CPU     11.76s WALL (     635 calls)
     s_psi        :      0.36s CPU      0.09s WALL (     635 calls)
     g_psi        :      0.04s CPU      0.01s WALL (     365 calls)

     Called by h_psi:
     h_psi:calbec :      1.02s CPU      0.27s WALL (     635 calls)
     vloc_psi     :     43.71s CPU     11.35s WALL (     635 calls)
     add_vuspsi   :      0.46s CPU      0.12s WALL (     635 calls)

     General routines
     calbec       :      1.41s CPU      0.37s WALL (     900 calls)
     fft          :      2.89s CPU      0.80s WALL (     700 calls)
     ffts         :      1.13s CPU      0.32s WALL (     107 calls)
     fftw         :     47.90s CPU     12.46s WALL (   87224 calls)
     interpolate  :      1.26s CPU      0.35s WALL (      54 calls)
 
     Parallel routines

     PAW routines
     PAW_pot      :     51.54s CPU     13.46s WALL (      54 calls)
     PAW_symme    :      0.22s CPU      0.06s WALL (     107 calls)
 
     PWSCF        :   2m57.96s CPU     48.34s WALL

 
   This run was terminated on:   9:34:57   7Jun2023            

=------------------------------------------------------------------------------=
   JOB DONE.
=------------------------------------------------------------------------------=
