
     Program PWSCF v.7.0 starts on  5Jun2023 at 20:16: 5 

     This program is part of the open-source Quantum ESPRESSO suite
     for quantum simulation of materials; please cite
         "P. Giannozzi et al., J. Phys.:Condens. Matter 21 395502 (2009);
         "P. Giannozzi et al., J. Phys.:Condens. Matter 29 465901 (2017);
         "P. Giannozzi et al., J. Chem. Phys. 152 154105 (2020);
          URL http://www.quantum-espresso.org", 
     in publications or presentations arising from this work. More details at
     http://www.quantum-espresso.org/quote

     Parallel version (MPI & OpenMP), running on      32 processor cores
     Number of MPI processes:                 8
     Threads/MPI process:                     4

     MPI processes distributed on     1 nodes
     K-points division:     npool     =       2
     R & G space division:  proc/nbgrp/npool/nimage =       4
     108347 MiB available memory on the printing compute node when the environment starts
 
     Reading input from espresso_11383.pwi
Warning: card &CELL ignored
Warning: card / ignored

     Current dimensions of program PWSCF are:
     Max number of different atomic species (ntypx) = 10
     Max number of k-points (npk) =  40000
     Max angular momentum in pseudopotentials (lmaxx) =  4
     Message from routine setup:
     using ibrav=0 with symmetry is DISCOURAGED, use correct ibrav instead

     Subspace diagonalization in iterative solution of the eigenvalue problem:
     one sub-group per band group will be used
     scalapack distributed-memory algorithm (size of sub-group:  2*  2 procs)

 
     Parallelization info
     --------------------
     sticks:   dense  smooth     PW     G-vecs:    dense   smooth      PW
     Min         646     324     97                14903     5258     862
     Max         647     325     98                14904     5259     863
     Sum        2587    1297    391                59613    21033    3451
 
     Using Slab Decomposition
 


     bravais-lattice index     =            0
     lattice parameter (alat)  =      11.9827  a.u.
     unit-cell volume          =     949.6015 (a.u.)^3
     number of atoms/cell      =            8
     number of atomic types    =            3
     number of electrons       =        64.00
     number of Kohn-Sham states=           64
     kinetic-energy cutoff     =      30.0000  Ry
     charge density cutoff     =     240.0000  Ry
     scf convergence threshold =      1.0E-06
     mixing beta               =       0.7000
     number of iterations used =            8  plain     mixing
     Exchange-correlation= PBE
                           (   1   4   3   4   0   0   0)

     celldm(1)=  11.982698  celldm(2)=   0.000000  celldm(3)=   0.000000
     celldm(4)=   0.000000  celldm(5)=   0.000000  celldm(6)=   0.000000

     crystal axes: (cart. coord. in units of alat)
               a(1) = (   1.000000   0.000000   0.000000 )  
               a(2) = (   0.320850   0.947130   0.000000 )  
               a(3) = (  -0.660425  -0.473565   0.582731 )  

     reciprocal axes: (cart. coord. in units 2 pi/alat)
               b(1) = (  1.000000 -0.338760  0.858029 )  
               b(2) = (  0.000000  1.055821  0.858029 )  
               b(3) = (  0.000000  0.000000  1.716059 )  


     PseudoPot. # 1 for Sr read from file:
     /home/pragov/projects/rrg-bengioy-ad/pragov/crystal_structure_design/SSSP/Sr_pbe_v1.uspp.F.UPF
     MD5 check sum: 6b418c05fbe9db5448babca5e47b7a5b
     Pseudo is Ultrasoft + core correction, Zval = 10.0
     Generated by new atomic code, or converted to UPF format
     Using radial grid of  883 points,  6 beta functions with: 
                l(1) =   0
                l(2) =   0
                l(3) =   1
                l(4) =   1
                l(5) =   2
                l(6) =   2
     Q(r) pseudized with  6 coefficients,  rinner =    1.400   1.400   1.400
                                                       1.400   1.400

     PseudoPot. # 2 for Ce read from file:
     /home/pragov/projects/rrg-bengioy-ad/pragov/crystal_structure_design/SSSP/Ce.GGA-PBE-paw-v1.0.UPF
     MD5 check sum: f2b950f613061344c13339c8d844425d
     Pseudo is Projector augmented-wave + core cor, Zval = 12.0
     Generated using ATOMPAW code
     Shape of augmentation charge: BESSEL
     Using radial grid of 1102 points,  8 beta functions with: 
                l(1) =   0
                l(2) =   0
                l(3) =   1
                l(4) =   1
                l(5) =   2
                l(6) =   2
                l(7) =   3
                l(8) =   3
     Q(r) pseudized with 0 coefficients 


     PseudoPot. # 3 for N  read from file:
     /home/pragov/projects/rrg-bengioy-ad/pragov/crystal_structure_design/SSSP/N.pbe-n-radius_5.UPF
     MD5 check sum: 16739722b17309cd8fe442a2ace49922
     Pseudo is Ultrasoft + core correction, Zval =  5.0
     Generated using "atomic" code by A. Dal Corso  v.5.1
     Using radial grid of 1085 points,  4 beta functions with: 
                l(1) =   0
                l(2) =   0
                l(3) =   1
                l(4) =   1
     Q(r) pseudized with 0 coefficients 


     atomic species   valence    mass     pseudopotential
        Sr            10.00    87.62000     Sr( 1.00)
        Ce            12.00   140.11600     Ce( 1.00)
        N              5.00    14.00700     N ( 1.00)

      4 Sym. Ops., with inversion, found ( 2 have fractional translation)


                                    s                        frac. trans.

      isym =  1     identity                                     

 cryst.   s( 1) = (     1          0          0      )
                  (     0          1          0      )
                  (     0          0          1      )

 cart.    s( 1) = (  1.0000000 -0.0000000  0.0000000 )
                  (  0.0000000  1.0000000 -0.0000000 )
                  (  0.0000000  0.0000000  1.0000000 )


      isym =  2     180 deg rotation - cart. axis [0,0,1]        

 cryst.   s( 2) = (    -1          0          0      )
                  (     0         -1          0      )
                  (     1          1          1      )

 cart.    s( 2) = ( -1.0000000  0.0000000  0.0000000 )
                  (  0.0000000 -1.0000000  0.0000000 )
                  (  0.0000000  0.0000000  1.0000000 )


      isym =  3     inversion                                    

 cryst.   s( 3) = (    -1          0          0      )    f =(  0.2500000 )
                  (     0         -1          0      )       ( -0.2500000 )
                  (     0          0         -1      )       (  0.5000000 )

 cart.    s( 3) = ( -1.0000000  0.0000000 -0.0000000 )    f =( -0.1604249 )
                  (  0.0000000 -1.0000000  0.0000000 )       ( -0.4735650 )
                  (  0.0000000  0.0000000 -1.0000000 )       (  0.2913654 )


      isym =  4     inv. 180 deg rotation - cart. axis [0,0,1]   

 cryst.   s( 4) = (     1          0          0      )    f =(  0.2500000 )
                  (     0          1          0      )       ( -0.2500000 )
                  (    -1         -1         -1      )       (  0.5000000 )

 cart.    s( 4) = (  1.0000000 -0.0000000 -0.0000000 )    f =( -0.1604249 )
                  (  0.0000000  1.0000000 -0.0000000 )       ( -0.4735650 )
                  (  0.0000000  0.0000000 -1.0000000 )       (  0.2913654 )


   Cartesian axes

     site n.     atom                  positions (alat units)
         1           Sr  tau(   1) = (   0.0000000   0.0000000   0.0000000  )
         2           Sr  tau(   2) = (   0.5000000   0.0000000   0.2913654  )
         3           Ce  tau(   3) = (   0.1604249   0.4735650   0.2913654  )
         4           Ce  tau(   4) = (   0.6604249   0.4735650   0.0000000  )
         5           N   tau(   5) = (   0.9517278   0.6824470   0.0000000  )
         6           N   tau(   6) = (   0.4517278   0.6824470   0.2913654  )
         7           N   tau(   7) = (   0.3691221   0.2646831   0.0000000  )
         8           N   tau(   8) = (  -0.1308779   0.2646831   0.2913654  )

   Crystallographic axes

     site n.     atom                  positions (cryst. coord.)
         1           Sr  tau(   1) = (  0.0000000  0.0000000  0.0000000  )
         2           Sr  tau(   2) = (  0.7500000  0.2500000  0.5000000  )
         3           Ce  tau(   3) = (  0.2500000  0.7500000  0.5000000  )
         4           Ce  tau(   4) = (  0.5000000  0.5000000  0.0000000  )
         5           N   tau(   5) = (  0.7205420  0.7205420  0.0000000  )
         6           N   tau(   6) = (  0.4705420  0.9705420  0.5000000  )
         7           N   tau(   7) = (  0.2794580  0.2794580  0.0000000  )
         8           N   tau(   8) = (  0.0294580  0.5294580  0.5000000  )

     number of k points=    10
                       cart. coord. in units 2pi/alat
        k(    1) = (   0.0000000   0.0000000   0.0000000), wk =   0.0740741
        k(    2) = (   0.0000000   0.0000000   0.5720195), wk =   0.1481481
        k(    3) = (   0.0000000   0.3519404   0.2860098), wk =   0.2962963
        k(    4) = (   0.0000000   0.3519404   0.8580293), wk =   0.1481481
        k(    5) = (   0.3333333  -0.1129200   0.2860098), wk =   0.2962963
        k(    6) = (   0.3333333  -0.1129200   0.8580293), wk =   0.1481481
        k(    7) = (   0.3333333   0.2390204   0.5720195), wk =   0.2962963
        k(    8) = (   0.3333333   0.2390204  -0.0000000), wk =   0.1481481
        k(    9) = (   0.3333333  -0.4648604  -0.0000000), wk =   0.1481481
        k(   10) = (   0.3333333  -0.4648604   0.5720195), wk =   0.2962963

                       cryst. coord.
        k(    1) = (   0.0000000   0.0000000   0.0000000), wk =   0.0740741
        k(    2) = (   0.0000000   0.0000000   0.3333333), wk =   0.1481481
        k(    3) = (   0.0000000   0.3333333  -0.0000000), wk =   0.2962963
        k(    4) = (   0.0000000   0.3333333   0.3333333), wk =   0.1481481
        k(    5) = (   0.3333333  -0.0000000   0.0000000), wk =   0.2962963
        k(    6) = (   0.3333333  -0.0000000   0.3333333), wk =   0.1481481
        k(    7) = (   0.3333333   0.3333333   0.0000000), wk =   0.2962963
        k(    8) = (   0.3333333   0.3333333  -0.3333333), wk =   0.1481481
        k(    9) = (   0.3333333  -0.3333333   0.0000000), wk =   0.1481481
        k(   10) = (   0.3333333  -0.3333333   0.3333333), wk =   0.2962963

     Dense  grid:    59613 G-vectors     FFT dimensions: (  60,  60,  60)

     Smooth grid:    21033 G-vectors     FFT dimensions: (  48,  48,  48)

     Dynamical RAM for                 wfc:       0.64 MB

     Dynamical RAM for     wfc (w. buffer):       3.86 MB

     Dynamical RAM for           str. fact:       0.68 MB

     Dynamical RAM for           local pot:       0.00 MB

     Dynamical RAM for          nlocal pot:       1.33 MB

     Dynamical RAM for                qrad:       8.96 MB

     Dynamical RAM for          rho,v,vnew:       1.92 MB

     Dynamical RAM for               rhoin:       0.64 MB

     Dynamical RAM for            rho*nmix:       3.64 MB

     Dynamical RAM for           G-vectors:       0.89 MB

     Dynamical RAM for          h,s,v(r/c):       0.19 MB

     Dynamical RAM for          <psi|beta>:       0.13 MB

     Dynamical RAM for                 psi:       1.29 MB

     Dynamical RAM for                hpsi:       1.29 MB

     Dynamical RAM for                spsi:       1.29 MB

     Dynamical RAM for      wfcinit/wfcrot:       2.39 MB

     Dynamical RAM for           addusdens:      63.67 MB

     Estimated static dynamical RAM per process >      21.24 MB

     Estimated max dynamical RAM per process >      88.55 MB

     Estimated total dynamical RAM >     693.82 MB

     Check: negative core charge=   -0.000003

     Initial potential from superposition of free atoms

     starting charge      63.9187, renormalised to      64.0000

     negative rho (up, down):  1.250E-01 0.000E+00
     Starting wfcs are  106 randomized atomic wfcs
     Checking if some PAW data can be deallocated... 
       PAW data deallocated on    6 nodes for type:  2

     total cpu time spent up to now is        3.0 secs

     Self-consistent Calculation

     iteration #  1     ecut=    30.00 Ry     beta= 0.70
     Davidson diagonalization with overlap

---- Real-time Memory Report at c_bands before calling an iterative solver
           220 MiB given to the printing process from OS
             0 MiB allocation reported by mallinfo(arena+hblkhd)
        107514 MiB available memory on the node where the printing process lives
------------------
     ethr =  1.00E-02,  avg # of iterations =  2.0

     negative rho (up, down):  1.275E-01 0.000E+00

     total cpu time spent up to now is        4.1 secs

     total energy              =   -1182.66924914 Ry
     estimated scf accuracy    <       5.04721825 Ry

     iteration #  2     ecut=    30.00 Ry     beta= 0.70
     Davidson diagonalization with overlap

---- Real-time Memory Report at c_bands before calling an iterative solver
           309 MiB given to the printing process from OS
             0 MiB allocation reported by mallinfo(arena+hblkhd)
        107296 MiB available memory on the node where the printing process lives
------------------
     ethr =  7.89E-03,  avg # of iterations =  2.1

     negative rho (up, down):  1.276E-01 0.000E+00

     total cpu time spent up to now is        5.3 secs

     total energy              =   -1168.97057661 Ry
     estimated scf accuracy    <     228.28295201 Ry

     iteration #  3     ecut=    30.00 Ry     beta= 0.70
     Davidson diagonalization with overlap

---- Real-time Memory Report at c_bands before calling an iterative solver
           311 MiB given to the printing process from OS
             0 MiB allocation reported by mallinfo(arena+hblkhd)
        107266 MiB available memory on the node where the printing process lives
------------------
     ethr =  7.89E-03,  avg # of iterations =  2.1

     negative rho (up, down):  1.290E-01 0.000E+00

     total cpu time spent up to now is        6.4 secs

     total energy              =   -1185.18484458 Ry
     estimated scf accuracy    <       6.00433531 Ry

     iteration #  4     ecut=    30.00 Ry     beta= 0.70
     Davidson diagonalization with overlap

---- Real-time Memory Report at c_bands before calling an iterative solver
           314 MiB given to the printing process from OS
             0 MiB allocation reported by mallinfo(arena+hblkhd)
        107260 MiB available memory on the node where the printing process lives
------------------
     ethr =  7.89E-03,  avg # of iterations =  2.0

     negative rho (up, down):  1.294E-01 0.000E+00

     total cpu time spent up to now is        7.4 secs

     total energy              =   -1186.05906271 Ry
     estimated scf accuracy    <       0.96296465 Ry

     iteration #  5     ecut=    30.00 Ry     beta= 0.70
     Davidson diagonalization with overlap

---- Real-time Memory Report at c_bands before calling an iterative solver
           314 MiB given to the printing process from OS
             0 MiB allocation reported by mallinfo(arena+hblkhd)
        107256 MiB available memory on the node where the printing process lives
------------------
     ethr =  1.50E-03,  avg # of iterations =  1.5

     negative rho (up, down):  1.311E-01 0.000E+00

     total cpu time spent up to now is        8.4 secs

     total energy              =   -1185.76885998 Ry
     estimated scf accuracy    <       0.90300252 Ry

     iteration #  6     ecut=    30.00 Ry     beta= 0.70
     Davidson diagonalization with overlap

---- Real-time Memory Report at c_bands before calling an iterative solver
           316 MiB given to the printing process from OS
             0 MiB allocation reported by mallinfo(arena+hblkhd)
        107253 MiB available memory on the node where the printing process lives
------------------
     ethr =  1.41E-03,  avg # of iterations =  1.0

     negative rho (up, down):  1.315E-01 0.000E+00

     total cpu time spent up to now is        9.4 secs

     total energy              =   -1185.77682109 Ry
     estimated scf accuracy    <       0.26795149 Ry

     iteration #  7     ecut=    30.00 Ry     beta= 0.70
     Davidson diagonalization with overlap

---- Real-time Memory Report at c_bands before calling an iterative solver
           316 MiB given to the printing process from OS
             0 MiB allocation reported by mallinfo(arena+hblkhd)
        107254 MiB available memory on the node where the printing process lives
------------------
     ethr =  4.19E-04,  avg # of iterations =  1.3

     negative rho (up, down):  1.319E-01 0.000E+00

     total cpu time spent up to now is       10.4 secs

     total energy              =   -1185.74620717 Ry
     estimated scf accuracy    <       0.13471985 Ry

     iteration #  8     ecut=    30.00 Ry     beta= 0.70
     Davidson diagonalization with overlap

---- Real-time Memory Report at c_bands before calling an iterative solver
           316 MiB given to the printing process from OS
             0 MiB allocation reported by mallinfo(arena+hblkhd)
        107247 MiB available memory on the node where the printing process lives
------------------
     ethr =  2.10E-04,  avg # of iterations =  1.7

     negative rho (up, down):  1.320E-01 0.000E+00

     total cpu time spent up to now is       11.4 secs

     total energy              =   -1185.74958284 Ry
     estimated scf accuracy    <       0.01573841 Ry

     iteration #  9     ecut=    30.00 Ry     beta= 0.70
     Davidson diagonalization with overlap

---- Real-time Memory Report at c_bands before calling an iterative solver
           316 MiB given to the printing process from OS
             0 MiB allocation reported by mallinfo(arena+hblkhd)
        107249 MiB available memory on the node where the printing process lives
------------------
     ethr =  2.46E-05,  avg # of iterations =  6.8

     negative rho (up, down):  1.321E-01 0.000E+00

     total cpu time spent up to now is       12.5 secs

     total energy              =   -1185.75017208 Ry
     estimated scf accuracy    <       0.00144523 Ry

     iteration # 10     ecut=    30.00 Ry     beta= 0.70
     Davidson diagonalization with overlap

---- Real-time Memory Report at c_bands before calling an iterative solver
           318 MiB given to the printing process from OS
             0 MiB allocation reported by mallinfo(arena+hblkhd)
        107243 MiB available memory on the node where the printing process lives
------------------
     c_bands:  1 eigenvalues not converged
     c_bands:  1 eigenvalues not converged
     ethr =  2.26E-06,  avg # of iterations =  9.1

     negative rho (up, down):  1.321E-01 0.000E+00

     total cpu time spent up to now is       14.0 secs

     total energy              =   -1185.75063418 Ry
     estimated scf accuracy    <       0.00196014 Ry

     iteration # 11     ecut=    30.00 Ry     beta= 0.70
     Davidson diagonalization with overlap

---- Real-time Memory Report at c_bands before calling an iterative solver
           321 MiB given to the printing process from OS
             0 MiB allocation reported by mallinfo(arena+hblkhd)
        107230 MiB available memory on the node where the printing process lives
------------------
     ethr =  2.26E-06,  avg # of iterations =  1.4

     negative rho (up, down):  1.321E-01 0.000E+00

     total cpu time spent up to now is       14.9 secs

     total energy              =   -1185.75088900 Ry
     estimated scf accuracy    <       0.00004227 Ry

     iteration # 12     ecut=    30.00 Ry     beta= 0.70
     Davidson diagonalization with overlap

---- Real-time Memory Report at c_bands before calling an iterative solver
           321 MiB given to the printing process from OS
             0 MiB allocation reported by mallinfo(arena+hblkhd)
        107236 MiB available memory on the node where the printing process lives
------------------
     ethr =  6.60E-08,  avg # of iterations =  2.5

     negative rho (up, down):  1.321E-01 0.000E+00

     total cpu time spent up to now is       15.9 secs

     total energy              =   -1185.75089868 Ry
     estimated scf accuracy    <       0.00000323 Ry

     iteration # 13     ecut=    30.00 Ry     beta= 0.70
     Davidson diagonalization with overlap

---- Real-time Memory Report at c_bands before calling an iterative solver
           321 MiB given to the printing process from OS
             0 MiB allocation reported by mallinfo(arena+hblkhd)
        107235 MiB available memory on the node where the printing process lives
------------------
     ethr =  5.05E-09,  avg # of iterations =  5.7

     negative rho (up, down):  1.321E-01 0.000E+00

     total cpu time spent up to now is       17.0 secs

     total energy              =   -1185.75089898 Ry
     estimated scf accuracy    <       0.00001018 Ry

     iteration # 14     ecut=    30.00 Ry     beta= 0.70
     Davidson diagonalization with overlap

---- Real-time Memory Report at c_bands before calling an iterative solver
           321 MiB given to the printing process from OS
             0 MiB allocation reported by mallinfo(arena+hblkhd)
        107232 MiB available memory on the node where the printing process lives
------------------
     ethr =  5.05E-09,  avg # of iterations =  2.0

     negative rho (up, down):  1.321E-01 0.000E+00

     total cpu time spent up to now is       17.9 secs

     End of self-consistent calculation

          k = 0.0000 0.0000 0.0000 (  2649 PWs)   bands (ev):

   -22.8528 -22.7291 -22.5957 -22.4913  -6.4999  -5.7780  -5.6128  -5.6128
    -5.4983  -5.4983  -5.1501  -4.9851  -4.9851  -4.6727  -4.6317  -4.6317
    -1.4059  -1.3572  -0.1375   0.0004   8.6037   9.1091   9.5223   9.5223
     9.7188   9.7188  10.2428  10.2428  10.2648  10.2649  10.2853  10.7281
    11.5456  11.8205  12.0014  12.0014  12.0222  12.0320  12.0320  12.0865
    12.2284  12.3735  12.5169  12.5170  13.0841  13.0841  13.5936  14.4900
    14.4915  14.9401  14.9401  15.6691  15.6691  15.8389  15.8390  16.1780
    17.1360  17.5248  17.6084  18.4429  19.0880  19.5958  19.5958  19.5970

     occupation numbers 
     1.0000   1.0000   1.0000   1.0000   1.0000   1.0000   1.0000   1.0000
     1.0000   1.0000   1.0000   1.0000   1.0000   1.0000   1.0000   1.0000
     1.0000   1.0000   1.0000   1.0000   1.0000   1.0000   1.0000   1.0000
     1.0000   1.0000   1.0000   1.0000   1.0000   1.0000   1.0000   1.0000
     0.0000   0.0000   0.0000   0.0000   0.0000   0.0000   0.0000   0.0000
     0.0000   0.0000   0.0000   0.0000   0.0000   0.0000   0.0000   0.0000
     0.0000   0.0000   0.0000   0.0000   0.0000   0.0000   0.0000   0.0000
     0.0000   0.0000   0.0000   0.0000   0.0000   0.0000   0.0000   0.0000

          k = 0.0000 0.0000 0.5720 (  2640 PWs)   bands (ev):

   -22.7923 -22.7474 -22.5979 -22.5276  -6.6555  -6.5033  -5.8537  -5.6658
    -5.5051  -5.1781  -4.8988  -4.8944  -4.8785  -4.8555  -4.7329  -4.6463
    -0.6242  -0.5220   0.4638   0.5439   7.9782   8.0985   8.7626   8.8598
     8.8702   9.1044   9.1678   9.1872   9.4133   9.5890  10.4150  10.5036
    11.7976  11.8353  11.8818  11.9046  11.9817  12.0167  12.0292  12.0312
    12.3236  12.3386  12.3677  12.4581  12.5118  12.8733  14.5127  15.0463
    15.4504  15.7034  16.1881  16.2229  16.2420  16.5288  16.6917  16.9055
    17.6046  17.9268  18.5665  18.6103  18.8450  19.0653  19.2577  19.2715

     occupation numbers 
     1.0000   1.0000   1.0000   1.0000   1.0000   1.0000   1.0000   1.0000
     1.0000   1.0000   1.0000   1.0000   1.0000   1.0000   1.0000   1.0000
     1.0000   1.0000   1.0000   1.0000   1.0000   1.0000   1.0000   1.0000
     1.0000   1.0000   1.0000   1.0000   1.0000   1.0000   1.0000   1.0000
     0.0000   0.0000   0.0000   0.0000   0.0000   0.0000   0.0000   0.0000
     0.0000   0.0000   0.0000   0.0000   0.0000   0.0000   0.0000   0.0000
     0.0000   0.0000   0.0000   0.0000   0.0000   0.0000   0.0000   0.0000
     0.0000   0.0000   0.0000   0.0000   0.0000   0.0000   0.0000   0.0000

          k = 0.0000 0.3519 0.2860 (  2644 PWs)   bands (ev):

   -22.8085 -22.7425 -22.6012 -22.5160  -6.5151  -6.1976  -5.6508  -5.5796
    -5.4383  -5.3416  -5.0775  -5.0051  -4.9700  -4.8378  -4.7439  -4.6890
    -0.9446  -0.8180   0.1115   0.2255   8.5110   8.7065   9.0262   9.2406
     9.3049   9.3191   9.3875   9.7398  10.0169  10.1351  10.1727  10.4275
    11.7716  11.8059  11.9340  11.9436  12.0206  12.0352  12.0452  12.1182
    12.1926  12.2822  12.4391  12.5485  12.8691  13.1419  13.5072  14.5046
    14.8514  14.9575  15.5489  15.7200  16.1470  16.6114  16.7668  16.9183
    17.6906  17.9892  18.0348  18.2684  18.3647  18.4716  19.1888  19.5507

     occupation numbers 
     1.0000   1.0000   1.0000   1.0000   1.0000   1.0000   1.0000   1.0000
     1.0000   1.0000   1.0000   1.0000   1.0000   1.0000   1.0000   1.0000
     1.0000   1.0000   1.0000   1.0000   1.0000   1.0000   1.0000   1.0000
     1.0000   1.0000   1.0000   1.0000   1.0000   1.0000   1.0000   1.0000
     0.0000   0.0000   0.0000   0.0000   0.0000   0.0000   0.0000   0.0000
     0.0000   0.0000   0.0000   0.0000   0.0000   0.0000   0.0000   0.0000
     0.0000   0.0000   0.0000   0.0000   0.0000   0.0000   0.0000   0.0000
     0.0000   0.0000   0.0000   0.0000   0.0000   0.0000   0.0000   0.0000

          k = 0.0000 0.3519 0.8580 (  2624 PWs)   bands (ev):

   -22.7779 -22.7559 -22.5839 -22.5482  -6.5874  -6.4648  -5.9692  -5.8729
    -5.2576  -5.2005  -4.9822  -4.8903  -4.8122  -4.8007  -4.7147  -4.7028
    -0.5865  -0.5182   0.4454   0.4881   8.1302   8.2692   8.6251   8.7980
     8.9305   9.0620   9.0962   9.2780   9.5020   9.6222  10.2583  10.3378
    11.8071  11.8241  11.8907  11.9046  11.9411  11.9868  12.0354  12.0521
    12.2709  12.2710  12.4238  12.4943  12.5580  12.6902  14.3902  14.4909
    15.1350  15.5679  16.1408  16.4662  16.5104  16.9261  17.3716  17.3994
    17.9239  17.9444  18.4082  18.6948  18.7733  19.0699  19.6262  19.8743

     occupation numbers 
     1.0000   1.0000   1.0000   1.0000   1.0000   1.0000   1.0000   1.0000
     1.0000   1.0000   1.0000   1.0000   1.0000   1.0000   1.0000   1.0000
     1.0000   1.0000   1.0000   1.0000   1.0000   1.0000   1.0000   1.0000
     1.0000   1.0000   1.0000   1.0000   1.0000   1.0000   1.0000   1.0000
     0.0000   0.0000   0.0000   0.0000   0.0000   0.0000   0.0000   0.0000
     0.0000   0.0000   0.0000   0.0000   0.0000   0.0000   0.0000   0.0000
     0.0000   0.0000   0.0000   0.0000   0.0000   0.0000   0.0000   0.0000
     0.0000   0.0000   0.0000   0.0000   0.0000   0.0000   0.0000   0.0000

          k = 0.3333-0.1129 0.2860 (  2644 PWs)   bands (ev):

   -22.8085 -22.7425 -22.6012 -22.5160  -6.5151  -6.1976  -5.6508  -5.5796
    -5.4383  -5.3415  -5.0775  -5.0051  -4.9700  -4.8378  -4.7439  -4.6890
    -0.9446  -0.8180   0.1115   0.2255   8.5110   8.7065   9.0262   9.2406
     9.3049   9.3191   9.3875   9.7398  10.0169  10.1351  10.1727  10.4275
    11.7716  11.8059  11.9340  11.9436  12.0205  12.0352  12.0451  12.1182
    12.1927  12.2823  12.4391  12.5485  12.8691  13.1419  13.5072  14.5046
    14.8514  14.9575  15.5489  15.7200  16.1470  16.6114  16.7668  16.9183
    17.6906  17.9892  18.0348  18.2684  18.3647  18.4716  19.1888  19.5506

     occupation numbers 
     1.0000   1.0000   1.0000   1.0000   1.0000   1.0000   1.0000   1.0000
     1.0000   1.0000   1.0000   1.0000   1.0000   1.0000   1.0000   1.0000
     1.0000   1.0000   1.0000   1.0000   1.0000   1.0000   1.0000   1.0000
     1.0000   1.0000   1.0000   1.0000   1.0000   1.0000   1.0000   1.0000
     0.0000   0.0000   0.0000   0.0000   0.0000   0.0000   0.0000   0.0000
     0.0000   0.0000   0.0000   0.0000   0.0000   0.0000   0.0000   0.0000
     0.0000   0.0000   0.0000   0.0000   0.0000   0.0000   0.0000   0.0000
     0.0000   0.0000   0.0000   0.0000   0.0000   0.0000   0.0000   0.0000

          k = 0.3333-0.1129 0.8580 (  2624 PWs)   bands (ev):

   -22.7779 -22.7559 -22.5839 -22.5482  -6.5874  -6.4648  -5.9692  -5.8729
    -5.2576  -5.2005  -4.9822  -4.8903  -4.8121  -4.8007  -4.7147  -4.7028
    -0.5865  -0.5182   0.4454   0.4881   8.1302   8.2692   8.6251   8.7981
     8.9305   9.0620   9.0962   9.2780   9.5020   9.6222  10.2583  10.3377
    11.8071  11.8241  11.8907  11.9047  11.9411  11.9867  12.0353  12.0522
    12.2710  12.2710  12.4237  12.4944  12.5580  12.6902  14.3902  14.4909
    15.1351  15.5679  16.1408  16.4662  16.5105  16.9261  17.3717  17.3994
    17.9239  17.9444  18.4082  18.6948  18.7733  19.0699  19.6263  19.8743

     occupation numbers 
     1.0000   1.0000   1.0000   1.0000   1.0000   1.0000   1.0000   1.0000
     1.0000   1.0000   1.0000   1.0000   1.0000   1.0000   1.0000   1.0000
     1.0000   1.0000   1.0000   1.0000   1.0000   1.0000   1.0000   1.0000
     1.0000   1.0000   1.0000   1.0000   1.0000   1.0000   1.0000   1.0000
     0.0000   0.0000   0.0000   0.0000   0.0000   0.0000   0.0000   0.0000
     0.0000   0.0000   0.0000   0.0000   0.0000   0.0000   0.0000   0.0000
     0.0000   0.0000   0.0000   0.0000   0.0000   0.0000   0.0000   0.0000
     0.0000   0.0000   0.0000   0.0000   0.0000   0.0000   0.0000   0.0000

          k = 0.3333 0.2390 0.5720 (  2624 PWs)   bands (ev):

   -22.7779 -22.7559 -22.5839 -22.5482  -6.5874  -6.4648  -5.9692  -5.8729
    -5.2576  -5.2005  -4.9822  -4.8903  -4.8122  -4.8007  -4.7147  -4.7028
    -0.5865  -0.5182   0.4454   0.4881   8.1302   8.2692   8.6251   8.7980
     8.9305   9.0620   9.0962   9.2780   9.5020   9.6222  10.2583  10.3378
    11.8071  11.8242  11.8907  11.9046  11.9411  11.9868  12.0353  12.0521
    12.2709  12.2710  12.4238  12.4943  12.5580  12.6902  14.3902  14.4909
    15.1350  15.5679  16.1408  16.4662  16.5105  16.9261  17.3716  17.3994
    17.9239  17.9444  18.4082  18.6948  18.7733  19.0699  19.6263  19.8742

     occupation numbers 
     1.0000   1.0000   1.0000   1.0000   1.0000   1.0000   1.0000   1.0000
     1.0000   1.0000   1.0000   1.0000   1.0000   1.0000   1.0000   1.0000
     1.0000   1.0000   1.0000   1.0000   1.0000   1.0000   1.0000   1.0000
     1.0000   1.0000   1.0000   1.0000   1.0000   1.0000   1.0000   1.0000
     0.0000   0.0000   0.0000   0.0000   0.0000   0.0000   0.0000   0.0000
     0.0000   0.0000   0.0000   0.0000   0.0000   0.0000   0.0000   0.0000
     0.0000   0.0000   0.0000   0.0000   0.0000   0.0000   0.0000   0.0000
     0.0000   0.0000   0.0000   0.0000   0.0000   0.0000   0.0000   0.0000

          k = 0.3333 0.2390-0.0000 (  2641 PWs)   bands (ev):

   -22.8120 -22.7498 -22.5809 -22.5290  -6.3156  -5.8758  -5.8420  -5.8420
    -5.2494  -5.2494  -5.0370  -4.9306  -4.8920  -4.8920  -4.7275  -4.7275
    -1.3503  -1.2179  -0.2027  -0.1013   8.8978   9.0703   9.2560   9.2560
    10.0029  10.0590  10.0590  10.2155  10.2155  10.2678  10.2678  10.4759
    11.7056  11.8008  11.8579  11.8580  12.0258  12.0718  12.1374  12.1375
    12.3648  12.3649  12.4131  12.8301  12.9912  12.9912  13.2356  13.5773
    13.6609  13.6610  15.3474  16.2674  16.2674  16.4464  16.6164  17.1127
    17.9959  17.9961  18.1215  18.2308  18.9453  19.0120  19.3738  19.3739

     occupation numbers 
     1.0000   1.0000   1.0000   1.0000   1.0000   1.0000   1.0000   1.0000
     1.0000   1.0000   1.0000   1.0000   1.0000   1.0000   1.0000   1.0000
     1.0000   1.0000   1.0000   1.0000   1.0000   1.0000   1.0000   1.0000
     1.0000   1.0000   1.0000   1.0000   1.0000   1.0000   1.0000   1.0000
     0.0000   0.0000   0.0000   0.0000   0.0000   0.0000   0.0000   0.0000
     0.0000   0.0000   0.0000   0.0000   0.0000   0.0000   0.0000   0.0000
     0.0000   0.0000   0.0000   0.0000   0.0000   0.0000   0.0000   0.0000
     0.0000   0.0000   0.0000   0.0000   0.0000   0.0000   0.0000   0.0000

          k = 0.3333-0.4649-0.0000 (  2640 PWs)   bands (ev):

   -22.7923 -22.7474 -22.5979 -22.5276  -6.6555  -6.5034  -5.8537  -5.6658
    -5.5051  -5.1782  -4.8988  -4.8944  -4.8786  -4.8555  -4.7329  -4.6464
    -0.6242  -0.5220   0.4638   0.5439   7.9782   8.0985   8.7626   8.8598
     8.8702   9.1044   9.1678   9.1872   9.4133   9.5890  10.4150  10.5036
    11.7976  11.8353  11.8818  11.9046  11.9818  12.0167  12.0292  12.0312
    12.3237  12.3384  12.3677  12.4581  12.5118  12.8734  14.5127  15.0463
    15.4504  15.7034  16.1881  16.2229  16.2419  16.5288  16.6917  16.9055
    17.6046  17.9268  18.5665  18.6103  18.8450  19.0653  19.2577  19.2715

     occupation numbers 
     1.0000   1.0000   1.0000   1.0000   1.0000   1.0000   1.0000   1.0000
     1.0000   1.0000   1.0000   1.0000   1.0000   1.0000   1.0000   1.0000
     1.0000   1.0000   1.0000   1.0000   1.0000   1.0000   1.0000   1.0000
     1.0000   1.0000   1.0000   1.0000   1.0000   1.0000   1.0000   1.0000
     0.0000   0.0000   0.0000   0.0000   0.0000   0.0000   0.0000   0.0000
     0.0000   0.0000   0.0000   0.0000   0.0000   0.0000   0.0000   0.0000
     0.0000   0.0000   0.0000   0.0000   0.0000   0.0000   0.0000   0.0000
     0.0000   0.0000   0.0000   0.0000   0.0000   0.0000   0.0000   0.0000

          k = 0.3333-0.4649 0.5720 (  2612 PWs)   bands (ev):

   -22.7759 -22.7629 -22.5880 -22.5429  -6.3807  -6.2546  -5.7592  -5.7390
    -5.3193  -5.2088  -5.1576  -4.9762  -4.9449  -4.8199  -4.7326  -4.7307
    -0.9510  -0.9465   0.2455   0.2547   8.2913   8.5602   9.0116   9.0974
     9.2192   9.2993   9.5115   9.8218  10.0851  10.1788  10.4288  10.5448
    11.7325  11.8374  11.8460  11.9175  12.0063  12.0100  12.0908  12.1247
    12.1986  12.2427  12.4596  12.6019  12.9819  13.0363  13.2258  14.2231
    14.3925  14.6124  16.1050  16.1719  16.6376  16.7127  16.7133  17.3717
    17.3731  17.9697  18.1853  18.3566  18.6149  18.6794  18.9137  19.5665

     occupation numbers 
     1.0000   1.0000   1.0000   1.0000   1.0000   1.0000   1.0000   1.0000
     1.0000   1.0000   1.0000   1.0000   1.0000   1.0000   1.0000   1.0000
     1.0000   1.0000   1.0000   1.0000   1.0000   1.0000   1.0000   1.0000
     1.0000   1.0000   1.0000   1.0000   1.0000   1.0000   1.0000   1.0000
     0.0000   0.0000   0.0000   0.0000   0.0000   0.0000   0.0000   0.0000
     0.0000   0.0000   0.0000   0.0000   0.0000   0.0000   0.0000   0.0000
     0.0000   0.0000   0.0000   0.0000   0.0000   0.0000   0.0000   0.0000
     0.0000   0.0000   0.0000   0.0000   0.0000   0.0000   0.0000   0.0000

     highest occupied, lowest unoccupied level (ev):    10.7281   11.5456

!    total energy              =   -1185.75089991 Ry
     estimated scf accuracy    <       0.00000010 Ry

     The total energy is the sum of the following terms:
     one-electron contribution =     -21.65744792 Ry
     hartree contribution      =      50.53448589 Ry
     xc contribution           =     -79.01598844 Ry
     ewald contribution        =    -319.15902241 Ry
     one-center paw contrib.   =    -816.45292704 Ry
      -> PAW hartree energy AE =       0.00000000 Ry
      -> PAW hartree energy PS =       0.00000000 Ry
      -> PAW xc energy AE      =       0.00000000 Ry
      -> PAW xc energy PS      =       0.00000000 Ry
      -> total E_H with PAW    =      50.53448589 Ry
      -> total E_XC with PAW   =     -79.01598844 Ry

     convergence has been achieved in  14 iterations

     Writing all to output data dir calculations_bands/myprefix.save/
 
     init_run     :      7.82s CPU      2.63s WALL (       1 calls)
     electrons    :     51.67s CPU     15.05s WALL (       1 calls)

     Called by init_run:
     wfcinit      :      1.34s CPU      0.35s WALL (       1 calls)
     wfcinit:atom :      0.01s CPU      0.00s WALL (       5 calls)
     wfcinit:wfcr :      1.27s CPU      0.33s WALL (       5 calls)
     potinit      :      2.61s CPU      0.82s WALL (       1 calls)
     hinit0       :      3.03s CPU      1.21s WALL (       1 calls)

     Called by electrons:
     c_bands      :     26.80s CPU      6.96s WALL (      14 calls)
     sum_band     :      8.15s CPU      2.40s WALL (      14 calls)
     v_of_rho     :      0.94s CPU      0.25s WALL (      15 calls)
     v_h          :      0.06s CPU      0.02s WALL (      15 calls)
     v_xc         :      0.88s CPU      0.24s WALL (      15 calls)
     newd         :      3.65s CPU      1.00s WALL (      15 calls)
     PAW_pot      :     12.48s CPU      4.58s WALL (      15 calls)
     mix_rho      :      0.24s CPU      0.06s WALL (      14 calls)

     Called by c_bands:
     init_us_2    :      0.14s CPU      0.04s WALL (     145 calls)
     init_us_2:cp :      0.14s CPU      0.04s WALL (     145 calls)
     cegterg      :     24.30s CPU      6.31s WALL (      70 calls)

     Called by sum_band:
     sum_band:wei :      0.00s CPU      0.00s WALL (      14 calls)
     sum_band:loo :      4.20s CPU      1.09s WALL (      14 calls)
     sum_band:buf :      0.04s CPU      0.01s WALL (      70 calls)
     sum_band:ini :      0.06s CPU      0.02s WALL (      70 calls)
     sum_band:cal :      0.18s CPU      0.05s WALL (      70 calls)
     sum_band:bec :      0.03s CPU      0.01s WALL (      70 calls)
     addusdens    :      3.15s CPU      1.10s WALL (      14 calls)
     addusd:skk   :      0.01s CPU      0.00s WALL (      42 calls)
     addusd:dgemm :      0.44s CPU      0.34s WALL (      42 calls)
     addusd:qvan2 :      2.31s CPU      0.64s WALL (      42 calls)

     Called by *egterg:
     cdiaghg      :      4.14s CPU      1.08s WALL (     290 calls)
     cegterg:over :      0.65s CPU      0.17s WALL (     220 calls)
     cegterg:upda :      0.31s CPU      0.08s WALL (     220 calls)
     cegterg:last :      0.55s CPU      0.14s WALL (     129 calls)
     cdiaghg:chol :      0.30s CPU      0.08s WALL (     290 calls)
     cdiaghg:inve :      0.06s CPU      0.02s WALL (     290 calls)
     cdiaghg:para :      0.66s CPU      0.17s WALL (     580 calls)
     h_psi        :     19.21s CPU      4.98s WALL (     295 calls)
     s_psi        :      0.20s CPU      0.05s WALL (     295 calls)
     g_psi        :      0.02s CPU      0.01s WALL (     220 calls)

     Called by h_psi:
     h_psi:calbec :      0.45s CPU      0.12s WALL (     295 calls)
     vloc_psi     :     18.47s CPU      4.78s WALL (     295 calls)
     add_vuspsi   :      0.24s CPU      0.06s WALL (     295 calls)

     General routines
     calbec       :      0.62s CPU      0.16s WALL (     365 calls)
     fft          :      1.99s CPU      0.59s WALL (     193 calls)
     ffts         :      1.15s CPU      0.35s WALL (      29 calls)
     fftw         :     19.89s CPU      5.15s WALL (   25942 calls)
     interpolate  :      1.19s CPU      0.36s WALL (      15 calls)
 
     Parallel routines

     PAW routines
     PAW_pot      :     12.48s CPU      4.58s WALL (      15 calls)
     PAW_symme    :      0.05s CPU      0.02s WALL (      29 calls)
 
     PWSCF        :   1m 0.72s CPU     18.53s WALL

 
   This run was terminated on:  20:16:23   5Jun2023            

=------------------------------------------------------------------------------=
   JOB DONE.
=------------------------------------------------------------------------------=
