
     Program PWSCF v.7.0 starts on  7Jun2023 at  9:17:14 

     This program is part of the open-source Quantum ESPRESSO suite
     for quantum simulation of materials; please cite
         "P. Giannozzi et al., J. Phys.:Condens. Matter 21 395502 (2009);
         "P. Giannozzi et al., J. Phys.:Condens. Matter 29 465901 (2017);
         "P. Giannozzi et al., J. Chem. Phys. 152 154105 (2020);
          URL http://www.quantum-espresso.org", 
     in publications or presentations arising from this work. More details at
     http://www.quantum-espresso.org/quote

     Parallel version (MPI & OpenMP), running on      32 processor cores
     Number of MPI processes:                 8
     Threads/MPI process:                     4

     MPI processes distributed on     1 nodes
     K-points division:     npool     =       2
     R & G space division:  proc/nbgrp/npool/nimage =       4
     123771 MiB available memory on the printing compute node when the environment starts
 
     Reading input from espresso_9668.pwi
Warning: card &CELL ignored
Warning: card / ignored

     Current dimensions of program PWSCF are:
     Max number of different atomic species (ntypx) = 10
     Max number of k-points (npk) =  40000
     Max angular momentum in pseudopotentials (lmaxx) =  4
     file Mg.pbe-n-kjpaw_psl.0.3.0.UPF: wavefunction(s)  3S renormalized
     file O.pbe-n-kjpaw_psl.0.1.UPF: wavefunction(s)  2P renormalized
     Message from routine setup:
     using ibrav=0 with symmetry is DISCOURAGED, use correct ibrav instead

     Subspace diagonalization in iterative solution of the eigenvalue problem:
     one sub-group per band group will be used
     scalapack distributed-memory algorithm (size of sub-group:  2*  2 procs)

 
     Parallelization info
     --------------------
     sticks:   dense  smooth     PW     G-vecs:    dense   smooth      PW
     Min         333     168     49                18747     6641    1049
     Max         334     169     50                18748     6642    1051
     Sum        1333     673    197                74989    26567    4199
 
     Using Slab Decomposition
 


     bravais-lattice index     =            0
     lattice parameter (alat)  =       5.9720  a.u.
     unit-cell volume          =    1194.2793 (a.u.)^3
     number of atoms/cell      =           18
     number of atomic types    =            3
     number of electrons       =        80.00
     number of Kohn-Sham states=           64
     kinetic-energy cutoff     =      30.0000  Ry
     charge density cutoff     =     240.0000  Ry
     scf convergence threshold =      1.0E-06
     mixing beta               =       0.7000
     number of iterations used =            8  plain     mixing
     Exchange-correlation= SLA  PW   PBX  PBC
                           (   1   4   3   4   0   0   0)

     celldm(1)=   5.972047  celldm(2)=   0.000000  celldm(3)=   0.000000
     celldm(4)=   0.000000  celldm(5)=   0.000000  celldm(6)=   0.000000

     crystal axes: (cart. coord. in units of alat)
               a(1) = (   1.000000   0.000000   0.000000 )  
               a(2) = (  -0.064776   1.966346   0.000000 )  
               a(3) = (  -0.030612  -0.743244   2.851519 )  

     reciprocal axes: (cart. coord. in units 2 pi/alat)
               b(1) = (  1.000000  0.032942  0.019322 )  
               b(2) = (  0.000000  0.508557  0.132555 )  
               b(3) = (  0.000000  0.000000  0.350690 )  


     PseudoPot. # 1 for Mg read from file:
     /home/pragov/projects/rrg-bengioy-ad/pragov/crystal_structure_design/SSSP/Mg.pbe-n-kjpaw_psl.0.3.0.UPF
     MD5 check sum: 24ecedc7f3e3cbe212e682f4413594e4
     Pseudo is Projector augmented-wave + core cor, Zval =  2.0
     Generated using "atomic" code by A. Dal Corso  v.5.0.99 svn rev. 10869
     Shape of augmentation charge: PSQ
     Using radial grid of 1129 points,  4 beta functions with: 
                l(1) =   0
                l(2) =   0
                l(3) =   1
                l(4) =   1
     Q(r) pseudized with 0 coefficients 


     PseudoPot. # 2 for B  read from file:
     /home/pragov/projects/rrg-bengioy-ad/pragov/crystal_structure_design/SSSP/b_pbe_v1.4.uspp.F.UPF
     MD5 check sum: cc6de2960df11db49a60e589f9ebb39b
     Pseudo is Ultrasoft + core correction, Zval =  3.0
     Generated by new atomic code, or converted to UPF format
     Using radial grid of  781 points,  4 beta functions with: 
                l(1) =   0
                l(2) =   0
                l(3) =   1
                l(4) =   1
     Q(r) pseudized with  8 coefficients,  rinner =    1.100   1.100   1.100


     PseudoPot. # 3 for O  read from file:
     /home/pragov/projects/rrg-bengioy-ad/pragov/crystal_structure_design/SSSP/O.pbe-n-kjpaw_psl.0.1.UPF
     MD5 check sum: 0234752ac141de4415c5fc33072bef88
     Pseudo is Projector augmented-wave + core cor, Zval =  6.0
     Generated using "atomic" code by A. Dal Corso  v.5.0.99 svn rev. 10869
     Shape of augmentation charge: BESSEL
     Using radial grid of 1095 points,  4 beta functions with: 
                l(1) =   0
                l(2) =   0
                l(3) =   1
                l(4) =   1
     Q(r) pseudized with 0 coefficients 


     atomic species   valence    mass     pseudopotential
        Mg             2.00    24.30500     Mg( 1.00)
        B              3.00    10.81000     B ( 1.00)
        O              6.00    15.99900     O ( 1.00)

      2 Sym. Ops., with inversion, found


                                    s                        frac. trans.

      isym =  1     identity                                     

 cryst.   s( 1) = (     1          0          0      )
                  (     0          1          0      )
                  (     0          0          1      )

 cart.    s( 1) = (  1.0000000  0.0000000  0.0000000 )
                  (  0.0000000  1.0000000 -0.0000000 )
                  (  0.0000000  0.0000000  1.0000000 )


      isym =  2     inversion                                    

 cryst.   s( 2) = (    -1          0          0      )
                  (     0         -1          0      )
                  (     0          0         -1      )

 cart.    s( 2) = ( -1.0000000 -0.0000000 -0.0000000 )
                  (  0.0000000 -1.0000000  0.0000000 )
                  (  0.0000000  0.0000000 -1.0000000 )


   Cartesian axes

     site n.     atom                  positions (alat units)
         1           Mg  tau(   1) = (   0.1926989  -0.2224663   2.4406753  )
         2           Mg  tau(   2) = (   0.7119134   1.4455687   0.4108441  )
         3           Mg  tau(   3) = (   0.6914363   0.2835580   1.7183741  )
         4           Mg  tau(   4) = (   0.2131760   0.9395444   1.1331453  )
         5           B   tau(   5) = (   0.7755106   0.5195659   0.4097320  )
         6           B   tau(   6) = (   0.1291017   0.7035365   2.4417874  )
         7           B   tau(   7) = (   0.7597530   1.2318683   1.9082482  )
         8           B   tau(   8) = (   0.1448593  -0.0087660   0.9432712  )
         9           O   tau(   9) = (   0.2052755   1.5462609   0.9092440  )
        10           O   tau(  10) = (   0.6993368  -0.3231585   1.9422754  )
        11           O   tau(  11) = (   0.2021542   0.2657248   1.2735627  )
        12           O   tau(  12) = (   0.7024581   0.9573776   1.5779567  )
        13           O   tau(  13) = (   0.9185415   0.1234538   0.5722971  )
        14           O   tau(  14) = (  -0.0139292   1.0996486   2.2792223  )
        15           O   tau(  15) = (   0.2208541   1.4227543   0.0122644  )
        16           O   tau(  16) = (   0.6837582  -0.1996520   2.8392550  )
        17           O   tau(  17) = (   0.7179736   0.8494399   0.6887047  )
        18           O   tau(  18) = (   0.1866387   0.3736625   2.1628147  )

   Crystallographic axes

     site n.     atom                  positions (cryst. coord.)
         1           Mg  tau(   1) = (  0.2325280  0.2103860  0.8559210  )
         2           Mg  tau(   2) = (  0.7674720  0.7896140  0.1440790  )
         3           Mg  tau(   3) = (  0.7339790  0.3719840  0.6026170  )
         4           Mg  tau(   4) = (  0.2660210  0.6280160  0.3973830  )
         5           B   tau(   5) = (  0.8005430  0.3185410  0.1436890  )
         6           B   tau(   6) = (  0.1994570  0.6814590  0.8563110  )
         7           B   tau(   7) = (  0.8372040  0.8794230  0.6692040  )
         8           B   tau(   8) = (  0.1627960  0.1205770  0.3307960  )
         9           O   tau(   9) = (  0.2737810  0.9068870  0.3188630  )
        10           O   tau(  10) = (  0.7262190  0.0931130  0.6811370  )
        11           O   tau(  11) = (  0.2355150  0.3039530  0.4466260  )
        12           O   tau(  12) = (  0.7644850  0.6960470  0.5533740  )
        13           O   tau(  13) = (  0.9336660  0.1386440  0.2006990  )
        14           O   tau(  14) = (  0.0663340  0.8613560  0.7993010  )
        15           O   tau(  15) = (  0.2679600  0.7251780  0.0043010  )
        16           O   tau(  16) = (  0.7320400  0.2748220  0.9956990  )
        17           O   tau(  17) = (  0.7592630  0.5232800  0.2415220  )
        18           O   tau(  18) = (  0.2407370  0.4767200  0.7584780  )

     number of k points=    14
                       cart. coord. in units 2pi/alat
        k(    1) = (   0.0000000   0.0000000   0.0000000), wk =   0.0740741
        k(    2) = (   0.0000000   0.0000000   0.1168967), wk =   0.1481481
        k(    3) = (   0.0000000   0.1695191   0.0441849), wk =   0.1481481
        k(    4) = (   0.0000000   0.1695191   0.1610816), wk =   0.1481481
        k(    5) = (   0.0000000   0.1695191  -0.0727119), wk =   0.1481481
        k(    6) = (   0.3333333   0.0109808   0.0064405), wk =   0.1481481
        k(    7) = (   0.3333333   0.0109808   0.1233373), wk =   0.1481481
        k(    8) = (   0.3333333   0.0109808  -0.1104562), wk =   0.1481481
        k(    9) = (   0.3333333   0.1804999   0.0506254), wk =   0.1481481
        k(   10) = (   0.3333333   0.1804999   0.1675222), wk =   0.1481481
        k(   11) = (   0.3333333   0.1804999  -0.0662713), wk =   0.1481481
        k(   12) = (   0.3333333  -0.1585384  -0.0377444), wk =   0.1481481
        k(   13) = (   0.3333333  -0.1585384   0.0791524), wk =   0.1481481
        k(   14) = (   0.3333333  -0.1585384  -0.1546411), wk =   0.1481481

                       cryst. coord.
        k(    1) = (   0.0000000   0.0000000   0.0000000), wk =   0.0740741
        k(    2) = (   0.0000000   0.0000000   0.3333333), wk =   0.1481481
        k(    3) = (   0.0000000   0.3333333   0.0000000), wk =   0.1481481
        k(    4) = (   0.0000000   0.3333333   0.3333333), wk =   0.1481481
        k(    5) = (   0.0000000   0.3333333  -0.3333333), wk =   0.1481481
        k(    6) = (   0.3333333   0.0000000   0.0000000), wk =   0.1481481
        k(    7) = (   0.3333333   0.0000000   0.3333333), wk =   0.1481481
        k(    8) = (   0.3333333   0.0000000  -0.3333333), wk =   0.1481481
        k(    9) = (   0.3333333   0.3333333  -0.0000000), wk =   0.1481481
        k(   10) = (   0.3333333   0.3333333   0.3333333), wk =   0.1481481
        k(   11) = (   0.3333333   0.3333333  -0.3333333), wk =   0.1481481
        k(   12) = (   0.3333333  -0.3333333   0.0000000), wk =   0.1481481
        k(   13) = (   0.3333333  -0.3333333   0.3333333), wk =   0.1481481
        k(   14) = (   0.3333333  -0.3333333  -0.3333333), wk =   0.1481481

     Dense  grid:    74989 G-vectors     FFT dimensions: (  30,  60,  90)

     Smooth grid:    26567 G-vectors     FFT dimensions: (  24,  45,  64)

     Dynamical RAM for                 wfc:       0.81 MB

     Dynamical RAM for     wfc (w. buffer):       6.47 MB

     Dynamical RAM for           str. fact:       0.86 MB

     Dynamical RAM for           local pot:       0.00 MB

     Dynamical RAM for          nlocal pot:       1.82 MB

     Dynamical RAM for                qrad:       1.07 MB

     Dynamical RAM for          rho,v,vnew:       1.81 MB

     Dynamical RAM for               rhoin:       0.60 MB

     Dynamical RAM for            rho*nmix:       4.58 MB

     Dynamical RAM for           G-vectors:       1.12 MB

     Dynamical RAM for          h,s,v(r/c):       0.19 MB

     Dynamical RAM for          <psi|beta>:       0.14 MB

     Dynamical RAM for                 psi:       1.62 MB

     Dynamical RAM for                hpsi:       1.62 MB

     Dynamical RAM for                spsi:       1.62 MB

     Dynamical RAM for      wfcinit/wfcrot:       1.94 MB

     Dynamical RAM for           addusdens:       7.72 MB

     Estimated static dynamical RAM per process >      16.47 MB

     Estimated max dynamical RAM per process >      28.77 MB

     Estimated total dynamical RAM >     211.84 MB

     Check: negative core charge=   -0.000008

     Initial potential from superposition of free atoms

     starting charge      79.9952, renormalised to      80.0000
     Starting wfcs are   72 randomized atomic wfcs
     Checking if some PAW data can be deallocated... 
       PAW data deallocated on    6 nodes for type:  1
       PAW data deallocated on    3 nodes for type:  3

     total cpu time spent up to now is        3.3 secs

     Self-consistent Calculation

     iteration #  1     ecut=    30.00 Ry     beta= 0.70
     Davidson diagonalization with overlap

---- Real-time Memory Report at c_bands before calling an iterative solver
           171 MiB given to the printing process from OS
             0 MiB allocation reported by mallinfo(arena+hblkhd)
        123366 MiB available memory on the node where the printing process lives
------------------
     ethr =  1.00E-02,  avg # of iterations =  6.2

     total cpu time spent up to now is        4.4 secs

     total energy              =    -576.96484120 Ry
     estimated scf accuracy    <       2.96215273 Ry

     iteration #  2     ecut=    30.00 Ry     beta= 0.70
     Davidson diagonalization with overlap

---- Real-time Memory Report at c_bands before calling an iterative solver
           185 MiB given to the printing process from OS
             0 MiB allocation reported by mallinfo(arena+hblkhd)
        123219 MiB available memory on the node where the printing process lives
------------------
     ethr =  3.70E-03,  avg # of iterations =  2.1

     total cpu time spent up to now is        5.2 secs

     total energy              =    -577.66668010 Ry
     estimated scf accuracy    <       2.11403879 Ry

     iteration #  3     ecut=    30.00 Ry     beta= 0.70
     Davidson diagonalization with overlap

---- Real-time Memory Report at c_bands before calling an iterative solver
           191 MiB given to the printing process from OS
             0 MiB allocation reported by mallinfo(arena+hblkhd)
        122988 MiB available memory on the node where the printing process lives
------------------
     ethr =  2.64E-03,  avg # of iterations =  2.0

     total cpu time spent up to now is        6.0 secs

     total energy              =    -578.10670434 Ry
     estimated scf accuracy    <       0.05163351 Ry

     iteration #  4     ecut=    30.00 Ry     beta= 0.70
     Davidson diagonalization with overlap

---- Real-time Memory Report at c_bands before calling an iterative solver
           191 MiB given to the printing process from OS
             0 MiB allocation reported by mallinfo(arena+hblkhd)
        122243 MiB available memory on the node where the printing process lives
------------------
     c_bands:  1 eigenvalues not converged
     ethr =  6.45E-05,  avg # of iterations = 10.0

     total cpu time spent up to now is        7.3 secs

     total energy              =    -578.11893463 Ry
     estimated scf accuracy    <       0.02444430 Ry

     iteration #  5     ecut=    30.00 Ry     beta= 0.70
     Davidson diagonalization with overlap

---- Real-time Memory Report at c_bands before calling an iterative solver
           195 MiB given to the printing process from OS
             0 MiB allocation reported by mallinfo(arena+hblkhd)
        123046 MiB available memory on the node where the printing process lives
------------------
     ethr =  3.06E-05,  avg # of iterations =  2.6

     total cpu time spent up to now is        8.0 secs

     total energy              =    -578.12416641 Ry
     estimated scf accuracy    <       0.00082903 Ry

     iteration #  6     ecut=    30.00 Ry     beta= 0.70
     Davidson diagonalization with overlap

---- Real-time Memory Report at c_bands before calling an iterative solver
           195 MiB given to the printing process from OS
             0 MiB allocation reported by mallinfo(arena+hblkhd)
        123043 MiB available memory on the node where the printing process lives
------------------
     c_bands:  1 eigenvalues not converged
     c_bands:  1 eigenvalues not converged
     ethr =  1.04E-06,  avg # of iterations = 10.0

     total cpu time spent up to now is        9.6 secs

     total energy              =    -578.12508152 Ry
     estimated scf accuracy    <       0.00007354 Ry

     iteration #  7     ecut=    30.00 Ry     beta= 0.70
     Davidson diagonalization with overlap

---- Real-time Memory Report at c_bands before calling an iterative solver
           197 MiB given to the printing process from OS
             0 MiB allocation reported by mallinfo(arena+hblkhd)
        123156 MiB available memory on the node where the printing process lives
------------------
     ethr =  9.19E-08,  avg # of iterations =  5.1

     total cpu time spent up to now is       10.6 secs

     total energy              =    -578.12511613 Ry
     estimated scf accuracy    <       0.00002429 Ry

     iteration #  8     ecut=    30.00 Ry     beta= 0.70
     Davidson diagonalization with overlap

---- Real-time Memory Report at c_bands before calling an iterative solver
           199 MiB given to the printing process from OS
             0 MiB allocation reported by mallinfo(arena+hblkhd)
        122119 MiB available memory on the node where the printing process lives
------------------
     ethr =  3.04E-08,  avg # of iterations =  2.2

     total cpu time spent up to now is       11.3 secs

     total energy              =    -578.12512194 Ry
     estimated scf accuracy    <       0.00000146 Ry

     iteration #  9     ecut=    30.00 Ry     beta= 0.70
     Davidson diagonalization with overlap

---- Real-time Memory Report at c_bands before calling an iterative solver
           199 MiB given to the printing process from OS
             0 MiB allocation reported by mallinfo(arena+hblkhd)
        123021 MiB available memory on the node where the printing process lives
------------------
     ethr =  1.82E-09,  avg # of iterations =  2.2

     total cpu time spent up to now is       12.1 secs

     End of self-consistent calculation

          k = 0.0000 0.0000 0.0000 (  3311 PWs)   bands (ev):

   -15.8886 -15.7544 -14.2261 -14.1004 -13.9804 -13.6965 -13.5989 -13.4937
   -13.2357 -13.1394  -3.7390  -3.6037  -2.5946  -1.7289  -1.6167  -1.0402
    -0.6671  -0.5243  -0.3569  -0.0761   0.5566   0.7790   1.0060   1.0081
     1.2183   1.7345   1.8694   2.2000   2.3153   2.5119   2.6115   2.7715
     2.9646   2.9836   3.0899   3.2690   3.3005   3.4589   3.7215   3.8889
     8.9733  10.4820  10.4942  11.0120  11.4913  12.1870  13.0002  13.0672
    13.4151  13.8516  14.0224  14.1769  15.3923  15.4950  16.0095  16.2058
    16.4224  17.0465  17.0566  17.7034  17.8523  18.5290  18.6341  18.7497

     occupation numbers 
     1.0000   1.0000   1.0000   1.0000   1.0000   1.0000   1.0000   1.0000
     1.0000   1.0000   1.0000   1.0000   1.0000   1.0000   1.0000   1.0000
     1.0000   1.0000   1.0000   1.0000   1.0000   1.0000   1.0000   1.0000
     1.0000   1.0000   1.0000   1.0000   1.0000   1.0000   1.0000   1.0000
     1.0000   1.0000   1.0000   1.0000   1.0000   1.0000   1.0000   1.0000
     0.0000   0.0000   0.0000   0.0000   0.0000   0.0000   0.0000   0.0000
     0.0000   0.0000   0.0000   0.0000   0.0000   0.0000   0.0000   0.0000
     0.0000   0.0000   0.0000   0.0000   0.0000   0.0000   0.0000   0.0000

          k = 0.0000 0.0000 0.1169 (  3319 PWs)   bands (ev):

   -15.8582 -15.7897 -14.2024 -14.1407 -13.9568 -13.7059 -13.5603 -13.5005
   -13.2514 -13.1498  -3.7128  -3.6316  -2.4770  -1.8734  -1.5140  -1.0251
    -0.9006  -0.5524  -0.4374  -0.0862   0.7229   0.8992   0.9582   1.0987
     1.2844   1.6765   1.8826   2.1371   2.3533   2.5658   2.7067   2.7423
     2.9180   3.0038   3.0642   3.0996   3.3179   3.3966   3.7022   3.8857
     9.3396  10.1952  10.4431  10.5622  11.8637  12.3437  13.0485  13.1183
    13.4316  13.7130  13.9698  14.2446  15.3072  15.6747  15.7635  16.2341
    16.5420  16.8580  17.2138  17.3891  18.1780  18.3153  18.6569  18.7953

     occupation numbers 
     1.0000   1.0000   1.0000   1.0000   1.0000   1.0000   1.0000   1.0000
     1.0000   1.0000   1.0000   1.0000   1.0000   1.0000   1.0000   1.0000
     1.0000   1.0000   1.0000   1.0000   1.0000   1.0000   1.0000   1.0000
     1.0000   1.0000   1.0000   1.0000   1.0000   1.0000   1.0000   1.0000
     1.0000   1.0000   1.0000   1.0000   1.0000   1.0000   1.0000   1.0000
     0.0000   0.0000   0.0000   0.0000   0.0000   0.0000   0.0000   0.0000
     0.0000   0.0000   0.0000   0.0000   0.0000   0.0000   0.0000   0.0000
     0.0000   0.0000   0.0000   0.0000   0.0000   0.0000   0.0000   0.0000

          k = 0.0000 0.1695 0.0442 (  3322 PWs)   bands (ev):

   -15.8258 -15.7508 -14.3049 -14.2689 -14.0815 -13.7233 -13.3973 -13.3323
   -13.2307 -13.1860  -3.8128  -3.7367  -2.3055  -1.6146  -1.4539  -1.2655
    -1.0276  -0.7387  -0.0970   0.3479   0.6213   0.6547   0.9187   1.0624
     1.3240   1.5894   1.9323   2.1765   2.3080   2.4073   2.5250   2.6868
     2.8814   2.9715   3.1065   3.2024   3.4267   3.4943   3.5865   3.8360
     9.7122  10.4521  10.5584  10.9139  11.4087  11.9135  12.6254  13.0919
    13.1227  13.4940  14.0901  14.8612  15.3425  15.6941  16.0525  16.3253
    16.6837  16.8759  17.3092  17.5227  17.8550  18.2275  18.6036  18.7602

     occupation numbers 
     1.0000   1.0000   1.0000   1.0000   1.0000   1.0000   1.0000   1.0000
     1.0000   1.0000   1.0000   1.0000   1.0000   1.0000   1.0000   1.0000
     1.0000   1.0000   1.0000   1.0000   1.0000   1.0000   1.0000   1.0000
     1.0000   1.0000   1.0000   1.0000   1.0000   1.0000   1.0000   1.0000
     1.0000   1.0000   1.0000   1.0000   1.0000   1.0000   1.0000   1.0000
     0.0000   0.0000   0.0000   0.0000   0.0000   0.0000   0.0000   0.0000
     0.0000   0.0000   0.0000   0.0000   0.0000   0.0000   0.0000   0.0000
     0.0000   0.0000   0.0000   0.0000   0.0000   0.0000   0.0000   0.0000

          k = 0.0000 0.1695 0.1611 (  3311 PWs)   bands (ev):

   -15.8018 -15.7755 -14.3848 -14.1619 -14.0961 -13.7248 -13.3878 -13.3445
   -13.2416 -13.1825  -3.8303  -3.7086  -2.2576  -1.7076  -1.4068  -1.2520
    -1.0692  -0.7787   0.0743   0.0912   0.6176   0.7410   0.9160   1.2521
     1.3873   1.4400   1.9999   2.1688   2.3148   2.4521   2.5141   2.6880
     2.8435   2.9112   3.1310   3.1891   3.3910   3.5000   3.5924   3.8763
    10.0473  10.3700  10.5133  10.5692  11.2932  12.0529  12.5506  13.0804
    13.5330  13.6059  13.9272  14.9545  15.2634  15.6176  15.9948  16.3775
    16.6278  16.8468  17.1942  17.3344  17.9373  18.0567  18.7831  18.9819

     occupation numbers 
     1.0000   1.0000   1.0000   1.0000   1.0000   1.0000   1.0000   1.0000
     1.0000   1.0000   1.0000   1.0000   1.0000   1.0000   1.0000   1.0000
     1.0000   1.0000   1.0000   1.0000   1.0000   1.0000   1.0000   1.0000
     1.0000   1.0000   1.0000   1.0000   1.0000   1.0000   1.0000   1.0000
     1.0000   1.0000   1.0000   1.0000   1.0000   1.0000   1.0000   1.0000
     0.0000   0.0000   0.0000   0.0000   0.0000   0.0000   0.0000   0.0000
     0.0000   0.0000   0.0000   0.0000   0.0000   0.0000   0.0000   0.0000
     0.0000   0.0000   0.0000   0.0000   0.0000   0.0000   0.0000   0.0000

          k = 0.0000 0.1695-0.0727 (  3307 PWs)   bands (ev):

   -15.8308 -15.7437 -14.3786 -14.1791 -14.0946 -13.7254 -13.3865 -13.3311
   -13.2488 -13.1823  -3.7930  -3.7490  -2.3493  -1.6801  -1.5359  -1.1835
    -0.8030  -0.5303  -0.2571   0.2257   0.3938   0.7139   0.9182   1.1477
     1.2780   1.6739   1.9643   2.1476   2.3993   2.4959   2.5418   2.7162
     2.7514   2.9609   3.0551   3.2178   3.3959   3.5132   3.5866   3.9006
     9.8445  10.4934  10.4984  10.6445  11.4528  11.9895  12.3108  13.1330
    13.3002  14.0238  14.1308  14.5636  15.3869  15.6068  16.0739  16.3221
    16.4065  16.9369  17.4174  17.4977  17.8175  18.1062  18.5474  18.8763

     occupation numbers 
     1.0000   1.0000   1.0000   1.0000   1.0000   1.0000   1.0000   1.0000
     1.0000   1.0000   1.0000   1.0000   1.0000   1.0000   1.0000   1.0000
     1.0000   1.0000   1.0000   1.0000   1.0000   1.0000   1.0000   1.0000
     1.0000   1.0000   1.0000   1.0000   1.0000   1.0000   1.0000   1.0000
     1.0000   1.0000   1.0000   1.0000   1.0000   1.0000   1.0000   1.0000
     0.0000   0.0000   0.0000   0.0000   0.0000   0.0000   0.0000   0.0000
     0.0000   0.0000   0.0000   0.0000   0.0000   0.0000   0.0000   0.0000
     0.0000   0.0000   0.0000   0.0000   0.0000   0.0000   0.0000   0.0000

          k = 0.3333 0.0110 0.0064 (  3313 PWs)   bands (ev):

   -15.5733 -15.4938 -14.1199 -14.0464 -13.7753 -13.6269 -13.4331 -13.3754
   -13.1255 -13.0821  -3.8523  -3.8234  -2.0592  -1.5364  -1.5078  -1.3564
    -1.2539  -0.8530  -0.6200  -0.5464  -0.3978  -0.0239   0.4698   0.6098
     0.7044   1.2865   1.4851   1.8101   1.9007   2.1061   2.2527   2.3234
     2.4992   2.6363   2.7242   2.9947   3.1447   3.3242   3.5966   3.9489
    10.4032  10.5700  11.5514  11.6458  11.8932  13.1247  13.7053  14.0745
    14.4471  15.0500  15.2418  15.3473  15.5186  15.5951  15.9016  16.1100
    16.4089  16.7062  16.8750  16.9603  17.3103  17.5238  17.8456  18.0830

     occupation numbers 
     1.0000   1.0000   1.0000   1.0000   1.0000   1.0000   1.0000   1.0000
     1.0000   1.0000   1.0000   1.0000   1.0000   1.0000   1.0000   1.0000
     1.0000   1.0000   1.0000   1.0000   1.0000   1.0000   1.0000   1.0000
     1.0000   1.0000   1.0000   1.0000   1.0000   1.0000   1.0000   1.0000
     1.0000   1.0000   1.0000   1.0000   1.0000   1.0000   1.0000   1.0000
     0.0000   0.0000   0.0000   0.0000   0.0000   0.0000   0.0000   0.0000
     0.0000   0.0000   0.0000   0.0000   0.0000   0.0000   0.0000   0.0000
     0.0000   0.0000   0.0000   0.0000   0.0000   0.0000   0.0000   0.0000

          k = 0.3333 0.0110 0.1233 (  3306 PWs)   bands (ev):

   -15.5490 -15.5199 -14.1404 -14.0182 -13.7837 -13.6307 -13.4183 -13.3636
   -13.1412 -13.0865  -3.8860  -3.7819  -2.0026  -1.5930  -1.4737  -1.3998
    -1.0590  -0.9519  -0.7748  -0.6817  -0.2658  -0.0128   0.4334   0.5209
     1.0891   1.1533   1.4651   1.7054   1.8839   2.1819   2.2686   2.3948
     2.5017   2.6793   2.7692   2.8812   3.1553   3.3102   3.6172   3.9100
    10.4773  10.4959  11.4734  11.7145  12.0628  12.8014  13.9338  13.9975
    14.8576  14.8742  15.0277  15.2171  15.3883  15.6789  16.0021  16.2745
    16.4230  16.5754  16.8609  16.9709  17.1042  17.5968  17.7975  18.0345

     occupation numbers 
     1.0000   1.0000   1.0000   1.0000   1.0000   1.0000   1.0000   1.0000
     1.0000   1.0000   1.0000   1.0000   1.0000   1.0000   1.0000   1.0000
     1.0000   1.0000   1.0000   1.0000   1.0000   1.0000   1.0000   1.0000
     1.0000   1.0000   1.0000   1.0000   1.0000   1.0000   1.0000   1.0000
     1.0000   1.0000   1.0000   1.0000   1.0000   1.0000   1.0000   1.0000
     0.0000   0.0000   0.0000   0.0000   0.0000   0.0000   0.0000   0.0000
     0.0000   0.0000   0.0000   0.0000   0.0000   0.0000   0.0000   0.0000
     0.0000   0.0000   0.0000   0.0000   0.0000   0.0000   0.0000   0.0000

          k = 0.3333 0.0110-0.1105 (  3309 PWs)   bands (ev):

   -15.5640 -15.5040 -14.1278 -14.0353 -13.7922 -13.6185 -13.3968 -13.3901
   -13.1374 -13.0859  -3.8745  -3.7924  -2.0611  -1.5143  -1.4619  -1.4092
    -1.1528  -0.8885  -0.7703  -0.6149  -0.2660  -0.0067   0.3537   0.4874
     0.9634   1.3181   1.4791   1.7910   1.8562   2.1985   2.2644   2.2783
     2.3740   2.6420   2.8332   2.9723   3.1247   3.3490   3.6618   3.8745
    10.4140  10.5764  11.4948  11.6799  12.1306  12.5495  13.9194  14.2933
    14.4866  14.9606  15.1647  15.2967  15.4643  15.7275  16.0446  16.1503
    16.4911  16.6618  16.8124  16.9875  17.2273  17.5348  17.8303  17.8814

     occupation numbers 
     1.0000   1.0000   1.0000   1.0000   1.0000   1.0000   1.0000   1.0000
     1.0000   1.0000   1.0000   1.0000   1.0000   1.0000   1.0000   1.0000
     1.0000   1.0000   1.0000   1.0000   1.0000   1.0000   1.0000   1.0000
     1.0000   1.0000   1.0000   1.0000   1.0000   1.0000   1.0000   1.0000
     1.0000   1.0000   1.0000   1.0000   1.0000   1.0000   1.0000   1.0000
     0.0000   0.0000   0.0000   0.0000   0.0000   0.0000   0.0000   0.0000
     0.0000   0.0000   0.0000   0.0000   0.0000   0.0000   0.0000   0.0000
     0.0000   0.0000   0.0000   0.0000   0.0000   0.0000   0.0000   0.0000

          k = 0.3333 0.1805 0.0506 (  3313 PWs)   bands (ev):

   -15.5417 -15.4978 -14.1008 -14.0917 -13.8526 -13.6307 -13.3860 -13.3389
   -13.1223 -13.1020  -3.8106  -3.7700  -1.9375  -1.5321  -1.4739  -1.2725
    -1.1119  -0.9584  -0.8263  -0.7266  -0.4742   0.0267   0.2660   0.6568
     0.7830   1.3117   1.4153   1.5665   1.9310   2.2312   2.2855   2.3668
     2.4453   2.7384   2.8214   3.0100   3.2418   3.3100   3.7022   3.7634
    10.5651  10.5829  11.3649  11.5688  12.5487  13.0429  13.4413  13.6587
    14.1021  14.8397  15.0928  15.2392  15.6027  15.8897  16.0516  16.2110
    16.3818  16.8195  16.8434  17.1523  17.4711  17.8527  18.0075  18.2887

     occupation numbers 
     1.0000   1.0000   1.0000   1.0000   1.0000   1.0000   1.0000   1.0000
     1.0000   1.0000   1.0000   1.0000   1.0000   1.0000   1.0000   1.0000
     1.0000   1.0000   1.0000   1.0000   1.0000   1.0000   1.0000   1.0000
     1.0000   1.0000   1.0000   1.0000   1.0000   1.0000   1.0000   1.0000
     1.0000   1.0000   1.0000   1.0000   1.0000   1.0000   1.0000   1.0000
     0.0000   0.0000   0.0000   0.0000   0.0000   0.0000   0.0000   0.0000
     0.0000   0.0000   0.0000   0.0000   0.0000   0.0000   0.0000   0.0000
     0.0000   0.0000   0.0000   0.0000   0.0000   0.0000   0.0000   0.0000

          k = 0.3333 0.1805 0.1675 (  3329 PWs)   bands (ev):

   -15.5369 -15.5024 -14.1491 -14.0541 -13.8231 -13.6541 -13.3733 -13.3400
   -13.1378 -13.0951  -3.8150  -3.7661  -1.9847  -1.5562  -1.4237  -1.2006
    -1.1633  -0.9964  -0.8099  -0.7320  -0.3650  -0.0666   0.2845   0.4746
     0.9975   1.1820   1.4390   1.4683   1.9360   2.2168   2.3333   2.3604
     2.5519   2.7724   2.7841   3.0106   3.2436   3.2578   3.6615   3.7828
    10.5266  10.6088  11.4255  11.5053  12.6647  12.9323  13.0574  13.9484
    14.3439  14.6993  15.0156  15.3358  15.6333  15.9357  16.0679  16.1326
    16.3738  16.7230  17.0028  17.3135  17.4186  17.6644  17.8962  18.1612

     occupation numbers 
     1.0000   1.0000   1.0000   1.0000   1.0000   1.0000   1.0000   1.0000
     1.0000   1.0000   1.0000   1.0000   1.0000   1.0000   1.0000   1.0000
     1.0000   1.0000   1.0000   1.0000   1.0000   1.0000   1.0000   1.0000
     1.0000   1.0000   1.0000   1.0000   1.0000   1.0000   1.0000   1.0000
     1.0000   1.0000   1.0000   1.0000   1.0000   1.0000   1.0000   1.0000
     0.0000   0.0000   0.0000   0.0000   0.0000   0.0000   0.0000   0.0000
     0.0000   0.0000   0.0000   0.0000   0.0000   0.0000   0.0000   0.0000
     0.0000   0.0000   0.0000   0.0000   0.0000   0.0000   0.0000   0.0000

          k = 0.3333 0.1805-0.0663 (  3324 PWs)   bands (ev):

   -15.5523 -15.4861 -14.1425 -14.0493 -13.8450 -13.6403 -13.4018 -13.3303
   -13.1254 -13.0917  -3.8228  -3.7532  -2.0307  -1.5824  -1.3457  -1.2841
    -1.1740  -0.8792  -0.7560  -0.7384  -0.3972  -0.0617   0.2805   0.4810
     0.9443   1.2071   1.4825   1.5595   1.8396   2.1950   2.2064   2.3426
     2.6469   2.7416   2.7683   3.0636   3.2059   3.2811   3.6747   3.8158
    10.5374  10.6019  11.3824  11.5843  12.4849  12.9878  13.3485  13.5522
    14.4144  14.8257  15.1845  15.3108  15.7007  15.7050  16.0231  16.2387
    16.5155  16.5942  17.0523  17.1889  17.4325  17.7431  17.9476  18.2661

     occupation numbers 
     1.0000   1.0000   1.0000   1.0000   1.0000   1.0000   1.0000   1.0000
     1.0000   1.0000   1.0000   1.0000   1.0000   1.0000   1.0000   1.0000
     1.0000   1.0000   1.0000   1.0000   1.0000   1.0000   1.0000   1.0000
     1.0000   1.0000   1.0000   1.0000   1.0000   1.0000   1.0000   1.0000
     1.0000   1.0000   1.0000   1.0000   1.0000   1.0000   1.0000   1.0000
     0.0000   0.0000   0.0000   0.0000   0.0000   0.0000   0.0000   0.0000
     0.0000   0.0000   0.0000   0.0000   0.0000   0.0000   0.0000   0.0000
     0.0000   0.0000   0.0000   0.0000   0.0000   0.0000   0.0000   0.0000

          k = 0.3333-0.1585-0.0377 (  3310 PWs)   bands (ev):

   -15.5371 -15.4882 -14.1801 -14.1150 -13.8213 -13.6350 -13.3283 -13.2979
   -13.1286 -13.1215  -3.8837  -3.8121  -1.8872  -1.5460  -1.4801  -1.3206
    -1.2115  -1.1310  -0.8531  -0.6090   0.0188   0.1711   0.4494   0.4990
     0.6964   1.0752   1.6772   1.7069   1.9575   2.1259   2.2317   2.2838
     2.4326   2.6511   2.6807   2.9224   3.2209   3.4770   3.5238   3.8862
    10.5779  10.7165  11.2845  11.4694  12.1454  12.9828  13.8410  14.1780
    14.4740  14.8985  15.1152  15.3751  15.4752  15.5193  15.9083  16.1039
    16.3533  16.5376  16.8738  16.9676  17.4544  17.5422  17.9427  18.0492

     occupation numbers 
     1.0000   1.0000   1.0000   1.0000   1.0000   1.0000   1.0000   1.0000
     1.0000   1.0000   1.0000   1.0000   1.0000   1.0000   1.0000   1.0000
     1.0000   1.0000   1.0000   1.0000   1.0000   1.0000   1.0000   1.0000
     1.0000   1.0000   1.0000   1.0000   1.0000   1.0000   1.0000   1.0000
     1.0000   1.0000   1.0000   1.0000   1.0000   1.0000   1.0000   1.0000
     0.0000   0.0000   0.0000   0.0000   0.0000   0.0000   0.0000   0.0000
     0.0000   0.0000   0.0000   0.0000   0.0000   0.0000   0.0000   0.0000
     0.0000   0.0000   0.0000   0.0000   0.0000   0.0000   0.0000   0.0000

          k = 0.3333-0.1585 0.0792 (  3313 PWs)   bands (ev):

   -15.5380 -15.4866 -14.2317 -14.0450 -13.8260 -13.6509 -13.3298 -13.3037
   -13.1385 -13.1030  -3.8793  -3.8185  -1.9122  -1.5386  -1.4703  -1.3740
    -1.2936  -1.0989  -0.6964  -0.4338  -0.2001   0.1630   0.3085   0.5747
     0.7894   1.0156   1.6296   1.7403   2.0526   2.1302   2.2278   2.3047
     2.4023   2.6673   2.7283   2.8246   3.1830   3.4546   3.5173   3.9242
    10.5960  10.6906  11.3012  11.4882  12.0747  13.2934  13.7803  13.9746
    14.2028  15.0087  15.1365  15.4615  15.5886  15.7556  15.9386  16.0842
    16.2529  16.5902  16.5974  17.0431  17.1978  17.5149  17.8113  18.1987

     occupation numbers 
     1.0000   1.0000   1.0000   1.0000   1.0000   1.0000   1.0000   1.0000
     1.0000   1.0000   1.0000   1.0000   1.0000   1.0000   1.0000   1.0000
     1.0000   1.0000   1.0000   1.0000   1.0000   1.0000   1.0000   1.0000
     1.0000   1.0000   1.0000   1.0000   1.0000   1.0000   1.0000   1.0000
     1.0000   1.0000   1.0000   1.0000   1.0000   1.0000   1.0000   1.0000
     0.0000   0.0000   0.0000   0.0000   0.0000   0.0000   0.0000   0.0000
     0.0000   0.0000   0.0000   0.0000   0.0000   0.0000   0.0000   0.0000
     0.0000   0.0000   0.0000   0.0000   0.0000   0.0000   0.0000   0.0000

          k = 0.3333-0.1585-0.1546 (  3312 PWs)   bands (ev):

   -15.5245 -15.5012 -14.2057 -14.0758 -13.8415 -13.6245 -13.3319 -13.2951
   -13.1459 -13.1070  -3.8710  -3.8264  -1.8777  -1.5053  -1.4410  -1.3116
    -1.2982  -1.0182  -0.9311  -0.7443  -0.0160   0.2365   0.3880   0.4378
     0.9987   1.1822   1.6070   1.6988   1.8690   1.9658   2.2655   2.2927
     2.4413   2.5506   2.7657   2.9617   3.2416   3.4475   3.5508   3.8555
    10.6260  10.6902  11.2115  11.5347  12.3618  12.7256  13.7969  14.2307
    14.5056  14.9280  15.1541  15.2714  15.4347  15.6820  15.8617  16.0087
    16.3877  16.5406  16.8697  17.0472  17.2286  17.6308  17.7482  18.0492

     occupation numbers 
     1.0000   1.0000   1.0000   1.0000   1.0000   1.0000   1.0000   1.0000
     1.0000   1.0000   1.0000   1.0000   1.0000   1.0000   1.0000   1.0000
     1.0000   1.0000   1.0000   1.0000   1.0000   1.0000   1.0000   1.0000
     1.0000   1.0000   1.0000   1.0000   1.0000   1.0000   1.0000   1.0000
     1.0000   1.0000   1.0000   1.0000   1.0000   1.0000   1.0000   1.0000
     0.0000   0.0000   0.0000   0.0000   0.0000   0.0000   0.0000   0.0000
     0.0000   0.0000   0.0000   0.0000   0.0000   0.0000   0.0000   0.0000
     0.0000   0.0000   0.0000   0.0000   0.0000   0.0000   0.0000   0.0000

     highest occupied, lowest unoccupied level (ev):     3.9489    8.9733

!    total energy              =    -578.12512222 Ry
     estimated scf accuracy    <       0.00000013 Ry

     The total energy is the sum of the following terms:
     one-electron contribution =    -141.36631023 Ry
     hartree contribution      =     118.60168015 Ry
     xc contribution           =     -94.17145585 Ry
     ewald contribution        =    -240.99908915 Ry
     one-center paw contrib.   =    -220.18994714 Ry
      -> PAW hartree energy AE =       2.40231128 Ry
      -> PAW hartree energy PS =      -2.39887937 Ry
      -> PAW xc energy AE      =     -97.78243875 Ry
      -> PAW xc energy PS      =       3.94841754 Ry
      -> total E_H with PAW    =     118.60511205 Ry
      -> total E_XC with PAW   =    -188.00547706 Ry

     convergence has been achieved in   9 iterations

     Writing all to output data dir calculations_bands/myprefix.save/
 
     init_run     :      7.58s CPU      3.03s WALL (       1 calls)
     electrons    :     34.13s CPU      8.90s WALL (       1 calls)

     Called by init_run:
     wfcinit      :      1.15s CPU      0.30s WALL (       1 calls)
     wfcinit:atom :      0.01s CPU      0.00s WALL (       7 calls)
     wfcinit:wfcr :      1.06s CPU      0.28s WALL (       7 calls)
     potinit      :      2.53s CPU      0.92s WALL (       1 calls)
     hinit0       :      3.14s CPU      1.33s WALL (       1 calls)

     Called by electrons:
     c_bands      :     27.24s CPU      7.07s WALL (       9 calls)
     sum_band     :      3.74s CPU      0.99s WALL (       9 calls)
     v_of_rho     :      0.54s CPU      0.14s WALL (      10 calls)
     v_h          :      0.04s CPU      0.01s WALL (      10 calls)
     v_xc         :      0.49s CPU      0.13s WALL (      10 calls)
     newd         :      0.52s CPU      0.14s WALL (      10 calls)
     PAW_pot      :      1.95s CPU      0.50s WALL (      10 calls)
     mix_rho      :      0.12s CPU      0.03s WALL (       9 calls)

     Called by c_bands:
     init_us_2    :      0.12s CPU      0.03s WALL (     133 calls)
     init_us_2:cp :      0.12s CPU      0.03s WALL (     133 calls)
     cegterg      :     25.90s CPU      6.72s WALL (      63 calls)

     Called by sum_band:
     sum_band:wei :      0.01s CPU      0.00s WALL (       9 calls)
     sum_band:loo :      3.08s CPU      0.79s WALL (       9 calls)
     sum_band:buf :      0.05s CPU      0.01s WALL (      63 calls)
     sum_band:ini :      0.05s CPU      0.01s WALL (      63 calls)
     sum_band:cal :      0.17s CPU      0.04s WALL (      63 calls)
     sum_band:bec :      0.05s CPU      0.01s WALL (      63 calls)
     addusdens    :      0.31s CPU      0.11s WALL (       9 calls)
     addusd:skk   :      0.01s CPU      0.00s WALL (      27 calls)
     addusd:dgemm :      0.05s CPU      0.03s WALL (      27 calls)
     addusd:qvan2 :      0.18s CPU      0.05s WALL (      27 calls)

     Called by *egterg:
     cdiaghg      :      6.10s CPU      1.59s WALL (     371 calls)
     cegterg:over :      1.02s CPU      0.26s WALL (     308 calls)
     cegterg:upda :      0.58s CPU      0.15s WALL (     308 calls)
     cegterg:last :      1.02s CPU      0.26s WALL (     160 calls)
     cdiaghg:chol :      0.45s CPU      0.12s WALL (     371 calls)
     cdiaghg:inve :      0.09s CPU      0.02s WALL (     371 calls)
     cdiaghg:para :      0.99s CPU      0.26s WALL (     742 calls)
     h_psi        :     17.36s CPU      4.50s WALL (     378 calls)
     s_psi        :      0.35s CPU      0.09s WALL (     378 calls)
     g_psi        :      0.04s CPU      0.01s WALL (     308 calls)

     Called by h_psi:
     h_psi:calbec :      0.64s CPU      0.17s WALL (     378 calls)
     vloc_psi     :     16.20s CPU      4.20s WALL (     378 calls)
     add_vuspsi   :      0.45s CPU      0.11s WALL (     378 calls)

     General routines
     calbec       :      0.80s CPU      0.21s WALL (     441 calls)
     fft          :      1.37s CPU      0.47s WALL (     128 calls)
     ffts         :      0.70s CPU      0.18s WALL (      19 calls)
     fftw         :     16.08s CPU      4.17s WALL (   28558 calls)
     interpolate  :      0.71s CPU      0.19s WALL (      10 calls)
 
     Parallel routines

     PAW routines
     PAW_pot      :      1.95s CPU      0.50s WALL (      10 calls)
     PAW_symme    :      0.23s CPU      0.06s WALL (      19 calls)
 
     PWSCF        :     42.89s CPU     12.62s WALL

 
   This run was terminated on:   9:17:26   7Jun2023            

=------------------------------------------------------------------------------=
   JOB DONE.
=------------------------------------------------------------------------------=
