
     Program PWSCF v.7.0 starts on  6Jun2023 at 22: 6:58 

     This program is part of the open-source Quantum ESPRESSO suite
     for quantum simulation of materials; please cite
         "P. Giannozzi et al., J. Phys.:Condens. Matter 21 395502 (2009);
         "P. Giannozzi et al., J. Phys.:Condens. Matter 29 465901 (2017);
         "P. Giannozzi et al., J. Chem. Phys. 152 154105 (2020);
          URL http://www.quantum-espresso.org", 
     in publications or presentations arising from this work. More details at
     http://www.quantum-espresso.org/quote

     Parallel version (MPI & OpenMP), running on      32 processor cores
     Number of MPI processes:                 8
     Threads/MPI process:                     4

     MPI processes distributed on     1 nodes
     K-points division:     npool     =       2
     R & G space division:  proc/nbgrp/npool/nimage =       4
     51072 MiB available memory on the printing compute node when the environment starts
 
     Reading input from espresso_569.pwi
Warning: card &CELL ignored
Warning: card / ignored

     Current dimensions of program PWSCF are:
     Max number of different atomic species (ntypx) = 10
     Max number of k-points (npk) =  40000
     Max angular momentum in pseudopotentials (lmaxx) =  4
     Message from routine setup:
     using ibrav=0 with symmetry is DISCOURAGED, use correct ibrav instead

     Subspace diagonalization in iterative solution of the eigenvalue problem:
     one sub-group per band group will be used
     scalapack distributed-memory algorithm (size of sub-group:  2*  2 procs)

 
     Parallelization info
     --------------------
     sticks:   dense  smooth     PW     G-vecs:    dense   smooth      PW
     Min         412     207     60                12670     4461     694
     Max         413     208     61                12675     4462     695
     Sum        1649     829    241                50685    17845    2777
 
     Using Slab Decomposition
 


     bravais-lattice index     =            0
     lattice parameter (alat)  =       9.3085  a.u.
     unit-cell volume          =     806.5743 (a.u.)^3
     number of atoms/cell      =            8
     number of atomic types    =            2
     number of electrons       =       124.00
     number of Kohn-Sham states=           64
     kinetic-energy cutoff     =      30.0000  Ry
     charge density cutoff     =     240.0000  Ry
     scf convergence threshold =      1.0E-06
     mixing beta               =       0.7000
     number of iterations used =            8  plain     mixing
     Exchange-correlation= PBE
                           (   1   4   3   4   0   0   0)

     celldm(1)=   9.308538  celldm(2)=   0.000000  celldm(3)=   0.000000
     celldm(4)=   0.000000  celldm(5)=   0.000000  celldm(6)=   0.000000

     crystal axes: (cart. coord. in units of alat)
               a(1) = (   1.000000   0.000000   0.000000 )  
               a(2) = (   0.000000   1.000000   0.000000 )  
               a(3) = (   0.000000   0.000000   1.000000 )  

     reciprocal axes: (cart. coord. in units 2 pi/alat)
               b(1) = (  1.000000  0.000000  0.000000 )  
               b(2) = (  0.000000  1.000000  0.000000 )  
               b(3) = (  0.000000  0.000000  1.000000 )  


     PseudoPot. # 1 for Ge read from file:
     /home/pragov/projects/rrg-bengioy-ad/pragov/crystal_structure_design/SSSP/ge_pbe_v1.4.uspp.F.UPF
     MD5 check sum: 9c9eaa91e581c3f09632fb3098b2c6b2
     Pseudo is Ultrasoft + core correction, Zval = 14.0
     Generated by new atomic code, or converted to UPF format
     Using radial grid of  873 points,  6 beta functions with: 
                l(1) =   0
                l(2) =   0
                l(3) =   1
                l(4) =   1
                l(5) =   2
                l(6) =   2
     Q(r) pseudized with  8 coefficients,  rinner =    1.400   1.400   1.400
                                                       1.400   1.400

     PseudoPot. # 2 for Rh read from file:
     /home/pragov/projects/rrg-bengioy-ad/pragov/crystal_structure_design/SSSP/Rh_ONCV_PBE-1.0.oncvpsp.upf
     MD5 check sum: ba07c69523b14cacd10683cd4c4284c1
     Pseudo is Norm-conserving, Zval = 17.0
     Generated using ONCVPSP code by D. R. Hamann
     Using radial grid of 1442 points,  6 beta functions with: 
                l(1) =   0
                l(2) =   0
                l(3) =   1
                l(4) =   1
                l(5) =   2
                l(6) =   2

     atomic species   valence    mass     pseudopotential
        Ge            14.00    72.63000     Ge( 1.00)
        Rh            17.00   102.90550     Rh( 1.00)

     12 Sym. Ops. (no inversion) found ( 9 have fractional translation)


                                    s                        frac. trans.

      isym =  1     identity                                     

 cryst.   s( 1) = (     1          0          0      )
                  (     0          1          0      )
                  (     0          0          1      )

 cart.    s( 1) = (  1.0000000  0.0000000  0.0000000 )
                  (  0.0000000  1.0000000  0.0000000 )
                  (  0.0000000  0.0000000  1.0000000 )


      isym =  2     180 deg rotation - cart. axis [0,0,1]        

 cryst.   s( 2) = (    -1          0          0      )    f =(  0.5000000 )
                  (     0         -1          0      )       (  0.0000000 )
                  (     0          0          1      )       (  0.5000000 )

 cart.    s( 2) = ( -1.0000000  0.0000000  0.0000000 )    f =(  0.5000000 )
                  (  0.0000000 -1.0000000  0.0000000 )       (  0.0000000 )
                  (  0.0000000  0.0000000  1.0000000 )       (  0.5000000 )


      isym =  3     180 deg rotation - cart. axis [0,1,0]        

 cryst.   s( 3) = (    -1          0          0      )    f =(  0.0000000 )
                  (     0          1          0      )       (  0.5000000 )
                  (     0          0         -1      )       (  0.5000000 )

 cart.    s( 3) = ( -1.0000000  0.0000000  0.0000000 )    f =(  0.0000000 )
                  (  0.0000000  1.0000000  0.0000000 )       (  0.5000000 )
                  (  0.0000000  0.0000000 -1.0000000 )       (  0.5000000 )


      isym =  4     180 deg rotation - cart. axis [1,0,0]        

 cryst.   s( 4) = (     1          0          0      )    f =( -0.5000000 )
                  (     0         -1          0      )       (  0.5000000 )
                  (     0          0         -1      )       (  0.0000000 )

 cart.    s( 4) = (  1.0000000  0.0000000  0.0000000 )    f =( -0.5000000 )
                  (  0.0000000 -1.0000000  0.0000000 )       (  0.5000000 )
                  (  0.0000000  0.0000000 -1.0000000 )       (  0.0000000 )


      isym =  5     120 deg rotation - cart. axis [-1,-1,-1]     

 cryst.   s( 5) = (     0          0          1      )
                  (     1          0          0      )
                  (     0          1          0      )

 cart.    s( 5) = (  0.0000000  1.0000000  0.0000000 )
                  (  0.0000000  0.0000000  1.0000000 )
                  (  1.0000000  0.0000000  0.0000000 )


      isym =  6     120 deg rotation - cart. axis [-1,1,1]       

 cryst.   s( 6) = (     0          0         -1      )    f =(  0.0000000 )
                  (    -1          0          0      )       (  0.5000000 )
                  (     0          1          0      )       (  0.5000000 )

 cart.    s( 6) = (  0.0000000 -1.0000000  0.0000000 )    f =(  0.0000000 )
                  (  0.0000000  0.0000000  1.0000000 )       (  0.5000000 )
                  ( -1.0000000  0.0000000  0.0000000 )       (  0.5000000 )


      isym =  7     120 deg rotation - cart. axis [1,1,-1]       

 cryst.   s( 7) = (     0          0         -1      )    f =( -0.5000000 )
                  (     1          0          0      )       (  0.5000000 )
                  (     0         -1          0      )       (  0.0000000 )

 cart.    s( 7) = (  0.0000000  1.0000000  0.0000000 )    f =( -0.5000000 )
                  (  0.0000000  0.0000000 -1.0000000 )       (  0.5000000 )
                  ( -1.0000000  0.0000000  0.0000000 )       (  0.0000000 )


      isym =  8     120 deg rotation - cart. axis [1,-1,1]       

 cryst.   s( 8) = (     0          0          1      )    f =(  0.5000000 )
                  (    -1          0          0      )       (  0.0000000 )
                  (     0         -1          0      )       (  0.5000000 )

 cart.    s( 8) = (  0.0000000 -1.0000000  0.0000000 )    f =(  0.5000000 )
                  (  0.0000000  0.0000000 -1.0000000 )       (  0.0000000 )
                  (  1.0000000  0.0000000  0.0000000 )       (  0.5000000 )


      isym =  9     120 deg rotation - cart. axis [1,1,1]        

 cryst.   s( 9) = (     0          1          0      )
                  (     0          0          1      )
                  (     1          0          0      )

 cart.    s( 9) = (  0.0000000  0.0000000  1.0000000 )
                  (  1.0000000  0.0000000  0.0000000 )
                  (  0.0000000  1.0000000  0.0000000 )


      isym = 10     120 deg rotation - cart. axis [-1,1,-1]      

 cryst.   s(10) = (     0         -1          0      )    f =( -0.5000000 )
                  (     0          0         -1      )       (  0.5000000 )
                  (     1          0          0      )       (  0.0000000 )

 cart.    s(10) = (  0.0000000  0.0000000  1.0000000 )    f =( -0.5000000 )
                  ( -1.0000000  0.0000000  0.0000000 )       (  0.5000000 )
                  (  0.0000000 -1.0000000  0.0000000 )       (  0.0000000 )


      isym = 11     120 deg rotation - cart. axis [1,-1,-1]      

 cryst.   s(11) = (     0         -1          0      )    f =(  0.5000000 )
                  (     0          0          1      )       (  0.0000000 )
                  (    -1          0          0      )       (  0.5000000 )

 cart.    s(11) = (  0.0000000  0.0000000 -1.0000000 )    f =(  0.5000000 )
                  ( -1.0000000  0.0000000  0.0000000 )       (  0.0000000 )
                  (  0.0000000  1.0000000  0.0000000 )       (  0.5000000 )


      isym = 12     120 deg rotation - cart. axis [-1,-1,1]      

 cryst.   s(12) = (     0          1          0      )    f =(  0.0000000 )
                  (     0          0         -1      )       (  0.5000000 )
                  (    -1          0          0      )       (  0.5000000 )

 cart.    s(12) = (  0.0000000  0.0000000 -1.0000000 )    f =(  0.0000000 )
                  (  1.0000000  0.0000000  0.0000000 )       (  0.5000000 )
                  (  0.0000000 -1.0000000  0.0000000 )       (  0.5000000 )


   Cartesian axes

     site n.     atom                  positions (alat units)
         1           Ge  tau(   1) = (   0.1629840   0.3370160   0.6629840  )
         2           Ge  tau(   2) = (   0.3370160   0.6629840   0.1629840  )
         3           Ge  tau(   3) = (   0.6629840   0.1629840   0.3370160  )
         4           Ge  tau(   4) = (   0.8370160   0.8370160   0.8370160  )
         5           Rh  tau(   5) = (   0.8734080   0.6265920   0.3734080  )
         6           Rh  tau(   6) = (   0.6265920   0.3734080   0.8734080  )
         7           Rh  tau(   7) = (   0.3734080   0.8734080   0.6265920  )
         8           Rh  tau(   8) = (   0.1265920   0.1265920   0.1265920  )

   Crystallographic axes

     site n.     atom                  positions (cryst. coord.)
         1           Ge  tau(   1) = (  0.1629840  0.3370160  0.6629840  )
         2           Ge  tau(   2) = (  0.3370160  0.6629840  0.1629840  )
         3           Ge  tau(   3) = (  0.6629840  0.1629840  0.3370160  )
         4           Ge  tau(   4) = (  0.8370160  0.8370160  0.8370160  )
         5           Rh  tau(   5) = (  0.8734080  0.6265920  0.3734080  )
         6           Rh  tau(   6) = (  0.6265920  0.3734080  0.8734080  )
         7           Rh  tau(   7) = (  0.3734080  0.8734080  0.6265920  )
         8           Rh  tau(   8) = (  0.1265920  0.1265920  0.1265920  )

     number of k points=     4
                       cart. coord. in units 2pi/alat
        k(    1) = (   0.0000000   0.0000000   0.0000000), wk =   0.0740741
        k(    2) = (   0.0000000   0.0000000   0.3333333), wk =   0.4444444
        k(    3) = (   0.0000000   0.3333333   0.3333333), wk =   0.8888889
        k(    4) = (   0.3333333   0.3333333   0.3333333), wk =   0.5925926

                       cryst. coord.
        k(    1) = (   0.0000000   0.0000000   0.0000000), wk =   0.0740741
        k(    2) = (   0.0000000   0.0000000   0.3333333), wk =   0.4444444
        k(    3) = (   0.0000000   0.3333333   0.3333333), wk =   0.8888889
        k(    4) = (   0.3333333   0.3333333   0.3333333), wk =   0.5925926

     Dense  grid:    50685 G-vectors     FFT dimensions: (  48,  48,  48)

     Smooth grid:    17845 G-vectors     FFT dimensions: (  36,  36,  36)

     Dynamical RAM for                 wfc:       0.55 MB

     Dynamical RAM for     wfc (w. buffer):       1.64 MB

     Dynamical RAM for           str. fact:       0.39 MB

     Dynamical RAM for           local pot:       0.00 MB

     Dynamical RAM for          nlocal pot:       1.23 MB

     Dynamical RAM for                qrad:       2.49 MB

     Dynamical RAM for          rho,v,vnew:       1.21 MB

     Dynamical RAM for               rhoin:       0.40 MB

     Dynamical RAM for            rho*nmix:       3.09 MB

     Dynamical RAM for           G-vectors:       0.76 MB

     Dynamical RAM for          h,s,v(r/c):       0.19 MB

     Dynamical RAM for          <psi|beta>:       0.14 MB

     Dynamical RAM for                 psi:       1.09 MB

     Dynamical RAM for                hpsi:       1.09 MB

     Dynamical RAM for                spsi:       1.09 MB

     Dynamical RAM for      wfcinit/wfcrot:       1.43 MB

     Dynamical RAM for           addusdens:      18.47 MB

     Estimated static dynamical RAM per process >       9.75 MB

     Estimated max dynamical RAM per process >      31.32 MB

     Estimated total dynamical RAM >     238.15 MB

     Check: negative core charge=   -0.000001

     Initial potential from superposition of free atoms

     starting charge     123.9948, renormalised to     124.0000
     Starting wfcs are   76 randomized atomic wfcs

     total cpu time spent up to now is        1.5 secs

     Self-consistent Calculation

     iteration #  1     ecut=    30.00 Ry     beta= 0.70
     Davidson diagonalization with overlap

---- Real-time Memory Report at c_bands before calling an iterative solver
           156 MiB given to the printing process from OS
             0 MiB allocation reported by mallinfo(arena+hblkhd)
         51139 MiB available memory on the node where the printing process lives
------------------
     ethr =  1.00E-02,  avg # of iterations =  2.0

     total cpu time spent up to now is        2.3 secs

     total energy              =   -1721.77630399 Ry
     estimated scf accuracy    <       1.25414216 Ry

     iteration #  2     ecut=    30.00 Ry     beta= 0.70
     Davidson diagonalization with overlap

---- Real-time Memory Report at c_bands before calling an iterative solver
           182 MiB given to the printing process from OS
             0 MiB allocation reported by mallinfo(arena+hblkhd)
         51071 MiB available memory on the node where the printing process lives
------------------
     ethr =  1.01E-03,  avg # of iterations =  4.0

     total cpu time spent up to now is        3.1 secs

     total energy              =   -1721.79784128 Ry
     estimated scf accuracy    <       4.64919872 Ry

     iteration #  3     ecut=    30.00 Ry     beta= 0.70
     Davidson diagonalization with overlap

---- Real-time Memory Report at c_bands before calling an iterative solver
           186 MiB given to the printing process from OS
             0 MiB allocation reported by mallinfo(arena+hblkhd)
         50854 MiB available memory on the node where the printing process lives
------------------
     ethr =  1.01E-03,  avg # of iterations =  4.5

     total cpu time spent up to now is        3.5 secs

     total energy              =   -1722.53053949 Ry
     estimated scf accuracy    <       0.00665314 Ry

     iteration #  4     ecut=    30.00 Ry     beta= 0.70
     Davidson diagonalization with overlap

---- Real-time Memory Report at c_bands before calling an iterative solver
           188 MiB given to the printing process from OS
             0 MiB allocation reported by mallinfo(arena+hblkhd)
         50789 MiB available memory on the node where the printing process lives
------------------
     ethr =  5.37E-06,  avg # of iterations =  5.5

     total cpu time spent up to now is        4.0 secs

     total energy              =   -1722.53705362 Ry
     estimated scf accuracy    <       0.00633551 Ry

     iteration #  5     ecut=    30.00 Ry     beta= 0.70
     Davidson diagonalization with overlap

---- Real-time Memory Report at c_bands before calling an iterative solver
           188 MiB given to the printing process from OS
             0 MiB allocation reported by mallinfo(arena+hblkhd)
         50435 MiB available memory on the node where the printing process lives
------------------
     ethr =  5.11E-06,  avg # of iterations =  2.0

     total cpu time spent up to now is        4.3 secs

     total energy              =   -1722.53783753 Ry
     estimated scf accuracy    <       0.00016829 Ry

     iteration #  6     ecut=    30.00 Ry     beta= 0.70
     Davidson diagonalization with overlap

---- Real-time Memory Report at c_bands before calling an iterative solver
           188 MiB given to the printing process from OS
             0 MiB allocation reported by mallinfo(arena+hblkhd)
         51030 MiB available memory on the node where the printing process lives
------------------
     ethr =  1.36E-07,  avg # of iterations =  4.5

     total cpu time spent up to now is        5.0 secs

     total energy              =   -1722.53790602 Ry
     estimated scf accuracy    <       0.00007127 Ry

     iteration #  7     ecut=    30.00 Ry     beta= 0.70
     Davidson diagonalization with overlap

---- Real-time Memory Report at c_bands before calling an iterative solver
           189 MiB given to the printing process from OS
             0 MiB allocation reported by mallinfo(arena+hblkhd)
         51029 MiB available memory on the node where the printing process lives
------------------
     ethr =  5.75E-08,  avg # of iterations =  2.8

     total cpu time spent up to now is        5.4 secs

     End of self-consistent calculation

          k = 0.0000 0.0000 0.0000 (  2205 PWs)   bands (ev):

   -60.6160 -60.5994 -60.5994 -60.5994 -28.5571 -28.5571 -28.5571 -28.5401
   -28.5401 -28.5401 -28.4801 -28.4746 -28.4746 -28.4437 -28.4437 -28.4437
    -7.1309  -7.1309  -7.1309  -7.1045  -7.1045  -7.1045  -7.0934  -7.0934
    -7.0934  -7.0821  -7.0821  -7.0764  -7.0657  -7.0657  -7.0657  -7.0656
    -7.0656  -7.0491  -7.0491  -7.0491   5.3765   9.1561   9.1561   9.1561
    12.8732  12.8732  12.8732  13.5399  13.6893  13.6893  13.6893  14.2439
    14.2439  14.2439  14.3936  14.3936  15.4256  15.4256  15.4256  16.6964
    16.6964  16.7962  16.7962  16.7962  17.6626  17.6626  17.6626  19.7745

     occupation numbers 
     1.0000   1.0000   1.0000   1.0000   1.0000   1.0000   1.0000   1.0000
     1.0000   1.0000   1.0000   1.0000   1.0000   1.0000   1.0000   1.0000
     1.0000   1.0000   1.0000   1.0000   1.0000   1.0000   1.0000   1.0000
     1.0000   1.0000   1.0000   1.0000   1.0000   1.0000   1.0000   1.0000
     1.0000   1.0000   1.0000   1.0000   1.0000   1.0000   1.0000   1.0000
     1.0000   1.0000   1.0000   1.0000   1.0000   1.0000   1.0000   1.0000
     1.0000   1.0000   1.0000   1.0000   1.0000   1.0000   1.0000   1.0000
     1.0000   1.0000   1.0000   1.0000   1.0000   1.0000   0.0000   0.0000

          k = 0.0000 0.0000 0.3333 (  2244 PWs)   bands (ev):

   -60.6128 -60.6056 -60.5984 -60.5973 -28.5715 -28.5654 -28.5612 -28.5537
   -28.5251 -28.5019 -28.4935 -28.4732 -28.4612 -28.4539 -28.4504 -28.4467
    -7.1330  -7.1314  -7.1300  -7.1181  -7.1070  -7.1016  -7.1004  -7.0965
    -7.0922  -7.0875  -7.0856  -7.0842  -7.0774  -7.0771  -7.0729  -7.0680
    -7.0675  -7.0625  -7.0487  -7.0485   6.0411   7.6819   9.3802   9.7494
    12.0147  12.8026  13.2103  13.3501  13.5486  13.7333  14.1418  14.3215
    14.4281  14.4801  14.6839  14.7304  15.2103  15.4338  15.6578  15.8630
    16.2512  16.4615  16.8210  17.0342  17.3001  17.3980  18.9075  19.2236

     occupation numbers 
     1.0000   1.0000   1.0000   1.0000   1.0000   1.0000   1.0000   1.0000
     1.0000   1.0000   1.0000   1.0000   1.0000   1.0000   1.0000   1.0000
     1.0000   1.0000   1.0000   1.0000   1.0000   1.0000   1.0000   1.0000
     1.0000   1.0000   1.0000   1.0000   1.0000   1.0000   1.0000   1.0000
     1.0000   1.0000   1.0000   1.0000   1.0000   1.0000   1.0000   1.0000
     1.0000   1.0000   1.0000   1.0000   1.0000   1.0000   1.0000   1.0000
     1.0000   1.0000   1.0000   1.0000   1.0000   1.0000   1.0000   1.0000
     1.0000   1.0000   1.0000   1.0000   1.0000   1.0000   0.0000   0.0000

          k = 0.0000 0.3333 0.3333 (  2230 PWs)   bands (ev):

   -60.6104 -60.6063 -60.5994 -60.5980 -28.5674 -28.5605 -28.5552 -28.5496
   -28.5332 -28.5108 -28.5098 -28.4870 -28.4553 -28.4465 -28.4456 -28.4365
    -7.1317  -7.1295  -7.1248  -7.1157  -7.1102  -7.1060  -7.1003  -7.0965
    -7.0917  -7.0888  -7.0862  -7.0829  -7.0784  -7.0731  -7.0689  -7.0665
    -7.0642  -7.0577  -7.0526  -7.0467   6.6522   7.8266   8.7303   9.4242
    12.3067  12.4576  12.7271  13.2319  13.6377  13.8575  13.9824  14.2989
    14.5612  14.7108  14.9372  15.1375  15.2750  15.4723  15.6433  15.8563
    15.9562  16.1634  16.5138  16.7772  17.3098  17.6786  18.4789  18.9454

     occupation numbers 
     1.0000   1.0000   1.0000   1.0000   1.0000   1.0000   1.0000   1.0000
     1.0000   1.0000   1.0000   1.0000   1.0000   1.0000   1.0000   1.0000
     1.0000   1.0000   1.0000   1.0000   1.0000   1.0000   1.0000   1.0000
     1.0000   1.0000   1.0000   1.0000   1.0000   1.0000   1.0000   1.0000
     1.0000   1.0000   1.0000   1.0000   1.0000   1.0000   1.0000   1.0000
     1.0000   1.0000   1.0000   1.0000   1.0000   1.0000   1.0000   1.0000
     1.0000   1.0000   1.0000   1.0000   1.0000   1.0000   1.0000   1.0000
     1.0000   1.0000   1.0000   1.0000   1.0000   1.0000   0.0000   0.0000

          k = 0.3333 0.3333 0.3333 (  2230 PWs)   bands (ev):

   -60.6083 -60.6056 -60.6009 -60.5994 -28.5728 -28.5673 -28.5500 -28.5397
   -28.5374 -28.5212 -28.5029 -28.4809 -28.4579 -28.4470 -28.4441 -28.4365
    -7.1300  -7.1299  -7.1219  -7.1159  -7.1116  -7.1081  -7.1061  -7.1023
    -7.0902  -7.0833  -7.0818  -7.0809  -7.0757  -7.0756  -7.0732  -7.0683
    -7.0628  -7.0561  -7.0542  -7.0480   7.2017   8.0692   8.6569   9.1858
    11.5157  11.8688  13.0029  13.2341  13.6686  13.8915  14.1874  14.2640
    14.4372  14.5110  14.7107  14.9271  15.2694  15.5904  15.7859  15.8685
    16.0484  16.2545  16.3491  16.4703  17.2864  17.5565  18.1664  18.5469

     occupation numbers 
     1.0000   1.0000   1.0000   1.0000   1.0000   1.0000   1.0000   1.0000
     1.0000   1.0000   1.0000   1.0000   1.0000   1.0000   1.0000   1.0000
     1.0000   1.0000   1.0000   1.0000   1.0000   1.0000   1.0000   1.0000
     1.0000   1.0000   1.0000   1.0000   1.0000   1.0000   1.0000   1.0000
     1.0000   1.0000   1.0000   1.0000   1.0000   1.0000   1.0000   1.0000
     1.0000   1.0000   1.0000   1.0000   1.0000   1.0000   1.0000   1.0000
     1.0000   1.0000   1.0000   1.0000   1.0000   1.0000   1.0000   1.0000
     1.0000   1.0000   1.0000   1.0000   1.0000   1.0000   0.0000   0.0000

     highest occupied, lowest unoccupied level (ev):    17.6786   17.6626

!    total energy              =   -1722.53792013 Ry
     estimated scf accuracy    <       0.00000028 Ry

     The total energy is the sum of the following terms:
     one-electron contribution =    -635.40812681 Ry
     hartree contribution      =     422.75380316 Ry
     xc contribution           =    -321.70665942 Ry
     ewald contribution        =   -1188.17693706 Ry

     convergence has been achieved in   7 iterations

     Writing all to output data dir calculations_bands/myprefix.save/
 
     init_run     :      3.04s CPU      1.32s WALL (       1 calls)
     electrons    :     13.99s CPU      4.08s WALL (       1 calls)

     Called by init_run:
     wfcinit      :      0.43s CPU      0.12s WALL (       1 calls)
     wfcinit:atom :      0.01s CPU      0.00s WALL (       2 calls)
     wfcinit:wfcr :      0.38s CPU      0.10s WALL (       2 calls)
     potinit      :      0.74s CPU      0.31s WALL (       1 calls)
     hinit0       :      1.33s CPU      0.59s WALL (       1 calls)

     Called by electrons:
     c_bands      :      9.61s CPU      2.79s WALL (       7 calls)
     sum_band     :      2.08s CPU      0.59s WALL (       7 calls)
     v_of_rho     :      0.32s CPU      0.09s WALL (       8 calls)
     v_h          :      0.02s CPU      0.01s WALL (       8 calls)
     v_xc         :      0.30s CPU      0.09s WALL (       8 calls)
     newd         :      1.74s CPU      0.52s WALL (       8 calls)
     mix_rho      :      0.06s CPU      0.02s WALL (       7 calls)

     Called by c_bands:
     init_us_2    :      0.05s CPU      0.02s WALL (      30 calls)
     init_us_2:cp :      0.05s CPU      0.02s WALL (      30 calls)
     cegterg      :      6.97s CPU      2.04s WALL (      14 calls)

     Called by sum_band:
     sum_band:wei :      0.01s CPU      0.00s WALL (       7 calls)
     sum_band:loo :      0.80s CPU      0.22s WALL (       7 calls)
     sum_band:buf :      0.01s CPU      0.00s WALL (      14 calls)
     sum_band:ini :      0.01s CPU      0.00s WALL (      14 calls)
     sum_band:cal :      0.10s CPU      0.03s WALL (      14 calls)
     sum_band:bec :      0.00s CPU      0.00s WALL (      14 calls)
     addusdens    :      0.68s CPU      0.21s WALL (       7 calls)
     addusd:skk   :      0.02s CPU      0.01s WALL (       7 calls)
     addusd:dgemm :      0.04s CPU      0.03s WALL (       7 calls)
     addusd:qvan2 :      0.24s CPU      0.06s WALL (       7 calls)

     Called by *egterg:
     cdiaghg      :      1.37s CPU      0.39s WALL (      66 calls)
     cegterg:over :      0.32s CPU      0.11s WALL (      52 calls)
     cegterg:upda :      0.11s CPU      0.03s WALL (      52 calls)
     cegterg:last :      0.22s CPU      0.06s WALL (      30 calls)
     cdiaghg:chol :      0.09s CPU      0.02s WALL (      66 calls)
     cdiaghg:inve :      0.02s CPU      0.00s WALL (      66 calls)
     cdiaghg:para :      0.33s CPU      0.10s WALL (     132 calls)
     h_psi        :      5.05s CPU      1.45s WALL (      68 calls)
     s_psi        :      0.06s CPU      0.02s WALL (      68 calls)
     g_psi        :      0.01s CPU      0.00s WALL (      52 calls)

     Called by h_psi:
     h_psi:calbec :      0.16s CPU      0.05s WALL (      68 calls)
     vloc_psi     :      4.77s CPU      1.37s WALL (      68 calls)
     add_vuspsi   :      0.09s CPU      0.03s WALL (      68 calls)

     General routines
     calbec       :      0.26s CPU      0.08s WALL (      82 calls)
     fft          :      1.34s CPU      0.46s WALL (     102 calls)
     ffts         :      0.73s CPU      0.29s WALL (      15 calls)
     fftw         :      4.58s CPU      1.30s WALL (    6086 calls)
     interpolate  :      0.72s CPU      0.28s WALL (       8 calls)
 
     Parallel routines
 
     PWSCF        :     17.71s CPU      5.83s WALL

 
   This run was terminated on:  22: 7: 3   6Jun2023            

=------------------------------------------------------------------------------=
   JOB DONE.
=------------------------------------------------------------------------------=
