
     Program PWSCF v.7.0 starts on 23Jun2023 at  7: 3:42 

     This program is part of the open-source Quantum ESPRESSO suite
     for quantum simulation of materials; please cite
         "P. Giannozzi et al., J. Phys.:Condens. Matter 21 395502 (2009);
         "P. Giannozzi et al., J. Phys.:Condens. Matter 29 465901 (2017);
         "P. Giannozzi et al., J. Chem. Phys. 152 154105 (2020);
          URL http://www.quantum-espresso.org", 
     in publications or presentations arising from this work. More details at
     http://www.quantum-espresso.org/quote

     Parallel version (MPI & OpenMP), running on      32 processor cores
     Number of MPI processes:                 8
     Threads/MPI process:                     4

     MPI processes distributed on     1 nodes
     K-points division:     npool     =       2
     R & G space division:  proc/nbgrp/npool/nimage =       4
     81764 MiB available memory on the printing compute node when the environment starts
 
     Reading input from espresso_2390.pwi
Warning: card &CELL ignored
Warning: card / ignored

     Current dimensions of program PWSCF are:
     Max number of different atomic species (ntypx) = 10
     Max number of k-points (npk) =  40000
     Max angular momentum in pseudopotentials (lmaxx) =  4
     Message from routine setup:
     using ibrav=0 with symmetry is DISCOURAGED, use correct ibrav instead

     Subspace diagonalization in iterative solution of the eigenvalue problem:
     one sub-group per band group will be used
     scalapack distributed-memory algorithm (size of sub-group:  2*  2 procs)

 
     Parallelization info
     --------------------
     sticks:   dense  smooth     PW     G-vecs:    dense   smooth      PW
     Min         725     362    103                18600     6574     995
     Max         726     363    104                18601     6576     997
     Sum        2901    1449    413                74403    26299    3983
 
     Using Slab Decomposition
 


     bravais-lattice index     =            0
     lattice parameter (alat)  =      11.3302  a.u.
     unit-cell volume          =    1185.9403 (a.u.)^3
     number of atoms/cell      =           16
     number of atomic types    =            3
     number of electrons       =       148.00
     number of Kohn-Sham states=           90
     kinetic-energy cutoff     =      30.0000  Ry
     charge density cutoff     =     240.0000  Ry
     scf convergence threshold =      1.0E-06
     mixing beta               =       0.7000
     number of iterations used =            8  plain     mixing
     Exchange-correlation= PBE
                           (   1   4   3   4   0   0   0)

     celldm(1)=  11.330238  celldm(2)=   0.000000  celldm(3)=   0.000000
     celldm(4)=   0.000000  celldm(5)=   0.000000  celldm(6)=   0.000000

     crystal axes: (cart. coord. in units of alat)
               a(1) = (   1.000000   0.000000   0.000000 )  
               a(2) = (   0.000000   1.185395   0.000000 )  
               a(3) = (   0.000000   0.000000   0.687832 )  

     reciprocal axes: (cart. coord. in units 2 pi/alat)
               b(1) = (  1.000000  0.000000  0.000000 )  
               b(2) = (  0.000000  0.843601  0.000000 )  
               b(3) = (  0.000000  0.000000  1.453842 )  


     PseudoPot. # 1 for Ti read from file:
     /home/pragov/projects/rrg-bengioy-ad/pragov/crystal_structure_design/SSSP/ti_pbe_v1.4.uspp.F.UPF
     MD5 check sum: 88a00a6731bd790ddea75d31a80cb452
     Pseudo is Ultrasoft + core correction, Zval = 12.0
     Generated by new atomic code, or converted to UPF format
     Using radial grid of  851 points,  6 beta functions with: 
                l(1) =   0
                l(2) =   0
                l(3) =   1
                l(4) =   1
                l(5) =   2
                l(6) =   2
     Q(r) pseudized with  6 coefficients,  rinner =    1.000   1.000   1.000
                                                       1.000   1.000

     PseudoPot. # 2 for Mn read from file:
     /home/pragov/projects/rrg-bengioy-ad/pragov/crystal_structure_design/SSSP/mn_pbe_v1.5.uspp.F.UPF
     MD5 check sum: 82ef2b46521d7a7d9e736dc3972e4928
     Pseudo is Ultrasoft + core correction, Zval = 15.0
     Generated by new atomic code, or converted to UPF format
     Using radial grid of  859 points,  6 beta functions with: 
                l(1) =   0
                l(2) =   0
                l(3) =   1
                l(4) =   1
                l(5) =   2
                l(6) =   2
     Q(r) pseudized with  8 coefficients,  rinner =    0.950   0.950   0.950
                                                       0.950   0.950

     PseudoPot. # 3 for N  read from file:
     /home/pragov/projects/rrg-bengioy-ad/pragov/crystal_structure_design/SSSP/N.pbe-n-radius_5.UPF
     MD5 check sum: 16739722b17309cd8fe442a2ace49922
     Pseudo is Ultrasoft + core correction, Zval =  5.0
     Generated using "atomic" code by A. Dal Corso  v.5.1
     Using radial grid of 1085 points,  4 beta functions with: 
                l(1) =   0
                l(2) =   0
                l(3) =   1
                l(4) =   1
     Q(r) pseudized with 0 coefficients 


     atomic species   valence    mass     pseudopotential
        Ti            12.00    47.86700     Ti( 1.00)
        Mn            15.00    54.93804     Mn( 1.00)
        N              5.00    14.00700     N ( 1.00)

      4 Sym. Ops. (no inversion) found ( 3 have fractional translation)


                                    s                        frac. trans.

      isym =  1     identity                                     

 cryst.   s( 1) = (     1          0          0      )
                  (     0          1          0      )
                  (     0          0          1      )

 cart.    s( 1) = (  1.0000000  0.0000000  0.0000000 )
                  (  0.0000000  1.0000000  0.0000000 )
                  (  0.0000000  0.0000000  1.0000000 )


      isym =  2     180 deg rotation - cart. axis [0,0,1]        

 cryst.   s( 2) = (    -1          0          0      )    f =(  0.0000000 )
                  (     0         -1          0      )       (  0.0000000 )
                  (     0          0          1      )       (  0.5000000 )

 cart.    s( 2) = ( -1.0000000  0.0000000  0.0000000 )    f =(  0.0000000 )
                  (  0.0000000 -1.0000000  0.0000000 )       (  0.0000000 )
                  (  0.0000000  0.0000000  1.0000000 )       (  0.3439162 )


      isym =  3     inv. 180 deg rotation - cart. axis [0,1,0]   

 cryst.   s( 3) = (     1          0          0      )    f =(  0.5000000 )
                  (     0         -1          0      )       (  0.5000000 )
                  (     0          0          1      )       (  0.0000000 )

 cart.    s( 3) = (  1.0000000  0.0000000  0.0000000 )    f =(  0.5000000 )
                  (  0.0000000 -1.0000000  0.0000000 )       (  0.5926974 )
                  (  0.0000000  0.0000000  1.0000000 )       (  0.0000000 )


      isym =  4     inv. 180 deg rotation - cart. axis [1,0,0]   

 cryst.   s( 4) = (    -1          0          0      )    f =(  0.5000000 )
                  (     0          1          0      )       ( -0.5000000 )
                  (     0          0          1      )       (  0.5000000 )

 cart.    s( 4) = ( -1.0000000  0.0000000  0.0000000 )    f =(  0.5000000 )
                  (  0.0000000  1.0000000  0.0000000 )       ( -0.5926974 )
                  (  0.0000000  0.0000000  1.0000000 )       (  0.3439162 )


   Cartesian axes

     site n.     atom                  positions (alat units)
         1           Ti  tau(   1) = (   0.5897340   0.4436257   0.6432953  )
         2           Ti  tau(   2) = (   0.4102660   0.7417691   0.2993791  )
         3           Ti  tau(   3) = (   0.9102660   1.0363231   0.2993791  )
         4           Ti  tau(   4) = (   0.0897340   0.1490717   0.6432953  )
         5           Mn  tau(   5) = (   0.5712540   1.0339404   0.6432946  )
         6           Mn  tau(   6) = (   0.4287460   0.1514543   0.2993784  )
         7           Mn  tau(   7) = (   0.9287460   0.4412430   0.2993784  )
         8           Mn  tau(   8) = (   0.0712540   0.7441517   0.6432946  )
         9           N   tau(   9) = (   0.5824640   0.4537039   0.2993791  )
        10           N   tau(  10) = (   0.4175360   0.7316908   0.6432953  )
        11           N   tau(  11) = (   0.9175360   1.0464013   0.6432953  )
        12           N   tau(  12) = (   0.0824640   0.1389935   0.2993791  )
        13           N   tau(  13) = (   0.5755830   1.0293399   0.2993791  )
        14           N   tau(  14) = (   0.4244170   0.1560548   0.6432953  )
        15           N   tau(  15) = (   0.9244170   0.4366425   0.6432953  )
        16           N   tau(  16) = (   0.0755830   0.7487522   0.2993791  )

   Crystallographic axes

     site n.     atom                  positions (cryst. coord.)
         1           Ti  tau(   1) = (  0.5897340  0.3742430  0.9352500  )
         2           Ti  tau(   2) = (  0.4102660  0.6257570  0.4352500  )
         3           Ti  tau(   3) = (  0.9102660  0.8742430  0.4352500  )
         4           Ti  tau(   4) = (  0.0897340  0.1257570  0.9352500  )
         5           Mn  tau(   5) = (  0.5712540  0.8722330  0.9352490  )
         6           Mn  tau(   6) = (  0.4287460  0.1277670  0.4352490  )
         7           Mn  tau(   7) = (  0.9287460  0.3722330  0.4352490  )
         8           Mn  tau(   8) = (  0.0712540  0.6277670  0.9352490  )
         9           N   tau(   9) = (  0.5824640  0.3827450  0.4352500  )
        10           N   tau(  10) = (  0.4175360  0.6172550  0.9352500  )
        11           N   tau(  11) = (  0.9175360  0.8827450  0.9352500  )
        12           N   tau(  12) = (  0.0824640  0.1172550  0.4352500  )
        13           N   tau(  13) = (  0.5755830  0.8683520  0.4352500  )
        14           N   tau(  14) = (  0.4244170  0.1316480  0.9352500  )
        15           N   tau(  15) = (  0.9244170  0.3683520  0.9352500  )
        16           N   tau(  16) = (  0.0755830  0.6316480  0.4352500  )

     number of k points=     8
                       cart. coord. in units 2pi/alat
        k(    1) = (   0.0000000   0.0000000   0.0000000), wk =   0.0740741
        k(    2) = (   0.0000000   0.0000000   0.4846141), wk =   0.1481481
        k(    3) = (   0.0000000   0.2812003   0.0000000), wk =   0.1481481
        k(    4) = (   0.0000000   0.2812003   0.4846141), wk =   0.2962963
        k(    5) = (   0.3333333   0.0000000   0.0000000), wk =   0.1481481
        k(    6) = (   0.3333333   0.0000000   0.4846141), wk =   0.2962963
        k(    7) = (   0.3333333   0.2812003   0.0000000), wk =   0.2962963
        k(    8) = (   0.3333333   0.2812003   0.4846141), wk =   0.5925926

                       cryst. coord.
        k(    1) = (   0.0000000   0.0000000   0.0000000), wk =   0.0740741
        k(    2) = (   0.0000000   0.0000000   0.3333333), wk =   0.1481481
        k(    3) = (   0.0000000   0.3333333   0.0000000), wk =   0.1481481
        k(    4) = (   0.0000000   0.3333333   0.3333333), wk =   0.2962963
        k(    5) = (   0.3333333   0.0000000   0.0000000), wk =   0.1481481
        k(    6) = (   0.3333333   0.0000000   0.3333333), wk =   0.2962963
        k(    7) = (   0.3333333   0.3333333   0.0000000), wk =   0.2962963
        k(    8) = (   0.3333333   0.3333333   0.3333333), wk =   0.5925926

     Dense  grid:    74403 G-vectors     FFT dimensions: (  60,  72,  40)

     Smooth grid:    26299 G-vectors     FFT dimensions: (  40,  48,  30)

     Dynamical RAM for                 wfc:       1.13 MB

     Dynamical RAM for     wfc (w. buffer):       5.64 MB

     Dynamical RAM for           str. fact:       0.85 MB

     Dynamical RAM for           local pot:       0.00 MB

     Dynamical RAM for          nlocal pot:       2.61 MB

     Dynamical RAM for                qrad:       3.73 MB

     Dynamical RAM for          rho,v,vnew:       1.84 MB

     Dynamical RAM for               rhoin:       0.61 MB

     Dynamical RAM for            rho*nmix:       4.54 MB

     Dynamical RAM for           G-vectors:       1.11 MB

     Dynamical RAM for          h,s,v(r/c):       0.37 MB

     Dynamical RAM for          <psi|beta>:       0.29 MB

     Dynamical RAM for                 psi:       2.26 MB

     Dynamical RAM for                hpsi:       2.26 MB

     Dynamical RAM for                spsi:       2.26 MB

     Dynamical RAM for      wfcinit/wfcrot:       3.46 MB

     Dynamical RAM for           addusdens:      27.67 MB

     Estimated static dynamical RAM per process >      19.19 MB

     Estimated max dynamical RAM per process >      51.40 MB

     Estimated total dynamical RAM >     393.05 MB

     Check: negative core charge=   -0.000023

     Initial potential from superposition of free atoms

     starting charge     141.9994, renormalised to     148.0000

     negative rho (up, down):  5.571E-03 0.000E+00
     Starting wfcs are  124 randomized atomic wfcs

     total cpu time spent up to now is        3.2 secs

     Self-consistent Calculation

     iteration #  1     ecut=    30.00 Ry     beta= 0.70
     Davidson diagonalization with overlap

---- Real-time Memory Report at c_bands before calling an iterative solver
           164 MiB given to the printing process from OS
             0 MiB allocation reported by mallinfo(arena+hblkhd)
         81436 MiB available memory on the node where the printing process lives
------------------
     ethr =  1.00E-02,  avg # of iterations =  2.6

     total cpu time spent up to now is        4.2 secs

     total energy              =   -1423.97520454 Ry
     estimated scf accuracy    <      78.78449300 Ry

     iteration #  2     ecut=    30.00 Ry     beta= 0.70
     Davidson diagonalization with overlap

---- Real-time Memory Report at c_bands before calling an iterative solver
           202 MiB given to the printing process from OS
             0 MiB allocation reported by mallinfo(arena+hblkhd)
         81129 MiB available memory on the node where the printing process lives
------------------
     ethr =  1.00E-02,  avg # of iterations =  5.5

     total cpu time spent up to now is        6.1 secs

     total energy              =   -1465.59154434 Ry
     estimated scf accuracy    <     461.31224344 Ry

     iteration #  3     ecut=    30.00 Ry     beta= 0.70
     Davidson diagonalization with overlap

---- Real-time Memory Report at c_bands before calling an iterative solver
           211 MiB given to the printing process from OS
             0 MiB allocation reported by mallinfo(arena+hblkhd)
         80968 MiB available memory on the node where the printing process lives
------------------
     ethr =  1.00E-02,  avg # of iterations =  6.1

     total cpu time spent up to now is        7.3 secs

     total energy              =   -1487.82562873 Ry
     estimated scf accuracy    <      84.99766489 Ry

     iteration #  4     ecut=    30.00 Ry     beta= 0.70
     Davidson diagonalization with overlap

---- Real-time Memory Report at c_bands before calling an iterative solver
           213 MiB given to the printing process from OS
             0 MiB allocation reported by mallinfo(arena+hblkhd)
         80936 MiB available memory on the node where the printing process lives
------------------
     ethr =  1.00E-02,  avg # of iterations =  1.4

     negative rho (up, down):  2.021E-04 0.000E+00

     total cpu time spent up to now is        7.9 secs

     total energy              =   -1485.10124716 Ry
     estimated scf accuracy    <      51.56699251 Ry

     iteration #  5     ecut=    30.00 Ry     beta= 0.70
     Davidson diagonalization with overlap

---- Real-time Memory Report at c_bands before calling an iterative solver
           213 MiB given to the printing process from OS
             0 MiB allocation reported by mallinfo(arena+hblkhd)
         80928 MiB available memory on the node where the printing process lives
------------------
     ethr =  1.00E-02,  avg # of iterations =  1.2

     negative rho (up, down):  1.639E-04 0.000E+00

     total cpu time spent up to now is        8.5 secs

     total energy              =   -1486.15505747 Ry
     estimated scf accuracy    <      14.64887940 Ry

     iteration #  6     ecut=    30.00 Ry     beta= 0.70
     Davidson diagonalization with overlap

---- Real-time Memory Report at c_bands before calling an iterative solver
           213 MiB given to the printing process from OS
             0 MiB allocation reported by mallinfo(arena+hblkhd)
         80923 MiB available memory on the node where the printing process lives
------------------
     ethr =  9.90E-03,  avg # of iterations =  1.0

     negative rho (up, down):  3.530E-04 0.000E+00

     total cpu time spent up to now is        9.0 secs

     total energy              =   -1485.92654679 Ry
     estimated scf accuracy    <      13.68893831 Ry

     iteration #  7     ecut=    30.00 Ry     beta= 0.70
     Davidson diagonalization with overlap

---- Real-time Memory Report at c_bands before calling an iterative solver
           213 MiB given to the printing process from OS
             0 MiB allocation reported by mallinfo(arena+hblkhd)
         80915 MiB available memory on the node where the printing process lives
------------------
     ethr =  9.25E-03,  avg # of iterations =  1.0

     negative rho (up, down):  1.392E-03 0.000E+00

     total cpu time spent up to now is       10.2 secs

     total energy              =   -1484.54620642 Ry
     estimated scf accuracy    <      14.03411193 Ry

     iteration #  8     ecut=    30.00 Ry     beta= 0.70
     Davidson diagonalization with overlap

---- Real-time Memory Report at c_bands before calling an iterative solver
           213 MiB given to the printing process from OS
             0 MiB allocation reported by mallinfo(arena+hblkhd)
         80928 MiB available memory on the node where the printing process lives
------------------
     ethr =  9.25E-03,  avg # of iterations =  1.8

     negative rho (up, down):  2.587E-03 0.000E+00

     total cpu time spent up to now is       10.8 secs

     total energy              =   -1483.65830585 Ry
     estimated scf accuracy    <       8.78079259 Ry

     iteration #  9     ecut=    30.00 Ry     beta= 0.70
     Davidson diagonalization with overlap

---- Real-time Memory Report at c_bands before calling an iterative solver
           213 MiB given to the printing process from OS
             0 MiB allocation reported by mallinfo(arena+hblkhd)
         80931 MiB available memory on the node where the printing process lives
------------------
     ethr =  5.93E-03,  avg # of iterations =  2.1

     negative rho (up, down):  2.715E-03 0.000E+00

     total cpu time spent up to now is       11.7 secs

     total energy              =   -1483.99851796 Ry
     estimated scf accuracy    <       1.16990473 Ry

     iteration # 10     ecut=    30.00 Ry     beta= 0.70
     Davidson diagonalization with overlap

---- Real-time Memory Report at c_bands before calling an iterative solver
           213 MiB given to the printing process from OS
             0 MiB allocation reported by mallinfo(arena+hblkhd)
         81014 MiB available memory on the node where the printing process lives
------------------
     ethr =  7.90E-04,  avg # of iterations =  7.1

     negative rho (up, down):  5.526E-03 0.000E+00

     total cpu time spent up to now is       12.9 secs

     total energy              =   -1484.15704933 Ry
     estimated scf accuracy    <       0.32388324 Ry

     iteration # 11     ecut=    30.00 Ry     beta= 0.70
     Davidson diagonalization with overlap

---- Real-time Memory Report at c_bands before calling an iterative solver
           218 MiB given to the printing process from OS
             0 MiB allocation reported by mallinfo(arena+hblkhd)
         80955 MiB available memory on the node where the printing process lives
------------------
     ethr =  2.19E-04,  avg # of iterations =  8.9

     negative rho (up, down):  3.153E-03 0.000E+00

     total cpu time spent up to now is       14.2 secs

     total energy              =   -1483.47524718 Ry
     estimated scf accuracy    <      32.35180623 Ry

     iteration # 12     ecut=    30.00 Ry     beta= 0.70
     Davidson diagonalization with overlap

---- Real-time Memory Report at c_bands before calling an iterative solver
           221 MiB given to the printing process from OS
             0 MiB allocation reported by mallinfo(arena+hblkhd)
         80847 MiB available memory on the node where the printing process lives
------------------
     ethr =  2.19E-04,  avg # of iterations =  8.1

     negative rho (up, down):  5.306E-03 0.000E+00

     total cpu time spent up to now is       15.3 secs

     total energy              =   -1484.49756009 Ry
     estimated scf accuracy    <       1.85109063 Ry

     iteration # 13     ecut=    30.00 Ry     beta= 0.70
     Davidson diagonalization with overlap

---- Real-time Memory Report at c_bands before calling an iterative solver
           222 MiB given to the printing process from OS
             0 MiB allocation reported by mallinfo(arena+hblkhd)
         80815 MiB available memory on the node where the printing process lives
------------------
     ethr =  2.19E-04,  avg # of iterations =  5.2

     negative rho (up, down):  8.603E-03 0.000E+00

     total cpu time spent up to now is       16.1 secs

     total energy              =   -1485.48798069 Ry
     estimated scf accuracy    <       9.71125884 Ry

     iteration # 14     ecut=    30.00 Ry     beta= 0.70
     Davidson diagonalization with overlap

---- Real-time Memory Report at c_bands before calling an iterative solver
           222 MiB given to the printing process from OS
             0 MiB allocation reported by mallinfo(arena+hblkhd)
         80812 MiB available memory on the node where the printing process lives
------------------
     ethr =  2.19E-04,  avg # of iterations =  8.5

     negative rho (up, down):  8.575E-03 0.000E+00

     total cpu time spent up to now is       17.2 secs

     total energy              =   -1486.22454973 Ry
     estimated scf accuracy    <      44.18688344 Ry

     iteration # 15     ecut=    30.00 Ry     beta= 0.70
     Davidson diagonalization with overlap

---- Real-time Memory Report at c_bands before calling an iterative solver
           223 MiB given to the printing process from OS
             0 MiB allocation reported by mallinfo(arena+hblkhd)
         80788 MiB available memory on the node where the printing process lives
------------------
     ethr =  2.19E-04,  avg # of iterations =  1.9

     negative rho (up, down):  1.721E-02 0.000E+00

     total cpu time spent up to now is       17.9 secs

     total energy              =   -1492.05291857 Ry
     estimated scf accuracy    <      49.29681493 Ry

     iteration # 16     ecut=    30.00 Ry     beta= 0.70
     Davidson diagonalization with overlap

---- Real-time Memory Report at c_bands before calling an iterative solver
           223 MiB given to the printing process from OS
             0 MiB allocation reported by mallinfo(arena+hblkhd)
         80782 MiB available memory on the node where the printing process lives
------------------
     ethr =  2.19E-04,  avg # of iterations =  9.0

     negative rho (up, down):  4.005E-03 0.000E+00

     total cpu time spent up to now is       19.8 secs

     total energy              =   -1477.54357208 Ry
     estimated scf accuracy    <     140.52170672 Ry

     iteration # 17     ecut=    30.00 Ry     beta= 0.70
     Davidson diagonalization with overlap

---- Real-time Memory Report at c_bands before calling an iterative solver
           223 MiB given to the printing process from OS
             0 MiB allocation reported by mallinfo(arena+hblkhd)
         80759 MiB available memory on the node where the printing process lives
------------------
     ethr =  2.19E-04,  avg # of iterations = 12.8

     negative rho (up, down):  4.310E-03 0.000E+00

     total cpu time spent up to now is       22.2 secs

     total energy              =   -1484.09214148 Ry
     estimated scf accuracy    <       0.14730177 Ry

     iteration # 18     ecut=    30.00 Ry     beta= 0.70
     Davidson diagonalization with overlap

---- Real-time Memory Report at c_bands before calling an iterative solver
           227 MiB given to the printing process from OS
             0 MiB allocation reported by mallinfo(arena+hblkhd)
         80720 MiB available memory on the node where the printing process lives
------------------
     ethr =  9.95E-05,  avg # of iterations =  5.5

     negative rho (up, down):  4.177E-03 0.000E+00

     total cpu time spent up to now is       23.6 secs

     total energy              =   -1484.10421405 Ry
     estimated scf accuracy    <       0.16560398 Ry

     iteration # 19     ecut=    30.00 Ry     beta= 0.70
     Davidson diagonalization with overlap

---- Real-time Memory Report at c_bands before calling an iterative solver
           227 MiB given to the printing process from OS
             0 MiB allocation reported by mallinfo(arena+hblkhd)
         80694 MiB available memory on the node where the printing process lives
------------------
     ethr =  9.95E-05,  avg # of iterations =  2.5

     negative rho (up, down):  4.002E-03 0.000E+00

     total cpu time spent up to now is       24.8 secs

     total energy              =   -1484.11390196 Ry
     estimated scf accuracy    <       0.22480429 Ry

     iteration # 20     ecut=    30.00 Ry     beta= 0.70
     Davidson diagonalization with overlap

---- Real-time Memory Report at c_bands before calling an iterative solver
           227 MiB given to the printing process from OS
             0 MiB allocation reported by mallinfo(arena+hblkhd)
         80686 MiB available memory on the node where the printing process lives
------------------
     ethr =  9.95E-05,  avg # of iterations =  1.0

     negative rho (up, down):  3.788E-03 0.000E+00

     total cpu time spent up to now is       25.5 secs

     total energy              =   -1484.11745881 Ry
     estimated scf accuracy    <       0.27713569 Ry

     iteration # 21     ecut=    30.00 Ry     beta= 0.70
     Davidson diagonalization with overlap

---- Real-time Memory Report at c_bands before calling an iterative solver
           227 MiB given to the printing process from OS
             0 MiB allocation reported by mallinfo(arena+hblkhd)
         80672 MiB available memory on the node where the printing process lives
------------------
     ethr =  9.95E-05,  avg # of iterations =  1.6

     negative rho (up, down):  3.384E-03 0.000E+00

     total cpu time spent up to now is       26.1 secs

     total energy              =   -1484.12092318 Ry
     estimated scf accuracy    <       0.33326950 Ry

     iteration # 22     ecut=    30.00 Ry     beta= 0.70
     Davidson diagonalization with overlap

---- Real-time Memory Report at c_bands before calling an iterative solver
           227 MiB given to the printing process from OS
             0 MiB allocation reported by mallinfo(arena+hblkhd)
         80746 MiB available memory on the node where the printing process lives
------------------
     ethr =  9.95E-05,  avg # of iterations =  1.4

     negative rho (up, down):  2.987E-03 0.000E+00

     total cpu time spent up to now is       26.7 secs

     total energy              =   -1484.11624262 Ry
     estimated scf accuracy    <       0.37599621 Ry

     iteration # 23     ecut=    30.00 Ry     beta= 0.70
     Davidson diagonalization with overlap

---- Real-time Memory Report at c_bands before calling an iterative solver
           227 MiB given to the printing process from OS
             0 MiB allocation reported by mallinfo(arena+hblkhd)
         80664 MiB available memory on the node where the printing process lives
------------------
     ethr =  9.95E-05,  avg # of iterations =  1.4

     negative rho (up, down):  2.753E-03 0.000E+00

     total cpu time spent up to now is       27.2 secs

     total energy              =   -1484.10668667 Ry
     estimated scf accuracy    <       0.30794354 Ry

     iteration # 24     ecut=    30.00 Ry     beta= 0.70
     Davidson diagonalization with overlap

---- Real-time Memory Report at c_bands before calling an iterative solver
           227 MiB given to the printing process from OS
             0 MiB allocation reported by mallinfo(arena+hblkhd)
         80659 MiB available memory on the node where the printing process lives
------------------
     ethr =  9.95E-05,  avg # of iterations =  1.0

     negative rho (up, down):  2.701E-03 0.000E+00

     total cpu time spent up to now is       27.7 secs

     total energy              =   -1484.08212746 Ry
     estimated scf accuracy    <       0.19899520 Ry

     iteration # 25     ecut=    30.00 Ry     beta= 0.70
     Davidson diagonalization with overlap

---- Real-time Memory Report at c_bands before calling an iterative solver
           227 MiB given to the printing process from OS
             0 MiB allocation reported by mallinfo(arena+hblkhd)
         80656 MiB available memory on the node where the printing process lives
------------------
     ethr =  9.95E-05,  avg # of iterations =  2.0

     negative rho (up, down):  3.146E-03 0.000E+00

     total cpu time spent up to now is       28.3 secs

     total energy              =   -1484.08755842 Ry
     estimated scf accuracy    <       0.01529871 Ry

     iteration # 26     ecut=    30.00 Ry     beta= 0.70
     Davidson diagonalization with overlap

---- Real-time Memory Report at c_bands before calling an iterative solver
           227 MiB given to the printing process from OS
             0 MiB allocation reported by mallinfo(arena+hblkhd)
         80729 MiB available memory on the node where the printing process lives
------------------
     ethr =  1.03E-05,  avg # of iterations =  7.2

     negative rho (up, down):  3.130E-03 0.000E+00

     total cpu time spent up to now is       29.2 secs

     total energy              =   -1484.09117926 Ry
     estimated scf accuracy    <       0.00288818 Ry

     iteration # 27     ecut=    30.00 Ry     beta= 0.70
     Davidson diagonalization with overlap

---- Real-time Memory Report at c_bands before calling an iterative solver
           227 MiB given to the printing process from OS
             0 MiB allocation reported by mallinfo(arena+hblkhd)
         80638 MiB available memory on the node where the printing process lives
------------------
     ethr =  1.95E-06,  avg # of iterations =  6.1

     negative rho (up, down):  3.129E-03 0.000E+00

     total cpu time spent up to now is       29.8 secs

     total energy              =   -1484.09134674 Ry
     estimated scf accuracy    <       0.00014666 Ry

     iteration # 28     ecut=    30.00 Ry     beta= 0.70
     Davidson diagonalization with overlap

---- Real-time Memory Report at c_bands before calling an iterative solver
           227 MiB given to the printing process from OS
             0 MiB allocation reported by mallinfo(arena+hblkhd)
         80660 MiB available memory on the node where the printing process lives
------------------
     ethr =  9.91E-08,  avg # of iterations =  7.0

     negative rho (up, down):  3.130E-03 0.000E+00

     total cpu time spent up to now is       30.7 secs

     total energy              =   -1484.09139357 Ry
     estimated scf accuracy    <       0.00001565 Ry

     iteration # 29     ecut=    30.00 Ry     beta= 0.70
     Davidson diagonalization with overlap

---- Real-time Memory Report at c_bands before calling an iterative solver
           227 MiB given to the printing process from OS
             0 MiB allocation reported by mallinfo(arena+hblkhd)
         80624 MiB available memory on the node where the printing process lives
------------------
     ethr =  1.06E-08,  avg # of iterations =  3.2

     negative rho (up, down):  3.130E-03 0.000E+00

     total cpu time spent up to now is       31.2 secs

     total energy              =   -1484.09139385 Ry
     estimated scf accuracy    <       0.00000607 Ry

     iteration # 30     ecut=    30.00 Ry     beta= 0.70
     Davidson diagonalization with overlap

---- Real-time Memory Report at c_bands before calling an iterative solver
           227 MiB given to the printing process from OS
             0 MiB allocation reported by mallinfo(arena+hblkhd)
         80620 MiB available memory on the node where the printing process lives
------------------
     ethr =  4.10E-09,  avg # of iterations =  2.6

     negative rho (up, down):  3.133E-03 0.000E+00

     total cpu time spent up to now is       31.8 secs

     End of self-consistent calculation

          k = 0.0000 0.0000 0.0000 (  3285 PWs)   bands (ev):

   -66.1480 -66.1473 -66.1389 -66.1386 -43.9326 -43.9266 -43.8894 -43.8840
   -35.0183 -35.0104 -34.9799 -34.9790 -34.9318 -34.9287 -34.8915 -34.8909
   -34.7800 -34.7723 -34.7669 -34.7608 -20.3327 -20.3305 -20.3270 -20.3010
   -20.2941 -20.2868 -20.2626 -20.2193 -20.1536 -20.1412 -20.1350 -20.1294
    -2.8781  -1.8607  -1.8254  -1.8077  -1.3691  -1.3252  -1.3124  -1.2463
     7.3712   7.7257   7.8300   8.2611   8.4026   8.4760   8.5734   8.5986
     8.6164   8.7552   8.7885   8.8504   8.9378   9.1557   9.1733   9.1944
     9.2925   9.5257   9.6265   9.9252  10.4486  10.4831  10.5118  11.3097
    11.3901  11.5616  12.0360  12.1048  12.1999  12.2471  12.3127  12.7771
    12.9699  13.2426  13.3354  13.6195  13.6832  13.7093  13.8127  14.0600
    14.2994  14.3206  14.3789  14.6431  14.7758  14.9241  14.9392  15.1681
    15.3146  15.3290

     occupation numbers 
     1.0000   1.0000   1.0000   1.0000   1.0000   1.0000   1.0000   1.0000
     1.0000   1.0000   1.0000   1.0000   1.0000   1.0000   1.0000   1.0000
     1.0000   1.0000   1.0000   1.0000   1.0000   1.0000   1.0000   1.0000
     1.0000   1.0000   1.0000   1.0000   1.0000   1.0000   1.0000   1.0000
     1.0000   1.0000   1.0000   1.0000   1.0000   1.0000   1.0000   1.0000
     1.0000   1.0000   1.0000   1.0000   1.0000   1.0000   1.0000   1.0000
     1.0000   1.0000   1.0000   1.0000   1.0000   1.0000   1.0000   1.0000
     1.0000   1.0000   1.0000   1.0000   1.0000   1.0000   1.0000   1.0000
     1.0000   1.0000   1.0000   1.0000   1.0000   1.0000   1.0000   1.0000
     1.0000   1.0000   0.0000   0.0000   0.0000   0.0000   0.0000   0.0000
     0.0000   0.0000   0.0000   0.0000   0.0000   0.0000   0.0000   0.0000
     0.0000   0.0000

          k = 0.0000 0.0000 0.4846 (  3298 PWs)   bands (ev):

   -66.1456 -66.1448 -66.1415 -66.1407 -43.9215 -43.9153 -43.9000 -43.8940
   -35.0111 -35.0093 -34.9947 -34.9943 -34.9150 -34.9149 -34.8951 -34.8945
   -34.7765 -34.7740 -34.7695 -34.7647 -20.3603 -20.3590 -20.3543 -20.3508
   -20.3169 -20.2979 -20.2502 -20.2300 -20.1219 -20.1188 -20.1120 -20.1087
    -2.2596  -1.4812  -1.4676  -1.2820  -1.2759  -1.1289  -1.0624  -1.0235
     6.6847   7.0432   7.1218   7.1817   7.3090   7.6345   7.7268   8.1944
     8.2873   8.2907   8.2944   8.4904   8.5495   8.5515   8.9197   8.9827
     9.0130   9.0296   9.1883   9.2633   9.3197   9.3326   9.3851   9.4602
    12.3210  12.3312  12.4525  12.7314  12.8938  12.9831  13.0241  13.1164
    13.4109  13.4841  13.5827  13.6233  13.6803  13.7392  14.3030  14.3668
    14.6342  14.6588  14.9028  14.9070  15.1429  15.3991  15.5083  15.5685
    15.6496  15.6714

     occupation numbers 
     1.0000   1.0000   1.0000   1.0000   1.0000   1.0000   1.0000   1.0000
     1.0000   1.0000   1.0000   1.0000   1.0000   1.0000   1.0000   1.0000
     1.0000   1.0000   1.0000   1.0000   1.0000   1.0000   1.0000   1.0000
     1.0000   1.0000   1.0000   1.0000   1.0000   1.0000   1.0000   1.0000
     1.0000   1.0000   1.0000   1.0000   1.0000   1.0000   1.0000   1.0000
     1.0000   1.0000   1.0000   1.0000   1.0000   1.0000   1.0000   1.0000
     1.0000   1.0000   1.0000   1.0000   1.0000   1.0000   1.0000   1.0000
     1.0000   1.0000   1.0000   1.0000   1.0000   1.0000   1.0000   1.0000
     1.0000   1.0000   1.0000   1.0000   1.0000   1.0000   1.0000   1.0000
     1.0000   1.0000   0.0000   0.0000   0.0000   0.0000   0.0000   0.0000
     0.0000   0.0000   0.0000   0.0000   0.0000   0.0000   0.0000   0.0000
     0.0000   0.0000

          k = 0.0000 0.2812 0.0000 (  3276 PWs)   bands (ev):

   -66.1476 -66.1471 -66.1388 -66.1386 -43.9312 -43.9281 -43.8879 -43.8851
   -35.0165 -35.0122 -34.9756 -34.9736 -34.9311 -34.9298 -34.8912 -34.8902
   -34.7775 -34.7726 -34.7653 -34.7624 -20.3380 -20.3328 -20.3155 -20.2993
   -20.2974 -20.2959 -20.2479 -20.2277 -20.1504 -20.1442 -20.1335 -20.1308
    -2.7126  -2.2973  -1.7346  -1.5147  -1.5060  -1.3634  -1.2813  -1.2220
     7.6408   7.8100   8.0042   8.1843   8.2953   8.3994   8.4186   8.4837
     8.7803   8.8173   8.8355   8.9305   8.9840   8.9933   9.0570   9.0828
     9.3129   9.4069   9.5921   9.6567  10.3285  10.7085  10.9316  11.0244
    11.1765  11.2521  11.8349  11.8408  12.1790  12.3500  12.9982  13.1175
    13.1671  13.2655  13.4334  13.4694  13.6424  13.6897  13.9571  14.0683
    14.1226  14.3193  14.6759  14.8287  14.8301  14.8359  14.9341  15.1033
    15.3515  15.3962

     occupation numbers 
     1.0000   1.0000   1.0000   1.0000   1.0000   1.0000   1.0000   1.0000
     1.0000   1.0000   1.0000   1.0000   1.0000   1.0000   1.0000   1.0000
     1.0000   1.0000   1.0000   1.0000   1.0000   1.0000   1.0000   1.0000
     1.0000   1.0000   1.0000   1.0000   1.0000   1.0000   1.0000   1.0000
     1.0000   1.0000   1.0000   1.0000   1.0000   1.0000   1.0000   1.0000
     1.0000   1.0000   1.0000   1.0000   1.0000   1.0000   1.0000   1.0000
     1.0000   1.0000   1.0000   1.0000   1.0000   1.0000   1.0000   1.0000
     1.0000   1.0000   1.0000   1.0000   1.0000   1.0000   1.0000   1.0000
     1.0000   1.0000   1.0000   1.0000   1.0000   1.0000   1.0000   1.0000
     1.0000   1.0000   0.0000   0.0000   0.0000   0.0000   0.0000   0.0000
     0.0000   0.0000   0.0000   0.0000   0.0000   0.0000   0.0000   0.0000
     0.0000   0.0000

          k = 0.0000 0.2812 0.4846 (  3297 PWs)   bands (ev):

   -66.1455 -66.1450 -66.1412 -66.1408 -43.9203 -43.9172 -43.8981 -43.8952
   -35.0110 -35.0090 -34.9933 -34.9923 -34.9154 -34.9140 -34.8952 -34.8939
   -34.7774 -34.7756 -34.7687 -34.7671 -20.3597 -20.3570 -20.3560 -20.3520
   -20.3134 -20.3039 -20.2443 -20.2343 -20.1194 -20.1166 -20.1137 -20.1109
    -2.1162  -1.7722  -1.3378  -1.2797  -1.1884  -1.1386  -1.1144  -1.0447
     6.8237   7.0612   7.1322   7.1675   7.4875   7.6184   7.7198   7.9726
     8.1991   8.3927   8.4141   8.4360   8.5959   8.6225   8.7118   8.9394
     9.0494   9.0928   9.1109   9.2106   9.2232   9.2477   9.2623   9.4013
    12.0976  12.3893  12.5906  12.6431  12.8514  13.0259  13.1682  13.2670
    13.4236  13.4278  13.6045  13.6641  13.9144  14.0203  14.2522  14.3608
    14.7525  14.7685  15.0405  15.0826  15.0879  15.4104  15.4633  15.6365
    15.7477  15.8941

     occupation numbers 
     1.0000   1.0000   1.0000   1.0000   1.0000   1.0000   1.0000   1.0000
     1.0000   1.0000   1.0000   1.0000   1.0000   1.0000   1.0000   1.0000
     1.0000   1.0000   1.0000   1.0000   1.0000   1.0000   1.0000   1.0000
     1.0000   1.0000   1.0000   1.0000   1.0000   1.0000   1.0000   1.0000
     1.0000   1.0000   1.0000   1.0000   1.0000   1.0000   1.0000   1.0000
     1.0000   1.0000   1.0000   1.0000   1.0000   1.0000   1.0000   1.0000
     1.0000   1.0000   1.0000   1.0000   1.0000   1.0000   1.0000   1.0000
     1.0000   1.0000   1.0000   1.0000   1.0000   1.0000   1.0000   1.0000
     1.0000   1.0000   1.0000   1.0000   1.0000   1.0000   1.0000   1.0000
     1.0000   1.0000   0.0000   0.0000   0.0000   0.0000   0.0000   0.0000
     0.0000   0.0000   0.0000   0.0000   0.0000   0.0000   0.0000   0.0000
     0.0000   0.0000

          k = 0.3333 0.0000 0.0000 (  3298 PWs)   bands (ev):

   -66.1479 -66.1472 -66.1390 -66.1389 -43.9311 -43.9281 -43.8881 -43.8853
   -35.0168 -35.0143 -34.9780 -34.9765 -34.9319 -34.9299 -34.8915 -34.8878
   -34.7771 -34.7751 -34.7714 -34.7661 -20.3424 -20.3366 -20.2993 -20.2960
   -20.2959 -20.2772 -20.2690 -20.2443 -20.1467 -20.1417 -20.1336 -20.1308
    -2.6574  -2.1574  -1.8230  -1.8182  -1.3526  -1.3431  -1.2548  -1.2120
     7.4077   7.4451   7.6092   8.1717   8.3052   8.4455   8.4602   8.6730
     8.7269   8.8612   8.9258   9.0034   9.0112   9.0326   9.1167   9.2339
     9.3137   9.3175   9.4135   9.9301  10.2463  10.5312  10.5570  11.1556
    11.5463  11.5726  11.7970  12.1249  12.4163  12.4758  12.9447  13.2139
    13.2609  13.2767  13.5345  13.6526  13.6784  13.6982  13.7730  13.8961
    14.2923  14.3833  14.4819  14.5905  14.8105  14.8514  14.8629  15.0273
    15.4129  15.6019

     occupation numbers 
     1.0000   1.0000   1.0000   1.0000   1.0000   1.0000   1.0000   1.0000
     1.0000   1.0000   1.0000   1.0000   1.0000   1.0000   1.0000   1.0000
     1.0000   1.0000   1.0000   1.0000   1.0000   1.0000   1.0000   1.0000
     1.0000   1.0000   1.0000   1.0000   1.0000   1.0000   1.0000   1.0000
     1.0000   1.0000   1.0000   1.0000   1.0000   1.0000   1.0000   1.0000
     1.0000   1.0000   1.0000   1.0000   1.0000   1.0000   1.0000   1.0000
     1.0000   1.0000   1.0000   1.0000   1.0000   1.0000   1.0000   1.0000
     1.0000   1.0000   1.0000   1.0000   1.0000   1.0000   1.0000   1.0000
     1.0000   1.0000   1.0000   1.0000   1.0000   1.0000   1.0000   1.0000
     1.0000   1.0000   0.0000   0.0000   0.0000   0.0000   0.0000   0.0000
     0.0000   0.0000   0.0000   0.0000   0.0000   0.0000   0.0000   0.0000
     0.0000   0.0000

          k = 0.3333 0.0000 0.4846 (  3295 PWs)   bands (ev):

   -66.1454 -66.1451 -66.1412 -66.1407 -43.9200 -43.9169 -43.8985 -43.8955
   -35.0104 -35.0100 -34.9949 -34.9921 -34.9142 -34.9136 -34.8957 -34.8948
   -34.7746 -34.7725 -34.7701 -34.7673 -20.3610 -20.3596 -20.3573 -20.3533
   -20.2969 -20.2822 -20.2650 -20.2491 -20.1185 -20.1146 -20.1138 -20.1099
    -2.0660  -1.6512  -1.4214  -1.3662  -1.2320  -1.1153  -1.0653  -1.0571
     6.6897   6.8038   6.9906   7.1233   7.2870   7.5129   7.6502   7.9383
     8.2954   8.4769   8.5343   8.5615   8.5966   8.6677   8.6984   9.0029
     9.0493   9.0854   9.1710   9.1818   9.2137   9.2158   9.5406   9.5553
    12.5442  12.6030  12.6425  12.7956  12.9730  13.0892  13.1502  13.2452
    13.3083  13.4659  13.5591  13.6019  13.8150  13.9725  13.9845  14.2541
    14.7871  14.9408  15.1646  15.1853  15.4497  15.4755  15.5132  15.6221
    15.8059  15.8398

     occupation numbers 
     1.0000   1.0000   1.0000   1.0000   1.0000   1.0000   1.0000   1.0000
     1.0000   1.0000   1.0000   1.0000   1.0000   1.0000   1.0000   1.0000
     1.0000   1.0000   1.0000   1.0000   1.0000   1.0000   1.0000   1.0000
     1.0000   1.0000   1.0000   1.0000   1.0000   1.0000   1.0000   1.0000
     1.0000   1.0000   1.0000   1.0000   1.0000   1.0000   1.0000   1.0000
     1.0000   1.0000   1.0000   1.0000   1.0000   1.0000   1.0000   1.0000
     1.0000   1.0000   1.0000   1.0000   1.0000   1.0000   1.0000   1.0000
     1.0000   1.0000   1.0000   1.0000   1.0000   1.0000   1.0000   1.0000
     1.0000   1.0000   1.0000   1.0000   1.0000   1.0000   1.0000   1.0000
     1.0000   1.0000   0.0000   0.0000   0.0000   0.0000   0.0000   0.0000
     0.0000   0.0000   0.0000   0.0000   0.0000   0.0000   0.0000   0.0000
     0.0000   0.0000

          k = 0.3333 0.2812 0.0000 (  3301 PWs)   bands (ev):

   -66.1476 -66.1474 -66.1391 -66.1389 -43.9304 -43.9289 -43.8873 -43.8861
   -35.0150 -35.0134 -34.9769 -34.9757 -34.9344 -34.9302 -34.8906 -34.8897
   -34.7786 -34.7759 -34.7707 -34.7654 -20.3382 -20.3320 -20.3051 -20.2984
   -20.2967 -20.2943 -20.2521 -20.2428 -20.1462 -20.1436 -20.1329 -20.1315
    -2.5112  -2.1579  -2.0483  -1.8273  -1.3483  -1.3148  -1.2242  -1.1937
     7.5092   7.6077   7.8162   8.0793   8.3335   8.4093   8.4109   8.4663
     8.7122   8.7873   8.7976   8.8159   8.8965   8.9270   9.1215   9.1489
     9.4240   9.5616   9.7707   9.9969  10.2063  10.2483  10.6195  10.7460
    11.4126  11.4873  11.8346  12.0139  12.4600  12.9081  13.1724  13.2282
    13.3214  13.4026  13.6101  13.6192  13.6708  13.7487  13.9730  14.1069
    14.1791  14.3054  14.6403  14.7441  14.7886  14.8349  14.9313  15.0517
    15.5032  15.5500

     occupation numbers 
     1.0000   1.0000   1.0000   1.0000   1.0000   1.0000   1.0000   1.0000
     1.0000   1.0000   1.0000   1.0000   1.0000   1.0000   1.0000   1.0000
     1.0000   1.0000   1.0000   1.0000   1.0000   1.0000   1.0000   1.0000
     1.0000   1.0000   1.0000   1.0000   1.0000   1.0000   1.0000   1.0000
     1.0000   1.0000   1.0000   1.0000   1.0000   1.0000   1.0000   1.0000
     1.0000   1.0000   1.0000   1.0000   1.0000   1.0000   1.0000   1.0000
     1.0000   1.0000   1.0000   1.0000   1.0000   1.0000   1.0000   1.0000
     1.0000   1.0000   1.0000   1.0000   1.0000   1.0000   1.0000   1.0000
     1.0000   1.0000   1.0000   1.0000   1.0000   1.0000   1.0000   1.0000
     1.0000   1.0000   0.0000   0.0000   0.0000   0.0000   0.0000   0.0000
     0.0000   0.0000   0.0000   0.0000   0.0000   0.0000   0.0000   0.0000
     0.0000   0.0000

          k = 0.3333 0.2812 0.4846 (  3287 PWs)   bands (ev):

   -66.1452 -66.1451 -66.1410 -66.1407 -43.9192 -43.9176 -43.8976 -43.8962
   -35.0097 -35.0080 -34.9927 -34.9922 -34.9138 -34.9131 -34.8950 -34.8935
   -34.7738 -34.7720 -34.7685 -34.7679 -20.3604 -20.3595 -20.3566 -20.3549
   -20.2953 -20.2887 -20.2581 -20.2509 -20.1173 -20.1150 -20.1134 -20.1112
    -1.9419  -1.6678  -1.5329  -1.3869  -1.2062  -1.1132  -1.0748  -1.0612
     6.7774   6.8861   7.0160   7.0657   7.3453   7.4683   7.6437   7.7878
     8.4319   8.4913   8.5265   8.5455   8.6781   8.7333   8.7998   8.9341
     9.0071   9.0399   9.0705   9.1106   9.1431   9.2696   9.3088   9.4197
    12.5872  12.6072  12.6203  12.9389  12.9591  13.0437  13.1915  13.2587
    13.4656  13.5563  13.6640  13.7702  13.8337  13.9965  14.1349  14.2648
    14.8702  14.9326  15.1269  15.3331  15.4001  15.5173  15.5823  15.6937
    15.8487  15.9148

     occupation numbers 
     1.0000   1.0000   1.0000   1.0000   1.0000   1.0000   1.0000   1.0000
     1.0000   1.0000   1.0000   1.0000   1.0000   1.0000   1.0000   1.0000
     1.0000   1.0000   1.0000   1.0000   1.0000   1.0000   1.0000   1.0000
     1.0000   1.0000   1.0000   1.0000   1.0000   1.0000   1.0000   1.0000
     1.0000   1.0000   1.0000   1.0000   1.0000   1.0000   1.0000   1.0000
     1.0000   1.0000   1.0000   1.0000   1.0000   1.0000   1.0000   1.0000
     1.0000   1.0000   1.0000   1.0000   1.0000   1.0000   1.0000   1.0000
     1.0000   1.0000   1.0000   1.0000   1.0000   1.0000   1.0000   1.0000
     1.0000   1.0000   1.0000   1.0000   1.0000   1.0000   1.0000   1.0000
     1.0000   1.0000   0.0000   0.0000   0.0000   0.0000   0.0000   0.0000
     0.0000   0.0000   0.0000   0.0000   0.0000   0.0000   0.0000   0.0000
     0.0000   0.0000

     highest occupied, lowest unoccupied level (ev):    13.5563   13.3354

!    total energy              =   -1484.09139379 Ry
     estimated scf accuracy    <       0.00000049 Ry

     The total energy is the sum of the following terms:
     one-electron contribution =    -648.62707597 Ry
     hartree contribution      =     394.42010706 Ry
     xc contribution           =    -221.46116392 Ry
     ewald contribution        =   -1008.42326096 Ry

     convergence has been achieved in  30 iterations

     Writing all to output data dir calculations_bands/myprefix.save/
 
     init_run     :      6.47s CPU      2.97s WALL (       1 calls)
     electrons    :    107.04s CPU     28.63s WALL (       1 calls)

     Called by init_run:
     wfcinit      :      1.75s CPU      0.47s WALL (       1 calls)
     wfcinit:atom :      0.01s CPU      0.00s WALL (       4 calls)
     wfcinit:wfcr :      1.66s CPU      0.44s WALL (       4 calls)
     potinit      :      1.30s CPU      0.54s WALL (       1 calls)
     hinit0       :      2.54s CPU      1.41s WALL (       1 calls)

     Called by electrons:
     c_bands      :     80.87s CPU     21.24s WALL (      30 calls)
     sum_band     :     16.00s CPU      4.50s WALL (      30 calls)
     v_of_rho     :      1.54s CPU      0.41s WALL (      31 calls)
     v_h          :      0.10s CPU      0.03s WALL (      31 calls)
     v_xc         :      1.44s CPU      0.38s WALL (      31 calls)
     newd         :      8.25s CPU      2.38s WALL (      31 calls)
     mix_rho      :      0.48s CPU      0.13s WALL (      30 calls)

     Called by c_bands:
     init_us_2    :      0.26s CPU      0.08s WALL (     244 calls)
     init_us_2:cp :      0.25s CPU      0.08s WALL (     244 calls)
     cegterg      :     65.65s CPU     17.14s WALL (     120 calls)

     Called by sum_band:
     sum_band:wei :      0.02s CPU      0.01s WALL (      30 calls)
     sum_band:loo :      8.10s CPU      2.11s WALL (      30 calls)
     sum_band:buf :      0.12s CPU      0.04s WALL (     120 calls)
     sum_band:ini :      0.12s CPU      0.03s WALL (     120 calls)
     sum_band:cal :      0.66s CPU      0.17s WALL (     120 calls)
     sum_band:bec :      0.09s CPU      0.02s WALL (     120 calls)
     addusdens    :      3.72s CPU      1.28s WALL (      30 calls)
     addusd:skk   :      0.03s CPU      0.01s WALL (      90 calls)
     addusd:dgemm :      0.60s CPU      0.42s WALL (      90 calls)
     addusd:qvan2 :      2.08s CPU      0.53s WALL (      90 calls)

     Called by *egterg:
     cdiaghg      :     18.03s CPU      4.73s WALL (     628 calls)
     cegterg:over :      3.97s CPU      1.04s WALL (     508 calls)
     cegterg:upda :      1.49s CPU      0.39s WALL (     508 calls)
     cegterg:last :      2.35s CPU      0.61s WALL (     256 calls)
     cdiaghg:chol :      1.13s CPU      0.30s WALL (     628 calls)
     cdiaghg:inve :      0.27s CPU      0.07s WALL (     628 calls)
     cdiaghg:para :      2.83s CPU      0.75s WALL (    1256 calls)
     h_psi        :     38.49s CPU     10.03s WALL (     632 calls)
     s_psi        :      1.05s CPU      0.27s WALL (     632 calls)
     g_psi        :      0.07s CPU      0.02s WALL (     508 calls)

     Called by h_psi:
     h_psi:calbec :      2.17s CPU      0.56s WALL (     632 calls)
     vloc_psi     :     34.92s CPU      9.10s WALL (     632 calls)
     add_vuspsi   :      1.28s CPU      0.33s WALL (     632 calls)

     General routines
     calbec       :      2.81s CPU      0.73s WALL (     752 calls)
     fft          :      2.62s CPU      1.09s WALL (     401 calls)
     ffts         :      1.02s CPU      0.36s WALL (      61 calls)
     fftw         :     37.09s CPU      9.69s WALL (   68334 calls)
     interpolate  :      1.05s CPU      0.37s WALL (      31 calls)
 
     Parallel routines
 
     PWSCF        :   1m54.76s CPU     32.19s WALL

 
   This run was terminated on:   7: 4:15  23Jun2023            

=------------------------------------------------------------------------------=
   JOB DONE.
=------------------------------------------------------------------------------=
