
     Program PWSCF v.7.0 starts on  7Jun2023 at  6:28: 5 

     This program is part of the open-source Quantum ESPRESSO suite
     for quantum simulation of materials; please cite
         "P. Giannozzi et al., J. Phys.:Condens. Matter 21 395502 (2009);
         "P. Giannozzi et al., J. Phys.:Condens. Matter 29 465901 (2017);
         "P. Giannozzi et al., J. Chem. Phys. 152 154105 (2020);
          URL http://www.quantum-espresso.org", 
     in publications or presentations arising from this work. More details at
     http://www.quantum-espresso.org/quote

     Parallel version (MPI & OpenMP), running on      32 processor cores
     Number of MPI processes:                 8
     Threads/MPI process:                     4

     MPI processes distributed on     1 nodes
     K-points division:     npool     =       2
     R & G space division:  proc/nbgrp/npool/nimage =       4
     83865 MiB available memory on the printing compute node when the environment starts
 
     Reading input from espresso_4048.pwi
Warning: card &CELL ignored
Warning: card / ignored

     Current dimensions of program PWSCF are:
     Max number of different atomic species (ntypx) = 10
     Max number of k-points (npk) =  40000
     Max angular momentum in pseudopotentials (lmaxx) =  4
     file Ba.pbe-spn-kjpaw_psl.1.0.0.UPF: wavefunction(s)  5S 6S renormalized

     Subspace diagonalization in iterative solution of the eigenvalue problem:
     one sub-group per band group will be used
     scalapack distributed-memory algorithm (size of sub-group:  2*  2 procs)

 
     Parallelization info
     --------------------
     sticks:   dense  smooth     PW     G-vecs:    dense   smooth      PW
     Min         475     237     69                15726     5551     851
     Max         476     238     70                15729     5556     854
     Sum        1901     949    277                62909    22211    3407
 
     Using Slab Decomposition
 


     bravais-lattice index     =            0
     lattice parameter (alat)  =       9.9917  a.u.
     unit-cell volume          =    1003.3859 (a.u.)^3
     number of atoms/cell      =            5
     number of atomic types    =            3
     number of electrons       =        40.00
     number of Kohn-Sham states=           64
     kinetic-energy cutoff     =      30.0000  Ry
     charge density cutoff     =     240.0000  Ry
     scf convergence threshold =      1.0E-06
     mixing beta               =       0.7000
     number of iterations used =            8  plain     mixing
     Exchange-correlation= SLA  PW   PBE  PBE
                           (   1   4   3   4   0   0   0)

     celldm(1)=   9.991706  celldm(2)=   0.000000  celldm(3)=   0.000000
     celldm(4)=   0.000000  celldm(5)=   0.000000  celldm(6)=   0.000000

     crystal axes: (cart. coord. in units of alat)
               a(1) = (   1.000000   0.000000   0.000000 )  
               a(2) = (   0.000676   1.001704   0.000000 )  
               a(3) = (   0.001504   0.001902   1.004176 )  

     reciprocal axes: (cart. coord. in units 2 pi/alat)
               b(1) = (  1.000000 -0.000675 -0.001496 )  
               b(2) = (  0.000000  0.998299 -0.001890 )  
               b(3) = (  0.000000  0.000000  0.995842 )  


     PseudoPot. # 1 for Ba read from file:
     /home/pragov/projects/rrg-bengioy-ad/pragov/crystal_structure_design/SSSP/Ba.pbe-spn-kjpaw_psl.1.0.0.UPF
     MD5 check sum: c432291d3e53af55f19d5e8866385beb
     Pseudo is Projector augmented-wave + core cor, Zval = 10.0
     Generated using "atomic" code by A. Dal Corso  v.5.1
     Shape of augmentation charge: PSQ
     Using radial grid of 1251 points,  7 beta functions with: 
                l(1) =   0
                l(2) =   0
                l(3) =   0
                l(4) =   1
                l(5) =   1
                l(6) =   2
                l(7) =   2
     Q(r) pseudized with 0 coefficients 


     PseudoPot. # 2 for Zr read from file:
     /home/pragov/projects/rrg-bengioy-ad/pragov/crystal_structure_design/SSSP/Zr_pbe_v1.uspp.F.UPF
     MD5 check sum: 5db81b1e868ab7776c4564c113de050b
     Pseudo is Ultrasoft + core correction, Zval = 12.0
     Generated by new atomic code, or converted to UPF format
     Using radial grid of  887 points,  6 beta functions with: 
                l(1) =   0
                l(2) =   0
                l(3) =   1
                l(4) =   1
                l(5) =   2
                l(6) =   2
     Q(r) pseudized with  6 coefficients,  rinner =    1.200   1.200   1.200
                                                       1.200   1.200

     PseudoPot. # 3 for Se read from file:
     /home/pragov/projects/rrg-bengioy-ad/pragov/crystal_structure_design/SSSP/Se_pbe_v1.uspp.F.UPF
     MD5 check sum: 1b3568f3a8ae88f9a2a0ad0698632c85
     Pseudo is Ultrasoft + core correction, Zval =  6.0
     Generated by new atomic code, or converted to UPF format
     Using radial grid of  877 points,  6 beta functions with: 
                l(1) =   0
                l(2) =   0
                l(3) =   1
                l(4) =   1
                l(5) =   2
                l(6) =   2
     Q(r) pseudized with  8 coefficients,  rinner =    1.300   1.300   1.300
                                                       1.300   1.300

     atomic species   valence    mass     pseudopotential
        Ba            10.00   137.32700     Ba( 1.00)
        Zr            12.00    91.22400     Zr( 1.00)
        Se             6.00    78.97100     Se( 1.00)

     No symmetry found


                                    s                        frac. trans.

      isym =  1     identity                                     

 cryst.   s( 1) = (     1          0          0      )
                  (     0          1          0      )
                  (     0          0          1      )

 cart.    s( 1) = (  1.0000000  0.0000000 -0.0000000 )
                  (  0.0000000  1.0000000  0.0000000 )
                  (  0.0000000  0.0000000  1.0000000 )


   Cartesian axes

     site n.     atom                  positions (alat units)
         1           Ba  tau(   1) = (   1.0008199   1.0020783   1.0028432  )
         2           Zr  tau(   2) = (   0.4776262   0.4918105   0.4787177  )
         3           Se  tau(   3) = (   0.4897482   1.0011632   0.5047921  )
         4           Se  tau(   4) = (   0.9849707   0.5134938   0.5207053  )
         5           Se  tau(   5) = (   0.4944467   0.5040531   0.9975181  )

   Crystallographic axes

     site n.     atom                  positions (cryst. coord.)
         1           Ba  tau(   1) = (  0.9986430  0.9984780  0.9986730  )
         2           Zr  tau(   2) = (  0.4765780  0.4900690  0.4767270  )
         3           Se  tau(   3) = (  0.4883170  0.9985060  0.5026930  )
         4           Se  tau(   4) = (  0.9838450  0.5116360  0.5185400  )
         5           Se  tau(   5) = (  0.4926140  0.5013100  0.9933700  )

     number of k points=    14
                       cart. coord. in units 2pi/alat
        k(    1) = (   0.0000000   0.0000000   0.0000000), wk =   0.0740741
        k(    2) = (   0.0000000   0.0000000   0.3319472), wk =   0.1481481
        k(    3) = (   0.0000000   0.3327663  -0.0006301), wk =   0.1481481
        k(    4) = (   0.0000000   0.3327663   0.3313171), wk =   0.1481481
        k(    5) = (   0.0000000   0.3327663  -0.3325773), wk =   0.1481481
        k(    6) = (   0.3333333  -0.0002251  -0.0004987), wk =   0.1481481
        k(    7) = (   0.3333333  -0.0002251   0.3314485), wk =   0.1481481
        k(    8) = (   0.3333333  -0.0002251  -0.3324459), wk =   0.1481481
        k(    9) = (   0.3333333   0.3325413  -0.0011288), wk =   0.1481481
        k(   10) = (   0.3333333   0.3325413   0.3308184), wk =   0.1481481
        k(   11) = (   0.3333333   0.3325413  -0.3330760), wk =   0.1481481
        k(   12) = (   0.3333333  -0.3329914   0.0001314), wk =   0.1481481
        k(   13) = (   0.3333333  -0.3329914   0.3320786), wk =   0.1481481
        k(   14) = (   0.3333333  -0.3329914  -0.3318157), wk =   0.1481481

                       cryst. coord.
        k(    1) = (   0.0000000   0.0000000   0.0000000), wk =   0.0740741
        k(    2) = (   0.0000000   0.0000000   0.3333333), wk =   0.1481481
        k(    3) = (   0.0000000   0.3333333  -0.0000000), wk =   0.1481481
        k(    4) = (   0.0000000   0.3333333   0.3333333), wk =   0.1481481
        k(    5) = (   0.0000000   0.3333333  -0.3333333), wk =   0.1481481
        k(    6) = (   0.3333333  -0.0000000  -0.0000000), wk =   0.1481481
        k(    7) = (   0.3333333  -0.0000000   0.3333333), wk =   0.1481481
        k(    8) = (   0.3333333  -0.0000000  -0.3333333), wk =   0.1481481
        k(    9) = (   0.3333333   0.3333333  -0.0000000), wk =   0.1481481
        k(   10) = (   0.3333333   0.3333333   0.3333333), wk =   0.1481481
        k(   11) = (   0.3333333   0.3333333  -0.3333333), wk =   0.1481481
        k(   12) = (   0.3333333  -0.3333333  -0.0000000), wk =   0.1481481
        k(   13) = (   0.3333333  -0.3333333   0.3333333), wk =   0.1481481
        k(   14) = (   0.3333333  -0.3333333  -0.3333333), wk =   0.1481481

     Dense  grid:    62909 G-vectors     FFT dimensions: (  50,  50,  50)

     Smooth grid:    22211 G-vectors     FFT dimensions: (  36,  36,  36)

     Dynamical RAM for                 wfc:       0.68 MB

     Dynamical RAM for     wfc (w. buffer):       5.44 MB

     Dynamical RAM for           str. fact:       0.72 MB

     Dynamical RAM for           local pot:       0.00 MB

     Dynamical RAM for          nlocal pot:       0.97 MB

     Dynamical RAM for                qrad:       4.98 MB

     Dynamical RAM for          rho,v,vnew:       1.46 MB

     Dynamical RAM for               rhoin:       0.49 MB

     Dynamical RAM for            rho*nmix:       3.84 MB

     Dynamical RAM for           G-vectors:       0.94 MB

     Dynamical RAM for          h,s,v(r/c):       0.19 MB

     Dynamical RAM for          <psi|beta>:       0.09 MB

     Dynamical RAM for                 psi:       1.36 MB

     Dynamical RAM for                hpsi:       1.36 MB

     Dynamical RAM for                spsi:       1.36 MB

     Dynamical RAM for      wfcinit/wfcrot:       1.45 MB

     Dynamical RAM for           addusdens:      25.08 MB

     Estimated static dynamical RAM per process >      17.19 MB

     Estimated max dynamical RAM per process >      46.11 MB

     Estimated total dynamical RAM >     353.52 MB

     Initial potential from superposition of free atoms

     starting charge      39.9806, renormalised to      40.0000

     negative rho (up, down):  6.093E-02 0.000E+00
     Starting wfcs are   30 randomized atomic wfcs +   34 random wfcs
     Checking if some PAW data can be deallocated... 
       PAW data deallocated on    6 nodes for type:  1

     total cpu time spent up to now is        4.0 secs

     Self-consistent Calculation

     iteration #  1     ecut=    30.00 Ry     beta= 0.70
     Davidson diagonalization with overlap

---- Real-time Memory Report at c_bands before calling an iterative solver
           184 MiB given to the printing process from OS
             0 MiB allocation reported by mallinfo(arena+hblkhd)
         83271 MiB available memory on the node where the printing process lives
------------------
     ethr =  1.00E-02,  avg # of iterations =  7.4

     Threshold (ethr) on eigenvalues was too large:
     Diagonalizing with lowered threshold

     Davidson diagonalization with overlap

---- Real-time Memory Report at c_bands before calling an iterative solver
           215 MiB given to the printing process from OS
             0 MiB allocation reported by mallinfo(arena+hblkhd)
         83035 MiB available memory on the node where the printing process lives
------------------
     ethr =  8.78E-04,  avg # of iterations =  1.0

     negative rho (up, down):  1.527E-01 0.000E+00

     total cpu time spent up to now is        7.3 secs

     total energy              =    -666.61936103 Ry
     estimated scf accuracy    <       0.39845910 Ry

     iteration #  2     ecut=    30.00 Ry     beta= 0.70
     Davidson diagonalization with overlap

---- Real-time Memory Report at c_bands before calling an iterative solver
           225 MiB given to the printing process from OS
             0 MiB allocation reported by mallinfo(arena+hblkhd)
         83027 MiB available memory on the node where the printing process lives
------------------
     ethr =  9.96E-04,  avg # of iterations =  1.8

     negative rho (up, down):  1.362E-01 0.000E+00

     total cpu time spent up to now is        8.0 secs

     total energy              =    -666.52942377 Ry
     estimated scf accuracy    <       0.58512641 Ry

     iteration #  3     ecut=    30.00 Ry     beta= 0.70
     Davidson diagonalization with overlap

---- Real-time Memory Report at c_bands before calling an iterative solver
           230 MiB given to the printing process from OS
             0 MiB allocation reported by mallinfo(arena+hblkhd)
         82978 MiB available memory on the node where the printing process lives
------------------
     ethr =  9.96E-04,  avg # of iterations =  1.4

     negative rho (up, down):  1.101E-01 0.000E+00

     total cpu time spent up to now is        8.6 secs

     total energy              =    -666.70244446 Ry
     estimated scf accuracy    <       0.12969384 Ry

     iteration #  4     ecut=    30.00 Ry     beta= 0.70
     Davidson diagonalization with overlap

---- Real-time Memory Report at c_bands before calling an iterative solver
           230 MiB given to the printing process from OS
             0 MiB allocation reported by mallinfo(arena+hblkhd)
         82980 MiB available memory on the node where the printing process lives
------------------
     ethr =  3.24E-04,  avg # of iterations =  1.6

     negative rho (up, down):  1.013E-01 0.000E+00

     total cpu time spent up to now is        9.3 secs

     total energy              =    -666.71373893 Ry
     estimated scf accuracy    <       0.02632482 Ry

     iteration #  5     ecut=    30.00 Ry     beta= 0.70
     Davidson diagonalization with overlap

---- Real-time Memory Report at c_bands before calling an iterative solver
           231 MiB given to the printing process from OS
             0 MiB allocation reported by mallinfo(arena+hblkhd)
         82980 MiB available memory on the node where the printing process lives
------------------
     ethr =  6.58E-05,  avg # of iterations =  3.9

     negative rho (up, down):  7.339E-02 0.000E+00

     total cpu time spent up to now is       10.1 secs

     total energy              =    -666.71321486 Ry
     estimated scf accuracy    <       0.02316709 Ry

     iteration #  6     ecut=    30.00 Ry     beta= 0.70
     Davidson diagonalization with overlap

---- Real-time Memory Report at c_bands before calling an iterative solver
           231 MiB given to the printing process from OS
             0 MiB allocation reported by mallinfo(arena+hblkhd)
         82980 MiB available memory on the node where the printing process lives
------------------
     ethr =  5.79E-05,  avg # of iterations =  1.1

     negative rho (up, down):  6.382E-02 0.000E+00

     total cpu time spent up to now is       10.7 secs

     total energy              =    -666.71203654 Ry
     estimated scf accuracy    <       0.01026601 Ry

     iteration #  7     ecut=    30.00 Ry     beta= 0.70
     Davidson diagonalization with overlap

---- Real-time Memory Report at c_bands before calling an iterative solver
           231 MiB given to the printing process from OS
             0 MiB allocation reported by mallinfo(arena+hblkhd)
         82977 MiB available memory on the node where the printing process lives
------------------
     ethr =  2.57E-05,  avg # of iterations =  2.6

     negative rho (up, down):  6.371E-02 0.000E+00

     total cpu time spent up to now is       11.4 secs

     total energy              =    -666.71324181 Ry
     estimated scf accuracy    <       0.01028332 Ry

     iteration #  8     ecut=    30.00 Ry     beta= 0.70
     Davidson diagonalization with overlap

---- Real-time Memory Report at c_bands before calling an iterative solver
           231 MiB given to the printing process from OS
             0 MiB allocation reported by mallinfo(arena+hblkhd)
         82978 MiB available memory on the node where the printing process lives
------------------
     ethr =  2.57E-05,  avg # of iterations =  1.0

     negative rho (up, down):  6.370E-02 0.000E+00

     total cpu time spent up to now is       12.1 secs

     total energy              =    -666.71329693 Ry
     estimated scf accuracy    <       0.00125716 Ry

     iteration #  9     ecut=    30.00 Ry     beta= 0.70
     Davidson diagonalization with overlap

---- Real-time Memory Report at c_bands before calling an iterative solver
           231 MiB given to the printing process from OS
             0 MiB allocation reported by mallinfo(arena+hblkhd)
         82976 MiB available memory on the node where the printing process lives
------------------
     ethr =  3.14E-06,  avg # of iterations =  4.0

     negative rho (up, down):  6.372E-02 0.000E+00

     total cpu time spent up to now is       12.8 secs

     total energy              =    -666.71333184 Ry
     estimated scf accuracy    <       0.00074955 Ry

     iteration # 10     ecut=    30.00 Ry     beta= 0.70
     Davidson diagonalization with overlap

---- Real-time Memory Report at c_bands before calling an iterative solver
           231 MiB given to the printing process from OS
             0 MiB allocation reported by mallinfo(arena+hblkhd)
         82971 MiB available memory on the node where the printing process lives
------------------
     ethr =  1.87E-06,  avg # of iterations =  2.1

     negative rho (up, down):  6.359E-02 0.000E+00

     total cpu time spent up to now is       13.6 secs

     total energy              =    -666.71321569 Ry
     estimated scf accuracy    <       0.00069352 Ry

     iteration # 11     ecut=    30.00 Ry     beta= 0.70
     Davidson diagonalization with overlap

---- Real-time Memory Report at c_bands before calling an iterative solver
           231 MiB given to the printing process from OS
             0 MiB allocation reported by mallinfo(arena+hblkhd)
         82972 MiB available memory on the node where the printing process lives
------------------
     ethr =  1.73E-06,  avg # of iterations =  1.0

     negative rho (up, down):  6.353E-02 0.000E+00

     total cpu time spent up to now is       14.2 secs

     total energy              =    -666.71323737 Ry
     estimated scf accuracy    <       0.00006379 Ry

     iteration # 12     ecut=    30.00 Ry     beta= 0.70
     Davidson diagonalization with overlap

---- Real-time Memory Report at c_bands before calling an iterative solver
           231 MiB given to the printing process from OS
             0 MiB allocation reported by mallinfo(arena+hblkhd)
         82991 MiB available memory on the node where the printing process lives
------------------
     ethr =  1.59E-07,  avg # of iterations =  2.5

     negative rho (up, down):  6.353E-02 0.000E+00

     total cpu time spent up to now is       14.9 secs

     total energy              =    -666.71324751 Ry
     estimated scf accuracy    <       0.00007376 Ry

     iteration # 13     ecut=    30.00 Ry     beta= 0.70
     Davidson diagonalization with overlap

---- Real-time Memory Report at c_bands before calling an iterative solver
           231 MiB given to the printing process from OS
             0 MiB allocation reported by mallinfo(arena+hblkhd)
         82966 MiB available memory on the node where the printing process lives
------------------
     ethr =  1.59E-07,  avg # of iterations =  1.0

     negative rho (up, down):  6.354E-02 0.000E+00

     total cpu time spent up to now is       15.5 secs

     total energy              =    -666.71324802 Ry
     estimated scf accuracy    <       0.00002618 Ry

     iteration # 14     ecut=    30.00 Ry     beta= 0.70
     Davidson diagonalization with overlap

---- Real-time Memory Report at c_bands before calling an iterative solver
           231 MiB given to the printing process from OS
             0 MiB allocation reported by mallinfo(arena+hblkhd)
         82969 MiB available memory on the node where the printing process lives
------------------
     ethr =  6.55E-08,  avg # of iterations =  1.4

     negative rho (up, down):  6.355E-02 0.000E+00

     total cpu time spent up to now is       16.2 secs

     total energy              =    -666.71324862 Ry
     estimated scf accuracy    <       0.00000149 Ry

     iteration # 15     ecut=    30.00 Ry     beta= 0.70
     Davidson diagonalization with overlap

---- Real-time Memory Report at c_bands before calling an iterative solver
           231 MiB given to the printing process from OS
             0 MiB allocation reported by mallinfo(arena+hblkhd)
         82967 MiB available memory on the node where the printing process lives
------------------
     ethr =  3.72E-09,  avg # of iterations =  4.5

     negative rho (up, down):  6.354E-02 0.000E+00

     total cpu time spent up to now is       17.1 secs

     total energy              =    -666.71325049 Ry
     estimated scf accuracy    <       0.00014704 Ry

     iteration # 16     ecut=    30.00 Ry     beta= 0.70
     Davidson diagonalization with overlap

---- Real-time Memory Report at c_bands before calling an iterative solver
           231 MiB given to the printing process from OS
             0 MiB allocation reported by mallinfo(arena+hblkhd)
         82963 MiB available memory on the node where the printing process lives
------------------
     ethr =  3.72E-09,  avg # of iterations =  2.0

     negative rho (up, down):  6.354E-02 0.000E+00

     total cpu time spent up to now is       18.5 secs

     total energy              =    -666.71325064 Ry
     estimated scf accuracy    <       0.00005757 Ry

     iteration # 17     ecut=    30.00 Ry     beta= 0.70
     Davidson diagonalization with overlap

---- Real-time Memory Report at c_bands before calling an iterative solver
           231 MiB given to the printing process from OS
             0 MiB allocation reported by mallinfo(arena+hblkhd)
         82965 MiB available memory on the node where the printing process lives
------------------
     ethr =  3.72E-09,  avg # of iterations =  2.0

     negative rho (up, down):  6.355E-02 0.000E+00

     total cpu time spent up to now is       19.3 secs

     total energy              =    -666.71325089 Ry
     estimated scf accuracy    <       0.00001363 Ry

     iteration # 18     ecut=    30.00 Ry     beta= 0.70
     Davidson diagonalization with overlap

---- Real-time Memory Report at c_bands before calling an iterative solver
           231 MiB given to the printing process from OS
             0 MiB allocation reported by mallinfo(arena+hblkhd)
         82964 MiB available memory on the node where the printing process lives
------------------
     ethr =  3.72E-09,  avg # of iterations =  1.2

     negative rho (up, down):  6.355E-02 0.000E+00

     total cpu time spent up to now is       20.0 secs

     total energy              =    -666.71325082 Ry
     estimated scf accuracy    <       0.00001512 Ry

     iteration # 19     ecut=    30.00 Ry     beta= 0.70
     Davidson diagonalization with overlap

---- Real-time Memory Report at c_bands before calling an iterative solver
           231 MiB given to the printing process from OS
             0 MiB allocation reported by mallinfo(arena+hblkhd)
         82962 MiB available memory on the node where the printing process lives
------------------
     ethr =  3.72E-09,  avg # of iterations =  2.0

     negative rho (up, down):  6.355E-02 0.000E+00

     total cpu time spent up to now is       20.6 secs

     End of self-consistent calculation

          k = 0.0000 0.0000 0.0000 (  2795 PWs)   bands (ev):

   -42.4883 -20.8533 -20.5194 -20.5138 -20.5092  -5.9650  -5.9615  -5.9592
    -5.6097  -4.7028  -4.6850   4.0712   4.1016   4.1135   5.9607   6.0079
     6.0577   6.5168   6.7027   6.7719   7.4815   7.6129   7.8634   9.1612
     9.2428   9.7894   9.8221   9.8821  10.9668  10.9824  11.0001  12.0590
    16.9593  17.0396  17.1971  18.0300  18.0897  18.2972  18.4327  18.4524
    18.4701  20.4451  20.6896  20.8042  20.8854  20.9269  21.0959  21.7018
    21.7473  21.8141  22.2270  22.3098  22.3781  23.6910  23.7665  23.8393
    23.8865  23.8957  23.9977  24.2575  25.0028  25.0993  25.3531  25.7331

     occupation numbers 
     1.0000   1.0000   1.0000   1.0000   1.0000   1.0000   1.0000   1.0000
     1.0000   1.0000   1.0000   1.0000   1.0000   1.0000   1.0000   1.0000
     1.0000   1.0000   1.0000   1.0000   0.0000   0.0000   0.0000   0.0000
     0.0000   0.0000   0.0000   0.0000   0.0000   0.0000   0.0000   0.0000
     0.0000   0.0000   0.0000   0.0000   0.0000   0.0000   0.0000   0.0000
     0.0000   0.0000   0.0000   0.0000   0.0000   0.0000   0.0000   0.0000
     0.0000   0.0000   0.0000   0.0000   0.0000   0.0000   0.0000   0.0000
     0.0000   0.0000   0.0000   0.0000   0.0000   0.0000   0.0000   0.0000

          k = 0.0000 0.0000 0.3319 (  2791 PWs)   bands (ev):

   -42.4883 -20.8526 -20.5209 -20.5172 -20.5096  -6.2115  -5.9546  -5.9538
    -5.1587  -4.6869  -4.6423   3.4148   4.1464   4.1886   5.0949   5.1248
     5.1706   5.4905   6.4201   6.5013   7.6466   9.1068   9.1659   9.4183
    10.2163  10.6706  10.7266  10.9562  11.3335  11.9009  11.9040  14.2805
    14.6889  15.9983  16.0234  16.6490  16.7941  16.8876  16.9338  17.0647
    18.5732  19.2265  19.3858  19.5520  19.7690  21.1995  21.2733  21.3237
    21.7215  22.5819  22.6874  23.0952  23.4854  23.5760  23.7955  23.9953
    25.0462  25.1325  25.2300  25.2881  25.4742  26.8060  26.8652  27.2707

     occupation numbers 
     1.0000   1.0000   1.0000   1.0000   1.0000   1.0000   1.0000   1.0000
     1.0000   1.0000   1.0000   1.0000   1.0000   1.0000   1.0000   1.0000
     1.0000   1.0000   1.0000   1.0000   0.0000   0.0000   0.0000   0.0000
     0.0000   0.0000   0.0000   0.0000   0.0000   0.0000   0.0000   0.0000
     0.0000   0.0000   0.0000   0.0000   0.0000   0.0000   0.0000   0.0000
     0.0000   0.0000   0.0000   0.0000   0.0000   0.0000   0.0000   0.0000
     0.0000   0.0000   0.0000   0.0000   0.0000   0.0000   0.0000   0.0000
     0.0000   0.0000   0.0000   0.0000   0.0000   0.0000   0.0000   0.0000

          k = 0.0000 0.3328-0.0006 (  2791 PWs)   bands (ev):

   -42.4883 -20.8526 -20.5252 -20.5138 -20.5089  -6.2160  -5.9547  -5.9525
    -5.1562  -4.6821  -4.6421   3.4142   4.1765   4.2138   5.0712   5.1116
     5.1728   5.5210   6.2438   6.4516   7.8576   9.0567   9.1276   9.4598
    10.2301  10.6640  10.6889  10.9737  11.3254  11.8964  11.9025  14.2957
    14.7460  16.0170  16.0369  16.7022  16.7656  16.8687  16.9334  17.0975
    18.5960  19.1079  19.4176  19.6522  19.7468  21.1816  21.2935  21.3037
    21.7325  22.3071  22.6868  23.1283  23.4583  23.6996  23.7986  23.9218
    24.9669  25.1145  25.2378  25.3238  25.5271  26.7690  26.8700  27.3151

     occupation numbers 
     1.0000   1.0000   1.0000   1.0000   1.0000   1.0000   1.0000   1.0000
     1.0000   1.0000   1.0000   1.0000   1.0000   1.0000   1.0000   1.0000
     1.0000   1.0000   1.0000   1.0000   0.0000   0.0000   0.0000   0.0000
     0.0000   0.0000   0.0000   0.0000   0.0000   0.0000   0.0000   0.0000
     0.0000   0.0000   0.0000   0.0000   0.0000   0.0000   0.0000   0.0000
     0.0000   0.0000   0.0000   0.0000   0.0000   0.0000   0.0000   0.0000
     0.0000   0.0000   0.0000   0.0000   0.0000   0.0000   0.0000   0.0000
     0.0000   0.0000   0.0000   0.0000   0.0000   0.0000   0.0000   0.0000

          k = 0.0000 0.3328 0.3313 (  2770 PWs)   bands (ev):

   -42.4884 -20.8513 -20.5255 -20.5190 -20.5093  -6.1373  -6.0617  -5.9477
    -5.0101  -4.6400  -4.5600   3.0795   3.6904   3.8536   4.2696   4.8408
     5.3528   5.6172   5.6343   6.7243   9.0370   9.0882   9.1580   9.8996
    10.9025  11.3564  11.6612  11.7062  11.8881  12.6151  12.9239  14.1178
    14.3580  14.7088  14.8349  15.3377  15.4274  16.1212  17.8000  18.1952
    18.6749  18.7108  18.9004  19.1118  19.3339  20.2202  20.6338  21.0689
    21.7789  21.9092  22.2132  22.9781  23.2902  23.7516  24.0235  24.6698
    25.1591  25.4835  25.7992  26.0052  26.0849  26.2899  26.5122  26.6460

     occupation numbers 
     1.0000   1.0000   1.0000   1.0000   1.0000   1.0000   1.0000   1.0000
     1.0000   1.0000   1.0000   1.0000   1.0000   1.0000   1.0000   1.0000
     1.0000   1.0000   1.0000   1.0000   0.0000   0.0000   0.0000   0.0000
     0.0000   0.0000   0.0000   0.0000   0.0000   0.0000   0.0000   0.0000
     0.0000   0.0000   0.0000   0.0000   0.0000   0.0000   0.0000   0.0000
     0.0000   0.0000   0.0000   0.0000   0.0000   0.0000   0.0000   0.0000
     0.0000   0.0000   0.0000   0.0000   0.0000   0.0000   0.0000   0.0000
     0.0000   0.0000   0.0000   0.0000   0.0000   0.0000   0.0000   0.0000

          k = 0.0000 0.3328-0.3326 (  2774 PWs)   bands (ev):

   -42.4884 -20.8513 -20.5254 -20.5191 -20.5093  -6.1371  -6.0626  -5.9477
    -5.0083  -4.6401  -4.5610   3.0852   3.6172   3.9282   4.2670   4.8391
     5.4050   5.5662   5.6377   6.7168   8.9791   9.0681   9.2377   9.9090
    10.8595  11.3570  11.6517  11.7157  11.8925  12.6084  12.9497  14.1293
    14.3252  14.7362  14.8427  15.3467  15.4357  16.1316  17.7980  18.2086
    18.6750  18.7144  18.8970  19.1960  19.3396  20.1540  20.6071  21.1010
    21.5932  21.7763  22.2259  23.0913  23.3465  23.7711  24.0113  24.6571
    25.1600  25.4945  25.7562  26.0350  26.1538  26.3448  26.5703  26.6149

     occupation numbers 
     1.0000   1.0000   1.0000   1.0000   1.0000   1.0000   1.0000   1.0000
     1.0000   1.0000   1.0000   1.0000   1.0000   1.0000   1.0000   1.0000
     1.0000   1.0000   1.0000   1.0000   0.0000   0.0000   0.0000   0.0000
     0.0000   0.0000   0.0000   0.0000   0.0000   0.0000   0.0000   0.0000
     0.0000   0.0000   0.0000   0.0000   0.0000   0.0000   0.0000   0.0000
     0.0000   0.0000   0.0000   0.0000   0.0000   0.0000   0.0000   0.0000
     0.0000   0.0000   0.0000   0.0000   0.0000   0.0000   0.0000   0.0000
     0.0000   0.0000   0.0000   0.0000   0.0000   0.0000   0.0000   0.0000

          k = 0.3333-0.0002-0.0005 (  2790 PWs)   bands (ev):

   -42.4883 -20.8526 -20.5193 -20.5171 -20.5116  -6.2142  -5.9554  -5.9527
    -5.1550  -4.6888  -4.6452   3.4169   4.2137   4.2170   5.0476   5.1255
     5.2544   5.4903   6.3349   6.4680   7.7097   8.9377   9.1104   9.3982
    10.2568  10.6357  10.7447  10.9890  11.3484  11.8971  11.9009  14.3110
    14.7382  16.0181  16.0529  16.7048  16.7868  16.9024  16.9462  17.0254
    18.6216  19.3310  19.3894  19.4367  19.8369  21.1349  21.2977  21.3779
    21.7570  22.4900  22.7038  23.0088  23.5253  23.5801  23.7863  23.8912
    24.9847  25.1236  25.2534  25.3224  25.5086  26.8370  26.8605  27.3342

     occupation numbers 
     1.0000   1.0000   1.0000   1.0000   1.0000   1.0000   1.0000   1.0000
     1.0000   1.0000   1.0000   1.0000   1.0000   1.0000   1.0000   1.0000
     1.0000   1.0000   1.0000   1.0000   0.0000   0.0000   0.0000   0.0000
     0.0000   0.0000   0.0000   0.0000   0.0000   0.0000   0.0000   0.0000
     0.0000   0.0000   0.0000   0.0000   0.0000   0.0000   0.0000   0.0000
     0.0000   0.0000   0.0000   0.0000   0.0000   0.0000   0.0000   0.0000
     0.0000   0.0000   0.0000   0.0000   0.0000   0.0000   0.0000   0.0000
     0.0000   0.0000   0.0000   0.0000   0.0000   0.0000   0.0000   0.0000

          k = 0.3333-0.0002 0.3314 (  2768 PWs)   bands (ev):

   -42.4884 -20.8513 -20.5212 -20.5176 -20.5151  -6.1351  -6.0620  -5.9470
    -5.0104  -4.6566  -4.5543   3.0615   3.6826   3.9179   4.3370   4.8456
     5.3816   5.5866   5.6181   6.7285   8.9498   9.0620   9.1414   9.8253
    10.8960  11.3574  11.6474  11.7333  11.8926  12.5724  12.9585  14.0806
    14.3878  14.7229  14.8211  15.3636  15.4440  16.1804  17.8532  18.2431
    18.6664  18.7074  18.9676  19.1053  19.4147  20.1746  20.6517  21.0175
    21.7604  21.8533  22.1681  22.9684  23.3284  23.6802  24.0771  24.6583
    25.1426  25.4500  25.8286  26.0530  26.0671  26.3222  26.5071  26.6273

     occupation numbers 
     1.0000   1.0000   1.0000   1.0000   1.0000   1.0000   1.0000   1.0000
     1.0000   1.0000   1.0000   1.0000   1.0000   1.0000   1.0000   1.0000
     1.0000   1.0000   1.0000   1.0000   0.0000   0.0000   0.0000   0.0000
     0.0000   0.0000   0.0000   0.0000   0.0000   0.0000   0.0000   0.0000
     0.0000   0.0000   0.0000   0.0000   0.0000   0.0000   0.0000   0.0000
     0.0000   0.0000   0.0000   0.0000   0.0000   0.0000   0.0000   0.0000
     0.0000   0.0000   0.0000   0.0000   0.0000   0.0000   0.0000   0.0000
     0.0000   0.0000   0.0000   0.0000   0.0000   0.0000   0.0000   0.0000

          k = 0.3333-0.0002-0.3324 (  2771 PWs)   bands (ev):

   -42.4884 -20.8513 -20.5211 -20.5176 -20.5153  -6.1340  -6.0638  -5.9470
    -5.0100  -4.6494  -4.5611   3.0775   3.5813   4.0131   4.3277   4.8645
     5.3910   5.5760   5.6036   6.7188   8.9593   9.0556   9.1593   9.8269
    10.8719  11.3750  11.6280  11.7233  11.9039  12.5517  12.9354  14.1456
    14.3890  14.7011  14.8461  15.3425  15.4500  16.1989  17.8512  18.1986
    18.6497  18.7070  18.9902  19.2303  19.4247  20.1345  20.6186  21.0536
    21.6425  21.7678  22.1244  23.0398  23.3692  23.7101  24.1278  24.6477
    25.0703  25.4725  25.7883  26.0407  26.1044  26.3726  26.5789  26.6230

     occupation numbers 
     1.0000   1.0000   1.0000   1.0000   1.0000   1.0000   1.0000   1.0000
     1.0000   1.0000   1.0000   1.0000   1.0000   1.0000   1.0000   1.0000
     1.0000   1.0000   1.0000   1.0000   0.0000   0.0000   0.0000   0.0000
     0.0000   0.0000   0.0000   0.0000   0.0000   0.0000   0.0000   0.0000
     0.0000   0.0000   0.0000   0.0000   0.0000   0.0000   0.0000   0.0000
     0.0000   0.0000   0.0000   0.0000   0.0000   0.0000   0.0000   0.0000
     0.0000   0.0000   0.0000   0.0000   0.0000   0.0000   0.0000   0.0000
     0.0000   0.0000   0.0000   0.0000   0.0000   0.0000   0.0000   0.0000

          k = 0.3333 0.3325-0.0011 (  2765 PWs)   bands (ev):

   -42.4884 -20.8513 -20.5252 -20.5174 -20.5115  -6.1356  -6.0627  -5.9458
    -5.0163  -4.6481  -4.5537   3.0755   3.7107   3.8481   4.3605   4.8694
     5.3331   5.5876   5.6284   6.7536   8.8952   9.0970   9.1115   9.8026
    10.8918  11.3562  11.6168  11.7756  11.8987  12.6678  12.9501  14.1026
    14.3861  14.7020  14.8546  15.2909  15.4173  16.2028  17.7428  18.3083
    18.6749  18.7401  18.9863  19.1600  19.4651  20.1733  20.6383  21.0110
    21.7660  21.9005  22.1805  22.8898  23.3291  23.6685  24.0757  24.6191
    25.1070  25.5166  25.8015  26.0281  26.0805  26.2591  26.5245  26.7109

     occupation numbers 
     1.0000   1.0000   1.0000   1.0000   1.0000   1.0000   1.0000   1.0000
     1.0000   1.0000   1.0000   1.0000   1.0000   1.0000   1.0000   1.0000
     1.0000   1.0000   1.0000   1.0000   0.0000   0.0000   0.0000   0.0000
     0.0000   0.0000   0.0000   0.0000   0.0000   0.0000   0.0000   0.0000
     0.0000   0.0000   0.0000   0.0000   0.0000   0.0000   0.0000   0.0000
     0.0000   0.0000   0.0000   0.0000   0.0000   0.0000   0.0000   0.0000
     0.0000   0.0000   0.0000   0.0000   0.0000   0.0000   0.0000   0.0000
     0.0000   0.0000   0.0000   0.0000   0.0000   0.0000   0.0000   0.0000

          k = 0.3333 0.3325 0.3308 (  2787 PWs)   bands (ev):

   -42.4884 -20.8501 -20.5253 -20.5196 -20.5151  -6.0739  -6.0103  -6.0074
    -4.8171  -4.6299  -4.6223   2.7632   3.7494   3.8155   3.8921   4.0253
     4.0993   6.5650   6.5814   6.9255   9.1867   9.3084   9.3497  10.6389
    11.1012  11.1143  11.7317  11.9013  11.9907  12.5390  12.5970  14.1289
    14.8265  15.1258  15.1668  15.8173  15.9014  16.6487  16.6956  16.7600
    17.5951  18.4705  19.1228  19.1532  20.4512  20.4896  20.8032  20.8602
    20.9759  21.4143  21.4583  22.0513  22.7129  23.4443  23.7735  24.4824
    24.5104  25.2492  25.3722  25.4913  26.6673  26.7461  26.8830  27.3804

     occupation numbers 
     1.0000   1.0000   1.0000   1.0000   1.0000   1.0000   1.0000   1.0000
     1.0000   1.0000   1.0000   1.0000   1.0000   1.0000   1.0000   1.0000
     1.0000   1.0000   1.0000   1.0000   0.0000   0.0000   0.0000   0.0000
     0.0000   0.0000   0.0000   0.0000   0.0000   0.0000   0.0000   0.0000
     0.0000   0.0000   0.0000   0.0000   0.0000   0.0000   0.0000   0.0000
     0.0000   0.0000   0.0000   0.0000   0.0000   0.0000   0.0000   0.0000
     0.0000   0.0000   0.0000   0.0000   0.0000   0.0000   0.0000   0.0000
     0.0000   0.0000   0.0000   0.0000   0.0000   0.0000   0.0000   0.0000

          k = 0.3333 0.3325-0.3331 (  2788 PWs)   bands (ev):

   -42.4884 -20.8501 -20.5253 -20.5196 -20.5152  -6.0733  -6.0162  -6.0031
    -4.8100  -4.6414  -4.6166   2.7760   3.6664   3.7760   3.8756   4.0610
     4.2093   6.5608   6.5905   6.8938   9.2121   9.2711   9.3342  10.6482
    11.0589  11.1903  11.7852  11.8898  11.9255  12.5675  12.6350  14.0741
    14.7513  15.1065  15.2046  15.8354  15.9460  16.5392  16.7210  16.8369
    17.6756  18.4594  19.0895  19.2076  20.3252  20.4378  20.8348  20.9263
    20.9679  21.3703  21.5083  22.0593  22.6457  23.4428  23.8502  24.4432
    24.6051  25.0795  25.3227  25.5436  26.4738  26.7672  27.0563  27.3589

     occupation numbers 
     1.0000   1.0000   1.0000   1.0000   1.0000   1.0000   1.0000   1.0000
     1.0000   1.0000   1.0000   1.0000   1.0000   1.0000   1.0000   1.0000
     1.0000   1.0000   1.0000   1.0000   0.0000   0.0000   0.0000   0.0000
     0.0000   0.0000   0.0000   0.0000   0.0000   0.0000   0.0000   0.0000
     0.0000   0.0000   0.0000   0.0000   0.0000   0.0000   0.0000   0.0000
     0.0000   0.0000   0.0000   0.0000   0.0000   0.0000   0.0000   0.0000
     0.0000   0.0000   0.0000   0.0000   0.0000   0.0000   0.0000   0.0000
     0.0000   0.0000   0.0000   0.0000   0.0000   0.0000   0.0000   0.0000

          k = 0.3333-0.3330 0.0001 (  2765 PWs)   bands (ev):

   -42.4884 -20.8513 -20.5252 -20.5174 -20.5116  -6.1352  -6.0633  -5.9458
    -5.0166  -4.6437  -4.5575   3.0805   3.6480   3.9093   4.3569   4.8779
     5.3408   5.5723   5.6281   6.7512   8.9014   9.0532   9.1571   9.8047
    10.8817  11.3603  11.6075  11.7714  11.9048  12.6557  12.9444  14.1312
    14.4044  14.6774  14.8577  15.2786  15.4367  16.2027  17.7443  18.2864
    18.6582  18.7442  19.0310  19.1832  19.4610  20.1543  20.6331  21.0301
    21.7580  21.8079  22.1630  22.9306  23.3485  23.6993  24.0804  24.6113
    25.0563  25.5163  25.8076  26.0445  26.0790  26.2827  26.5783  26.7014

     occupation numbers 
     1.0000   1.0000   1.0000   1.0000   1.0000   1.0000   1.0000   1.0000
     1.0000   1.0000   1.0000   1.0000   1.0000   1.0000   1.0000   1.0000
     1.0000   1.0000   1.0000   1.0000   0.0000   0.0000   0.0000   0.0000
     0.0000   0.0000   0.0000   0.0000   0.0000   0.0000   0.0000   0.0000
     0.0000   0.0000   0.0000   0.0000   0.0000   0.0000   0.0000   0.0000
     0.0000   0.0000   0.0000   0.0000   0.0000   0.0000   0.0000   0.0000
     0.0000   0.0000   0.0000   0.0000   0.0000   0.0000   0.0000   0.0000
     0.0000   0.0000   0.0000   0.0000   0.0000   0.0000   0.0000   0.0000

          k = 0.3333-0.3330 0.3321 (  2787 PWs)   bands (ev):

   -42.4884 -20.8501 -20.5253 -20.5196 -20.5151  -6.0740  -6.0140  -6.0044
    -4.8124  -4.6372  -4.6186   2.7695   3.6982   3.7944   3.8669   4.0609
     4.1684   6.5597   6.5917   6.9015   9.2256   9.2367   9.3623  10.6355
    11.0705  11.1768  11.7989  11.8766  11.9376  12.5411  12.6381  14.0895
    14.7568  15.1237  15.2178  15.8395  15.9266  16.5547  16.6974  16.8219
    17.6489  18.4618  19.1048  19.1938  20.3747  20.4726  20.8226  20.9132
    20.9491  21.3818  21.4826  22.0462  22.6791  23.4321  23.7988  24.4692
    24.5937  25.1239  25.3575  25.5004  26.5344  26.7781  26.9943  27.3695

     occupation numbers 
     1.0000   1.0000   1.0000   1.0000   1.0000   1.0000   1.0000   1.0000
     1.0000   1.0000   1.0000   1.0000   1.0000   1.0000   1.0000   1.0000
     1.0000   1.0000   1.0000   1.0000   0.0000   0.0000   0.0000   0.0000
     0.0000   0.0000   0.0000   0.0000   0.0000   0.0000   0.0000   0.0000
     0.0000   0.0000   0.0000   0.0000   0.0000   0.0000   0.0000   0.0000
     0.0000   0.0000   0.0000   0.0000   0.0000   0.0000   0.0000   0.0000
     0.0000   0.0000   0.0000   0.0000   0.0000   0.0000   0.0000   0.0000
     0.0000   0.0000   0.0000   0.0000   0.0000   0.0000   0.0000   0.0000

          k = 0.3333-0.3330-0.3318 (  2789 PWs)   bands (ev):

   -42.4884 -20.8501 -20.5253 -20.5195 -20.5152  -6.0738  -6.0118  -6.0068
    -4.8120  -4.6326  -4.6237   2.7742   3.6577   3.7988   3.8866   4.0607
     4.1810   6.5641   6.5800   6.9100   9.1806   9.2861   9.3575  10.6666
    11.0909  11.1360  11.7500  11.8967  11.9534  12.5551  12.6331  14.0759
    14.8077  15.0986  15.1338  15.8282  15.9437  16.6220  16.7209  16.7867
    17.6644  18.4871  19.1037  19.1484  20.3156  20.4366  20.8107  20.9490
    20.9837  21.4148  21.4903  22.1015  22.6495  23.4511  23.8685  24.4394
    24.5183  25.1188  25.3200  25.5824  26.4515  26.7818  27.0407  27.3784

     occupation numbers 
     1.0000   1.0000   1.0000   1.0000   1.0000   1.0000   1.0000   1.0000
     1.0000   1.0000   1.0000   1.0000   1.0000   1.0000   1.0000   1.0000
     1.0000   1.0000   1.0000   1.0000   0.0000   0.0000   0.0000   0.0000
     0.0000   0.0000   0.0000   0.0000   0.0000   0.0000   0.0000   0.0000
     0.0000   0.0000   0.0000   0.0000   0.0000   0.0000   0.0000   0.0000
     0.0000   0.0000   0.0000   0.0000   0.0000   0.0000   0.0000   0.0000
     0.0000   0.0000   0.0000   0.0000   0.0000   0.0000   0.0000   0.0000
     0.0000   0.0000   0.0000   0.0000   0.0000   0.0000   0.0000   0.0000

     highest occupied, lowest unoccupied level (ev):     6.9255    7.4815

!    total energy              =    -666.71325087 Ry
     estimated scf accuracy    <       0.00000010 Ry

     The total energy is the sum of the following terms:
     one-electron contribution =     -46.52188090 Ry
     hartree contribution      =      38.68535888 Ry
     xc contribution           =    -127.22923384 Ry
     ewald contribution        =    -156.69987728 Ry
     one-center paw contrib.   =    -374.94761774 Ry
      -> PAW hartree energy AE =      28.28952716 Ry
      -> PAW hartree energy PS =     -28.17788007 Ry
      -> PAW xc energy AE      =    -394.15538960 Ry
      -> PAW xc energy PS      =      19.09612477 Ry
      -> total E_H with PAW    =      38.79700597 Ry
      -> total E_XC with PAW   =    -502.28849866 Ry

     convergence has been achieved in  19 iterations

     Writing all to output data dir calculations_bands/myprefix.save/
 
     init_run     :     10.62s CPU      3.64s WALL (       1 calls)
     electrons    :     62.03s CPU     16.71s WALL (       1 calls)

     Called by init_run:
     wfcinit      :      2.68s CPU      0.71s WALL (       1 calls)
     wfcinit:atom :      0.00s CPU      0.00s WALL (       7 calls)
     wfcinit:wfcr :      2.63s CPU      0.69s WALL (       7 calls)
     potinit      :      3.02s CPU      1.09s WALL (       1 calls)
     hinit0       :      3.21s CPU      1.23s WALL (       1 calls)

     Called by electrons:
     c_bands      :     42.03s CPU     11.27s WALL (      20 calls)
     sum_band     :     10.44s CPU      2.85s WALL (      20 calls)
     v_of_rho     :      1.05s CPU      0.30s WALL (      20 calls)
     v_h          :      0.11s CPU      0.03s WALL (      20 calls)
     v_xc         :      0.94s CPU      0.27s WALL (      20 calls)
     newd         :      3.90s CPU      1.09s WALL (      20 calls)
     PAW_pot      :      5.68s CPU      1.56s WALL (      20 calls)
     mix_rho      :      0.26s CPU      0.07s WALL (      20 calls)

     Called by c_bands:
     init_us_2    :      0.26s CPU      0.07s WALL (     287 calls)
     init_us_2:cp :      0.25s CPU      0.07s WALL (     287 calls)
     cegterg      :     39.05s CPU     10.46s WALL (     140 calls)

     Called by sum_band:
     sum_band:wei :      0.01s CPU      0.00s WALL (      20 calls)
     sum_band:loo :      6.51s CPU      1.71s WALL (      20 calls)
     sum_band:buf :      0.08s CPU      0.02s WALL (     140 calls)
     sum_band:ini :      0.12s CPU      0.03s WALL (     140 calls)
     sum_band:cal :      0.31s CPU      0.09s WALL (     140 calls)
     sum_band:bec :      0.13s CPU      0.05s WALL (     140 calls)
     addusdens    :      3.24s CPU      0.95s WALL (      20 calls)
     addusd:skk   :      0.01s CPU      0.00s WALL (      60 calls)
     addusd:dgemm :      0.40s CPU      0.22s WALL (      60 calls)
     addusd:qvan2 :      2.46s CPU      0.64s WALL (      60 calls)

     Called by *egterg:
     cdiaghg      :      6.94s CPU      1.84s WALL (     447 calls)
     cegterg:over :      1.61s CPU      0.42s WALL (     314 calls)
     cegterg:upda :      0.66s CPU      0.18s WALL (     314 calls)
     cegterg:last :      1.19s CPU      0.32s WALL (     242 calls)
     cdiaghg:chol :      0.47s CPU      0.13s WALL (     447 calls)
     cdiaghg:inve :      0.09s CPU      0.02s WALL (     447 calls)
     cdiaghg:para :      1.29s CPU      0.35s WALL (     894 calls)
     h_psi        :     29.21s CPU      7.86s WALL (     461 calls)
     s_psi        :      0.36s CPU      0.09s WALL (     461 calls)
     g_psi        :      0.04s CPU      0.01s WALL (     314 calls)

     Called by h_psi:
     h_psi:calbec :      0.90s CPU      0.24s WALL (     461 calls)
     vloc_psi     :     27.73s CPU      7.47s WALL (     461 calls)
     add_vuspsi   :      0.48s CPU      0.13s WALL (     461 calls)

     General routines
     calbec       :      1.20s CPU      0.32s WALL (     601 calls)
     fft          :      2.04s CPU      0.62s WALL (     259 calls)
     ffts         :      0.74s CPU      0.26s WALL (      40 calls)
     fftw         :     28.01s CPU      7.52s WALL (   48768 calls)
     interpolate  :      0.80s CPU      0.27s WALL (      20 calls)
 
     Parallel routines

     PAW routines
     PAW_pot      :      5.68s CPU      1.56s WALL (      20 calls)
 
     PWSCF        :   1m13.92s CPU     21.16s WALL

 
   This run was terminated on:   6:28:26   7Jun2023            

=------------------------------------------------------------------------------=
   JOB DONE.
=------------------------------------------------------------------------------=
