
     Program PWSCF v.7.0 starts on  4Jun2023 at 16:38:36 

     This program is part of the open-source Quantum ESPRESSO suite
     for quantum simulation of materials; please cite
         "P. Giannozzi et al., J. Phys.:Condens. Matter 21 395502 (2009);
         "P. Giannozzi et al., J. Phys.:Condens. Matter 29 465901 (2017);
         "P. Giannozzi et al., J. Chem. Phys. 152 154105 (2020);
          URL http://www.quantum-espresso.org", 
     in publications or presentations arising from this work. More details at
     http://www.quantum-espresso.org/quote

     Parallel version (MPI & OpenMP), running on      32 processor cores
     Number of MPI processes:                 8
     Threads/MPI process:                     4

     MPI processes distributed on     1 nodes
     K-points division:     npool     =       2
     R & G space division:  proc/nbgrp/npool/nimage =       4
     52334 MiB available memory on the printing compute node when the environment starts
 
     Reading input from espresso_2576.pwi
Warning: card &CELL ignored
Warning: card / ignored

     Current dimensions of program PWSCF are:
     Max number of different atomic species (ntypx) = 10
     Max number of k-points (npk) =  40000
     Max angular momentum in pseudopotentials (lmaxx) =  4
     file Al.pbe-n-kjpaw_psl.1.0.0.UPF: wavefunction(s)  3S 3P renormalized
     file O.pbe-n-kjpaw_psl.0.1.UPF: wavefunction(s)  2P renormalized
     Message from routine setup:
     using ibrav=0 with symmetry is DISCOURAGED, use correct ibrav instead

     Subspace diagonalization in iterative solution of the eigenvalue problem:
     one sub-group per band group will be used
     scalapack distributed-memory algorithm (size of sub-group:  2*  2 procs)

 
     Parallelization info
     --------------------
     sticks:   dense  smooth     PW     G-vecs:    dense   smooth      PW
     Min         447     221     61                19921     7053    1052
     Max         448     222     64                19923     7058    1053
     Sum        1789     885    249                79687    28219    4209
 
     Using Slab Decomposition
 


     bravais-lattice index     =            0
     lattice parameter (alat)  =       9.6853  a.u.
     unit-cell volume          =    1270.4511 (a.u.)^3
     number of atoms/cell      =           12
     number of atomic types    =            3
     number of electrons       =        64.00
     number of Kohn-Sham states=           64
     kinetic-energy cutoff     =      30.0000  Ry
     charge density cutoff     =     240.0000  Ry
     scf convergence threshold =      1.0E-06
     mixing beta               =       0.7000
     number of iterations used =            8  plain     mixing
     Exchange-correlation= SLA  PW   PBX  PBC
                           (   1   4   3   4   0   0   0)

     celldm(1)=   9.685254  celldm(2)=   0.000000  celldm(3)=   0.000000
     celldm(4)=   0.000000  celldm(5)=   0.000000  celldm(6)=   0.000000

     crystal axes: (cart. coord. in units of alat)
               a(1) = (   1.000000   0.000000   0.000000 )  
               a(2) = (  -0.001632   0.999999   0.000000 )  
               a(3) = (   0.000000   0.000000   1.398381 )  

     reciprocal axes: (cart. coord. in units 2 pi/alat)
               b(1) = (  1.000000  0.001632  0.000000 )  
               b(2) = (  0.000000  1.000001  0.000000 )  
               b(3) = (  0.000000  0.000000  0.715113 )  


     PseudoPot. # 1 for Al read from file:
     /home/pragov/projects/rrg-bengioy-ad/pragov/crystal_structure_design/SSSP/Al.pbe-n-kjpaw_psl.1.0.0.UPF
     MD5 check sum: cfc449ca30b5f3223ec38ddd88ac046d
     Pseudo is Projector augmented-wave + core cor, Zval =  3.0
     Generated using "atomic" code by A. Dal Corso  v.5.1
     Shape of augmentation charge: PSQ
     Using radial grid of 1135 points,  6 beta functions with: 
                l(1) =   0
                l(2) =   0
                l(3) =   1
                l(4) =   1
                l(5) =   2
                l(6) =   2
     Q(r) pseudized with 0 coefficients 


     PseudoPot. # 2 for P  read from file:
     /home/pragov/projects/rrg-bengioy-ad/pragov/crystal_structure_design/SSSP/P.pbe-n-rrkjus_psl.1.0.0.UPF
     MD5 check sum: 8b930f418f0a4573dca56cd030ffe088
     Pseudo is Ultrasoft + core correction, Zval =  5.0
     Generated using "atomic" code by A. Dal Corso  v.5.1
     Using radial grid of 1147 points,  6 beta functions with: 
                l(1) =   0
                l(2) =   0
                l(3) =   1
                l(4) =   1
                l(5) =   2
                l(6) =   2
     Q(r) pseudized with 0 coefficients 


     PseudoPot. # 3 for O  read from file:
     /home/pragov/projects/rrg-bengioy-ad/pragov/crystal_structure_design/SSSP/O.pbe-n-kjpaw_psl.0.1.UPF
     MD5 check sum: 0234752ac141de4415c5fc33072bef88
     Pseudo is Projector augmented-wave + core cor, Zval =  6.0
     Generated using "atomic" code by A. Dal Corso  v.5.0.99 svn rev. 10869
     Shape of augmentation charge: BESSEL
     Using radial grid of 1095 points,  4 beta functions with: 
                l(1) =   0
                l(2) =   0
                l(3) =   1
                l(4) =   1
     Q(r) pseudized with 0 coefficients 


     atomic species   valence    mass     pseudopotential
        Al             3.00    26.98154     Al( 1.00)
        P              5.00    30.97376     P ( 1.00)
        O              6.00    15.99900     O ( 1.00)

      2 Sym. Ops. (no inversion) found ( 1 have fractional translation)


                                    s                        frac. trans.

      isym =  1     identity                                     

 cryst.   s( 1) = (     1          0          0      )
                  (     0          1          0      )
                  (     0          0          1      )

 cart.    s( 1) = (  1.0000000  0.0000000  0.0000000 )
                  (  0.0000000  1.0000000  0.0000000 )
                  (  0.0000000  0.0000000  1.0000000 )


      isym =  2     180 deg rotation - cart. axis [0,0,1]        

 cryst.   s( 2) = (    -1          0          0      )    f =( -0.0000000 )
                  (     0         -1          0      )       (  0.0000000 )
                  (     0          0          1      )       (  0.5000000 )

 cart.    s( 2) = ( -1.0000000 -0.0000000  0.0000000 )    f =( -0.0000000 )
                  (  0.0000000 -1.0000000  0.0000000 )       (  0.0000000 )
                  (  0.0000000  0.0000000  1.0000000 )       (  0.6991905 )


   Cartesian axes

     site n.     atom                  positions (alat units)
         1           Al  tau(   1) = (   0.2047043   0.2050387   0.6991905  )
         2           Al  tau(   2) = (   0.7936635   0.7949599   0.0000000  )
         3           P   tau(   3) = (   0.2949752   0.7038751   0.3495952  )
         4           P   tau(   4) = (   0.7033927   0.2961236   1.0487857  )
         5           O   tau(   5) = (   0.2579271   0.4202454   0.4395727  )
         6           O   tau(   6) = (   0.7404408   0.5797532   1.1387632  )
         7           O   tau(   7) = (   0.4198239   0.2586127   0.9588083  )
         8           O   tau(   8) = (   0.5785440   0.7413860   0.2596178  )
         9           O   tau(   9) = (   0.2377429   0.8865978   0.5806330  )
        10           O   tau(  10) = (   0.7606249   0.1134008   1.2798234  )
        11           O   tau(  11) = (   0.8862086   0.2391897   0.8177480  )
        12           O   tau(  12) = (   0.1121593   0.7608090   0.1185575  )

   Crystallographic axes

     site n.     atom                  positions (cryst. coord.)
         1           Al  tau(   1) = (  0.2050390  0.2050390  0.5000000  )
         2           Al  tau(   2) = (  0.7949610  0.7949610  0.0000000  )
         3           P   tau(   3) = (  0.2961240  0.7038760  0.2500000  )
         4           P   tau(   4) = (  0.7038760  0.2961240  0.7500000  )
         5           O   tau(   5) = (  0.2586130  0.4202460  0.3143440  )
         6           O   tau(   6) = (  0.7413870  0.5797540  0.8143440  )
         7           O   tau(   7) = (  0.4202460  0.2586130  0.6856560  )
         8           O   tau(   8) = (  0.5797540  0.7413870  0.1856560  )
         9           O   tau(   9) = (  0.2391900  0.8865990  0.4152180  )
        10           O   tau(  10) = (  0.7608100  0.1134010  0.9152180  )
        11           O   tau(  11) = (  0.8865990  0.2391900  0.5847820  )
        12           O   tau(  12) = (  0.1134010  0.7608100  0.0847820  )

     number of k points=    10
                       cart. coord. in units 2pi/alat
        k(    1) = (   0.0000000   0.0000000   0.0000000), wk =   0.0740741
        k(    2) = (   0.0000000   0.0000000   0.2383709), wk =   0.1481481
        k(    3) = (   0.0000000   0.3333338   0.0000000), wk =   0.1481481
        k(    4) = (   0.0000000   0.3333338   0.2383709), wk =   0.2962963
        k(    5) = (   0.3333333   0.0005440   0.0000000), wk =   0.1481481
        k(    6) = (   0.3333333   0.0005440   0.2383709), wk =   0.2962963
        k(    7) = (   0.3333333   0.3338778   0.0000000), wk =   0.1481481
        k(    8) = (   0.3333333   0.3338778   0.2383709), wk =   0.2962963
        k(    9) = (   0.3333333  -0.3327897   0.0000000), wk =   0.1481481
        k(   10) = (   0.3333333  -0.3327897   0.2383709), wk =   0.2962963

                       cryst. coord.
        k(    1) = (   0.0000000   0.0000000   0.0000000), wk =   0.0740741
        k(    2) = (   0.0000000   0.0000000   0.3333333), wk =   0.1481481
        k(    3) = (   0.0000000   0.3333333   0.0000000), wk =   0.1481481
        k(    4) = (   0.0000000   0.3333333   0.3333333), wk =   0.2962963
        k(    5) = (   0.3333333  -0.0000000   0.0000000), wk =   0.1481481
        k(    6) = (   0.3333333  -0.0000000   0.3333333), wk =   0.2962963
        k(    7) = (   0.3333333   0.3333333   0.0000000), wk =   0.1481481
        k(    8) = (   0.3333333   0.3333333   0.3333333), wk =   0.2962963
        k(    9) = (   0.3333333  -0.3333333   0.0000000), wk =   0.1481481
        k(   10) = (   0.3333333  -0.3333333   0.3333333), wk =   0.2962963

     Dense  grid:    79687 G-vectors     FFT dimensions: (  48,  48,  72)

     Smooth grid:    28219 G-vectors     FFT dimensions: (  36,  36,  48)

     Dynamical RAM for                 wfc:       0.86 MB

     Dynamical RAM for     wfc (w. buffer):       5.16 MB

     Dynamical RAM for           str. fact:       0.91 MB

     Dynamical RAM for           local pot:       0.00 MB

     Dynamical RAM for          nlocal pot:       1.83 MB

     Dynamical RAM for                qrad:       3.73 MB

     Dynamical RAM for          rho,v,vnew:       1.86 MB

     Dynamical RAM for               rhoin:       0.62 MB

     Dynamical RAM for            rho*nmix:       4.86 MB

     Dynamical RAM for           G-vectors:       1.19 MB

     Dynamical RAM for          h,s,v(r/c):       0.19 MB

     Dynamical RAM for          <psi|beta>:       0.13 MB

     Dynamical RAM for                 psi:       1.72 MB

     Dynamical RAM for                hpsi:       1.72 MB

     Dynamical RAM for                spsi:       1.72 MB

     Dynamical RAM for      wfcinit/wfcrot:       1.81 MB

     Dynamical RAM for           addusdens:      29.64 MB

     Estimated static dynamical RAM per process >      18.11 MB

     Estimated max dynamical RAM per process >      52.61 MB

     Estimated total dynamical RAM >     401.43 MB

     Check: negative core charge=   -0.000010

     Initial potential from superposition of free atoms

     starting charge      63.9951, renormalised to      64.0000
     Starting wfcs are   48 randomized atomic wfcs +   16 random wfcs
     Checking if some PAW data can be deallocated... 
       PAW data deallocated on    7 nodes for type:  1
       PAW data deallocated on    2 nodes for type:  3

     total cpu time spent up to now is        3.0 secs

     Self-consistent Calculation

     iteration #  1     ecut=    30.00 Ry     beta= 0.70
     Davidson diagonalization with overlap

---- Real-time Memory Report at c_bands before calling an iterative solver
           175 MiB given to the printing process from OS
             0 MiB allocation reported by mallinfo(arena+hblkhd)
         51795 MiB available memory on the node where the printing process lives
------------------
     ethr =  1.00E-02,  avg # of iterations =  6.6

     total cpu time spent up to now is        4.1 secs

     total energy              =    -440.01189436 Ry
     estimated scf accuracy    <       2.59705136 Ry

     iteration #  2     ecut=    30.00 Ry     beta= 0.70
     Davidson diagonalization with overlap

---- Real-time Memory Report at c_bands before calling an iterative solver
           201 MiB given to the printing process from OS
             0 MiB allocation reported by mallinfo(arena+hblkhd)
         51707 MiB available memory on the node where the printing process lives
------------------
     ethr =  4.06E-03,  avg # of iterations =  2.0

     total cpu time spent up to now is        4.9 secs

     total energy              =    -440.70154618 Ry
     estimated scf accuracy    <       1.76936527 Ry

     iteration #  3     ecut=    30.00 Ry     beta= 0.70
     Davidson diagonalization with overlap

---- Real-time Memory Report at c_bands before calling an iterative solver
           203 MiB given to the printing process from OS
             0 MiB allocation reported by mallinfo(arena+hblkhd)
         51620 MiB available memory on the node where the printing process lives
------------------
     ethr =  2.76E-03,  avg # of iterations =  2.0

     total cpu time spent up to now is        5.8 secs

     total energy              =    -441.06750753 Ry
     estimated scf accuracy    <       0.01320167 Ry

     iteration #  4     ecut=    30.00 Ry     beta= 0.70
     Davidson diagonalization with overlap

---- Real-time Memory Report at c_bands before calling an iterative solver
           204 MiB given to the printing process from OS
             0 MiB allocation reported by mallinfo(arena+hblkhd)
         51604 MiB available memory on the node where the printing process lives
------------------
     ethr =  2.06E-05,  avg # of iterations =  9.3

     total cpu time spent up to now is        6.9 secs

     total energy              =    -441.07194768 Ry
     estimated scf accuracy    <       0.00168071 Ry

     iteration #  5     ecut=    30.00 Ry     beta= 0.70
     Davidson diagonalization with overlap

---- Real-time Memory Report at c_bands before calling an iterative solver
           210 MiB given to the printing process from OS
             0 MiB allocation reported by mallinfo(arena+hblkhd)
         51389 MiB available memory on the node where the printing process lives
------------------
     ethr =  2.63E-06,  avg # of iterations =  6.0

     total cpu time spent up to now is        7.7 secs

     total energy              =    -441.07216945 Ry
     estimated scf accuracy    <       0.00018069 Ry

     iteration #  6     ecut=    30.00 Ry     beta= 0.70
     Davidson diagonalization with overlap

---- Real-time Memory Report at c_bands before calling an iterative solver
           210 MiB given to the printing process from OS
             0 MiB allocation reported by mallinfo(arena+hblkhd)
         51580 MiB available memory on the node where the printing process lives
------------------
     ethr =  2.82E-07,  avg # of iterations =  1.2

     total cpu time spent up to now is        8.4 secs

     total energy              =    -441.07217154 Ry
     estimated scf accuracy    <       0.00003058 Ry

     iteration #  7     ecut=    30.00 Ry     beta= 0.70
     Davidson diagonalization with overlap

---- Real-time Memory Report at c_bands before calling an iterative solver
           210 MiB given to the printing process from OS
             0 MiB allocation reported by mallinfo(arena+hblkhd)
         51585 MiB available memory on the node where the printing process lives
------------------
     ethr =  4.78E-08,  avg # of iterations =  2.0

     total cpu time spent up to now is        9.1 secs

     total energy              =    -441.07217772 Ry
     estimated scf accuracy    <       0.00000815 Ry

     iteration #  8     ecut=    30.00 Ry     beta= 0.70
     Davidson diagonalization with overlap

---- Real-time Memory Report at c_bands before calling an iterative solver
           210 MiB given to the printing process from OS
             0 MiB allocation reported by mallinfo(arena+hblkhd)
         51583 MiB available memory on the node where the printing process lives
------------------
     ethr =  1.27E-08,  avg # of iterations =  1.4

     total cpu time spent up to now is        9.8 secs

     End of self-consistent calculation

          k = 0.0000 0.0000 0.0000 (  3547 PWs)   bands (ev):

   -19.7360 -19.5174 -17.5241 -17.1322 -17.0943 -17.0935 -17.0870 -17.0788
    -8.7241  -7.3725  -6.1851  -5.1898  -5.1452  -5.1058  -4.7562  -4.6494
    -2.2460  -2.1915  -2.1878  -1.7023  -1.6970  -1.4567  -1.2769  -1.2307
    -1.2198  -1.1582  -0.3362  -0.1225   0.0930   0.4214   0.4348   0.6644
     6.0693   8.8188   9.4381   9.5641   9.6593   9.8925  10.0947  11.1767
    11.2565  11.2730  11.5088  11.7647  12.0818  12.2120  12.8093  12.9641
    13.0857  13.4818  13.7496  13.9745  14.2442  14.5838  15.6017  15.8252
    15.9896  16.4701  16.9325  16.9992  17.0129  17.3777  18.0510  18.1405

     occupation numbers 
     1.0000   1.0000   1.0000   1.0000   1.0000   1.0000   1.0000   1.0000
     1.0000   1.0000   1.0000   1.0000   1.0000   1.0000   1.0000   1.0000
     1.0000   1.0000   1.0000   1.0000   1.0000   1.0000   1.0000   1.0000
     1.0000   1.0000   1.0000   1.0000   1.0000   1.0000   1.0000   1.0000
     0.0000   0.0000   0.0000   0.0000   0.0000   0.0000   0.0000   0.0000
     0.0000   0.0000   0.0000   0.0000   0.0000   0.0000   0.0000   0.0000
     0.0000   0.0000   0.0000   0.0000   0.0000   0.0000   0.0000   0.0000
     0.0000   0.0000   0.0000   0.0000   0.0000   0.0000   0.0000   0.0000

          k = 0.0000 0.0000 0.2384 (  3528 PWs)   bands (ev):

   -19.6863 -19.5779 -17.4216 -17.2264 -17.0930 -17.0894 -17.0889 -17.0822
    -8.4734  -7.8529  -5.7768  -5.3373  -5.0732  -4.9904  -4.8744  -4.7650
    -2.1671  -2.1439  -2.0336  -1.6610  -1.6148  -1.4485  -1.3810  -1.3776
    -1.2822  -1.2636  -0.1559   0.1177   0.1696   0.1919   0.3631   0.5049
     6.6258   7.9283   9.5151   9.8325   9.9652  10.0476  10.2040  10.6731
    10.8549  11.1127  11.5445  11.9343  12.2119  12.3764  12.5672  12.5958
    12.9892  13.7877  13.8536  14.2548  14.3154  15.0747  15.4962  15.6983
    16.1322  16.5127  16.6641  16.7320  17.5104  17.6726  17.6894  18.3358

     occupation numbers 
     1.0000   1.0000   1.0000   1.0000   1.0000   1.0000   1.0000   1.0000
     1.0000   1.0000   1.0000   1.0000   1.0000   1.0000   1.0000   1.0000
     1.0000   1.0000   1.0000   1.0000   1.0000   1.0000   1.0000   1.0000
     1.0000   1.0000   1.0000   1.0000   1.0000   1.0000   1.0000   1.0000
     0.0000   0.0000   0.0000   0.0000   0.0000   0.0000   0.0000   0.0000
     0.0000   0.0000   0.0000   0.0000   0.0000   0.0000   0.0000   0.0000
     0.0000   0.0000   0.0000   0.0000   0.0000   0.0000   0.0000   0.0000
     0.0000   0.0000   0.0000   0.0000   0.0000   0.0000   0.0000   0.0000

          k = 0.0000 0.3333 0.0000 (  3535 PWs)   bands (ev):

   -19.6438 -19.5277 -17.4850 -17.2673 -17.1376 -17.1243 -17.0904 -17.0848
    -8.2811  -7.5320  -6.0061  -5.3656  -5.0410  -4.9538  -4.8329  -4.6915
    -2.4199  -2.0800  -1.9980  -1.8433  -1.7269  -1.6623  -1.4985  -1.2155
    -1.1819  -1.1098  -0.3246  -0.0353   0.0837   0.1902   0.3498   0.4142
     7.0564   8.9591   9.1949   9.6493   9.8430   9.9948  10.2050  10.4910
    11.0018  11.1634  11.3657  11.6018  12.0117  12.1494  12.6143  13.2641
    13.3763  13.8511  13.9777  14.1749  14.7240  14.8116  15.1988  15.5509
    16.0463  16.6022  16.9338  17.0681  17.3331  17.8343  17.9815  18.5787

     occupation numbers 
     1.0000   1.0000   1.0000   1.0000   1.0000   1.0000   1.0000   1.0000
     1.0000   1.0000   1.0000   1.0000   1.0000   1.0000   1.0000   1.0000
     1.0000   1.0000   1.0000   1.0000   1.0000   1.0000   1.0000   1.0000
     1.0000   1.0000   1.0000   1.0000   1.0000   1.0000   1.0000   1.0000
     0.0000   0.0000   0.0000   0.0000   0.0000   0.0000   0.0000   0.0000
     0.0000   0.0000   0.0000   0.0000   0.0000   0.0000   0.0000   0.0000
     0.0000   0.0000   0.0000   0.0000   0.0000   0.0000   0.0000   0.0000
     0.0000   0.0000   0.0000   0.0000   0.0000   0.0000   0.0000   0.0000

          k = 0.0000 0.3333 0.2384 (  3537 PWs)   bands (ev):

   -19.6162 -19.5581 -17.4363 -17.3312 -17.1247 -17.1203 -17.0887 -17.0860
    -8.1358  -7.7773  -5.7528  -5.4361  -4.9828  -4.9523  -4.8817  -4.7822
    -2.4033  -2.2121  -1.9466  -1.8810  -1.6541  -1.5986  -1.4104  -1.2742
    -1.2180  -1.1888  -0.2187  -0.0868   0.0195   0.1014   0.3731   0.5311
     7.4361   8.3895   9.2132   9.5412   9.9958  10.1798  10.2701  10.3793
    10.5548  10.9384  11.4438  11.7786  12.2071  12.3266  12.4823  13.0813
    13.5408  13.9644  14.1135  14.4082  14.4754  14.7719  15.5171  15.7583
    16.0927  16.4002  16.8394  17.0899  17.4757  17.6892  18.0565  18.3005

     occupation numbers 
     1.0000   1.0000   1.0000   1.0000   1.0000   1.0000   1.0000   1.0000
     1.0000   1.0000   1.0000   1.0000   1.0000   1.0000   1.0000   1.0000
     1.0000   1.0000   1.0000   1.0000   1.0000   1.0000   1.0000   1.0000
     1.0000   1.0000   1.0000   1.0000   1.0000   1.0000   1.0000   1.0000
     0.0000   0.0000   0.0000   0.0000   0.0000   0.0000   0.0000   0.0000
     0.0000   0.0000   0.0000   0.0000   0.0000   0.0000   0.0000   0.0000
     0.0000   0.0000   0.0000   0.0000   0.0000   0.0000   0.0000   0.0000
     0.0000   0.0000   0.0000   0.0000   0.0000   0.0000   0.0000   0.0000

          k = 0.3333 0.0005 0.0000 (  3535 PWs)   bands (ev):

   -19.6438 -19.5277 -17.4851 -17.2674 -17.1377 -17.1244 -17.0902 -17.0846
    -8.2811  -7.5320  -6.0062  -5.3657  -5.0409  -4.9538  -4.8328  -4.6915
    -2.4199  -2.0800  -1.9980  -1.8433  -1.7268  -1.6624  -1.4985  -1.2155
    -1.1820  -1.1098  -0.3247  -0.0353   0.0837   0.1902   0.3499   0.4143
     7.0564   8.9592   9.1949   9.6493   9.8430   9.9949  10.2050  10.4910
    11.0018  11.1634  11.3657  11.6018  12.0117  12.1494  12.6143  13.2642
    13.3763  13.8511  13.9777  14.1749  14.7240  14.8115  15.1988  15.5509
    16.0463  16.6022  16.9338  17.0681  17.3331  17.8344  17.9815  18.5788

     occupation numbers 
     1.0000   1.0000   1.0000   1.0000   1.0000   1.0000   1.0000   1.0000
     1.0000   1.0000   1.0000   1.0000   1.0000   1.0000   1.0000   1.0000
     1.0000   1.0000   1.0000   1.0000   1.0000   1.0000   1.0000   1.0000
     1.0000   1.0000   1.0000   1.0000   1.0000   1.0000   1.0000   1.0000
     0.0000   0.0000   0.0000   0.0000   0.0000   0.0000   0.0000   0.0000
     0.0000   0.0000   0.0000   0.0000   0.0000   0.0000   0.0000   0.0000
     0.0000   0.0000   0.0000   0.0000   0.0000   0.0000   0.0000   0.0000
     0.0000   0.0000   0.0000   0.0000   0.0000   0.0000   0.0000   0.0000

          k = 0.3333 0.0005 0.2384 (  3537 PWs)   bands (ev):

   -19.6162 -19.5581 -17.4363 -17.3313 -17.1248 -17.1203 -17.0886 -17.0859
    -8.1358  -7.7773  -5.7529  -5.4361  -4.9828  -4.9523  -4.8816  -4.7822
    -2.4033  -2.2121  -1.9465  -1.8809  -1.6541  -1.5986  -1.4105  -1.2742
    -1.2181  -1.1888  -0.2187  -0.0867   0.0195   0.1014   0.3732   0.5311
     7.4361   8.3895   9.2132   9.5412   9.9958  10.1798  10.2701  10.3792
    10.5548  10.9384  11.4437  11.7786  12.2071  12.3266  12.4823  13.0813
    13.5407  13.9644  14.1135  14.4082  14.4754  14.7719  15.5171  15.7583
    16.0927  16.4002  16.8394  17.0899  17.4757  17.6893  18.0566  18.3005

     occupation numbers 
     1.0000   1.0000   1.0000   1.0000   1.0000   1.0000   1.0000   1.0000
     1.0000   1.0000   1.0000   1.0000   1.0000   1.0000   1.0000   1.0000
     1.0000   1.0000   1.0000   1.0000   1.0000   1.0000   1.0000   1.0000
     1.0000   1.0000   1.0000   1.0000   1.0000   1.0000   1.0000   1.0000
     0.0000   0.0000   0.0000   0.0000   0.0000   0.0000   0.0000   0.0000
     0.0000   0.0000   0.0000   0.0000   0.0000   0.0000   0.0000   0.0000
     0.0000   0.0000   0.0000   0.0000   0.0000   0.0000   0.0000   0.0000
     0.0000   0.0000   0.0000   0.0000   0.0000   0.0000   0.0000   0.0000

          k = 0.3333 0.3339 0.0000 (  3500 PWs)   bands (ev):

   -19.5728 -19.5053 -17.4959 -17.3765 -17.1422 -17.1363 -17.1148 -17.1102
    -7.8622  -7.3871  -6.1577  -5.8142  -4.8157  -4.7295  -4.7039  -4.6535
    -2.3151  -2.2397  -2.1381  -1.9643  -1.7385  -1.6898  -1.5234  -1.3933
    -1.3244  -1.0785  -0.2277   0.0234   0.0396   0.1380   0.2319   0.3229
     7.8627   9.2048   9.2491   9.5535   9.8838  10.2495  10.3234  10.8566
    11.0580  11.3504  11.3831  11.6992  11.7551  11.8235  12.1522  12.1925
    13.4896  13.5087  13.9663  14.4070  14.7338  15.0586  15.1862  15.7911
    16.5502  16.6036  17.1666  17.4247  17.7745  17.8599  17.9397  18.5864

     occupation numbers 
     1.0000   1.0000   1.0000   1.0000   1.0000   1.0000   1.0000   1.0000
     1.0000   1.0000   1.0000   1.0000   1.0000   1.0000   1.0000   1.0000
     1.0000   1.0000   1.0000   1.0000   1.0000   1.0000   1.0000   1.0000
     1.0000   1.0000   1.0000   1.0000   1.0000   1.0000   1.0000   1.0000
     0.0000   0.0000   0.0000   0.0000   0.0000   0.0000   0.0000   0.0000
     0.0000   0.0000   0.0000   0.0000   0.0000   0.0000   0.0000   0.0000
     0.0000   0.0000   0.0000   0.0000   0.0000   0.0000   0.0000   0.0000
     0.0000   0.0000   0.0000   0.0000   0.0000   0.0000   0.0000   0.0000

          k = 0.3333 0.3339 0.2384 (  3522 PWs)   bands (ev):

   -19.5562 -19.5226 -17.4678 -17.4086 -17.1383 -17.1347 -17.1150 -17.1126
    -7.7658  -7.5369  -6.0164  -5.8448  -4.8212  -4.7747  -4.7361  -4.6859
    -2.3278  -2.2164  -2.1471  -2.0069  -1.8732  -1.6401  -1.4469  -1.2957
    -1.1916  -1.1506  -0.2101  -0.1578  -0.1025   0.1104   0.3349   0.3862
     8.2161   8.9577   9.4062   9.7403   9.8228  10.1781  10.3015  10.3744
    10.6984  10.9407  11.3212  11.5492  11.7839  12.0553  12.2378  12.7184
    13.4914  13.9560  14.2519  14.5391  14.6569  14.7631  15.4643  15.9011
    16.1523  16.7807  16.9223  17.2843  17.6500  17.9396  18.1778  18.3163

     occupation numbers 
     1.0000   1.0000   1.0000   1.0000   1.0000   1.0000   1.0000   1.0000
     1.0000   1.0000   1.0000   1.0000   1.0000   1.0000   1.0000   1.0000
     1.0000   1.0000   1.0000   1.0000   1.0000   1.0000   1.0000   1.0000
     1.0000   1.0000   1.0000   1.0000   1.0000   1.0000   1.0000   1.0000
     0.0000   0.0000   0.0000   0.0000   0.0000   0.0000   0.0000   0.0000
     0.0000   0.0000   0.0000   0.0000   0.0000   0.0000   0.0000   0.0000
     0.0000   0.0000   0.0000   0.0000   0.0000   0.0000   0.0000   0.0000
     0.0000   0.0000   0.0000   0.0000   0.0000   0.0000   0.0000   0.0000

          k = 0.3333-0.3328 0.0000 (  3500 PWs)   bands (ev):

   -19.5679 -19.5107 -17.4907 -17.3787 -17.1469 -17.1315 -17.1157 -17.1120
    -7.8718  -7.3586  -6.2495  -5.7341  -4.8556  -4.7384  -4.7137  -4.5995
    -2.4229  -2.1371  -2.1252  -1.8987  -1.7888  -1.5989  -1.5209  -1.4196
    -1.3909  -1.1335  -0.1495  -0.0342   0.0980   0.1098   0.1904   0.3436
     7.8834   8.9406   9.2998   9.4530  10.0228  10.2821  10.3529  10.5979
    11.1042  11.2601  11.4072  11.4725  11.7802  12.0617  12.7672  13.0607
    13.2415  13.3165  13.4966  14.4122  14.5922  15.0553  15.3566  15.7073
    16.3672  16.6189  16.7135  17.2067  17.8170  18.0203  18.2430  18.7086

     occupation numbers 
     1.0000   1.0000   1.0000   1.0000   1.0000   1.0000   1.0000   1.0000
     1.0000   1.0000   1.0000   1.0000   1.0000   1.0000   1.0000   1.0000
     1.0000   1.0000   1.0000   1.0000   1.0000   1.0000   1.0000   1.0000
     1.0000   1.0000   1.0000   1.0000   1.0000   1.0000   1.0000   1.0000
     0.0000   0.0000   0.0000   0.0000   0.0000   0.0000   0.0000   0.0000
     0.0000   0.0000   0.0000   0.0000   0.0000   0.0000   0.0000   0.0000
     0.0000   0.0000   0.0000   0.0000   0.0000   0.0000   0.0000   0.0000
     0.0000   0.0000   0.0000   0.0000   0.0000   0.0000   0.0000   0.0000

          k = 0.3333-0.3328 0.2384 (  3522 PWs)   bands (ev):

   -19.5538 -19.5252 -17.4657 -17.4103 -17.1388 -17.1324 -17.1154 -17.1142
    -7.7756  -7.5276  -6.0589  -5.8102  -4.8276  -4.7505  -4.7345  -4.6872
    -2.4157  -2.2671  -2.0254  -1.9621  -1.8117  -1.7046  -1.4613  -1.2911
    -1.2529  -1.1171  -0.2650  -0.1177  -0.0718   0.0952   0.3251   0.4041
     8.1997   8.8718   9.1989   9.7413   9.8782  10.3043  10.3156  10.3517
    10.7322  10.8585  11.2102  11.4620  12.0042  12.2659  12.7135  12.7565
    13.5020  13.7488  14.0877  14.2184  14.8751  15.0411  15.4082  15.8319
    16.1473  16.5533  16.8525  17.0542  17.6516  17.8450  18.0438  18.5732

     occupation numbers 
     1.0000   1.0000   1.0000   1.0000   1.0000   1.0000   1.0000   1.0000
     1.0000   1.0000   1.0000   1.0000   1.0000   1.0000   1.0000   1.0000
     1.0000   1.0000   1.0000   1.0000   1.0000   1.0000   1.0000   1.0000
     1.0000   1.0000   1.0000   1.0000   1.0000   1.0000   1.0000   1.0000
     0.0000   0.0000   0.0000   0.0000   0.0000   0.0000   0.0000   0.0000
     0.0000   0.0000   0.0000   0.0000   0.0000   0.0000   0.0000   0.0000
     0.0000   0.0000   0.0000   0.0000   0.0000   0.0000   0.0000   0.0000
     0.0000   0.0000   0.0000   0.0000   0.0000   0.0000   0.0000   0.0000

     highest occupied, lowest unoccupied level (ev):     0.6644    6.0693

!    total energy              =    -441.07217942 Ry
     estimated scf accuracy    <       0.00000008 Ry

     The total energy is the sum of the following terms:
     one-electron contribution =    -204.88543690 Ry
     hartree contribution      =     132.80215240 Ry
     xc contribution           =     -74.85863549 Ry
     ewald contribution        =    -148.73790138 Ry
     one-center paw contrib.   =    -145.39235805 Ry
      -> PAW hartree energy AE =       5.63989853 Ry
      -> PAW hartree energy PS =      -5.63279230 Ry
      -> PAW xc energy AE      =     -74.36386464 Ry
      -> PAW xc energy PS      =       5.02174359 Ry
      -> total E_H with PAW    =     132.80925863 Ry
      -> total E_XC with PAW   =    -144.20075655 Ry

     convergence has been achieved in   8 iterations

     Writing all to output data dir calculations_bands/myprefix.save/
 
     init_run     :      8.32s CPU      2.67s WALL (       1 calls)
     electrons    :     25.57s CPU      6.88s WALL (       1 calls)

     Called by init_run:
     wfcinit      :      0.58s CPU      0.16s WALL (       1 calls)
     wfcinit:atom :      0.00s CPU      0.00s WALL (       5 calls)
     wfcinit:wfcr :      0.55s CPU      0.14s WALL (       5 calls)
     potinit      :      3.18s CPU      0.90s WALL (       1 calls)
     hinit0       :      3.15s CPU      1.00s WALL (       1 calls)

     Called by electrons:
     c_bands      :     14.36s CPU      3.77s WALL (       8 calls)
     sum_band     :      3.32s CPU      0.98s WALL (       8 calls)
     v_of_rho     :      0.49s CPU      0.13s WALL (       9 calls)
     v_h          :      0.04s CPU      0.01s WALL (       9 calls)
     v_xc         :      0.45s CPU      0.12s WALL (       9 calls)
     newd         :      2.40s CPU      0.69s WALL (       9 calls)
     PAW_pot      :      5.85s CPU      1.57s WALL (       9 calls)
     mix_rho      :      0.16s CPU      0.05s WALL (       8 calls)

     Called by c_bands:
     init_us_2    :      0.09s CPU      0.03s WALL (      85 calls)
     init_us_2:cp :      0.08s CPU      0.03s WALL (      85 calls)
     cegterg      :     13.03s CPU      3.42s WALL (      40 calls)

     Called by sum_band:
     sum_band:wei :      0.01s CPU      0.00s WALL (       8 calls)
     sum_band:loo :      1.59s CPU      0.42s WALL (       8 calls)
     sum_band:buf :      0.03s CPU      0.01s WALL (      40 calls)
     sum_band:ini :      0.04s CPU      0.01s WALL (      40 calls)
     sum_band:cal :      0.09s CPU      0.02s WALL (      40 calls)
     sum_band:bec :      0.02s CPU      0.01s WALL (      40 calls)
     addusdens    :      1.13s CPU      0.40s WALL (       8 calls)
     addusd:skk   :      0.04s CPU      0.01s WALL (      24 calls)
     addusd:dgemm :      0.18s CPU      0.14s WALL (      24 calls)
     addusd:qvan2 :      0.70s CPU      0.18s WALL (      24 calls)

     Called by *egterg:
     cdiaghg      :      3.47s CPU      0.91s WALL (     200 calls)
     cegterg:over :      0.55s CPU      0.15s WALL (     160 calls)
     cegterg:upda :      0.30s CPU      0.08s WALL (     160 calls)
     cegterg:last :      0.53s CPU      0.14s WALL (      89 calls)
     cdiaghg:chol :      0.25s CPU      0.07s WALL (     200 calls)
     cdiaghg:inve :      0.05s CPU      0.01s WALL (     200 calls)
     cdiaghg:para :      0.57s CPU      0.15s WALL (     400 calls)
     h_psi        :      8.20s CPU      2.14s WALL (     205 calls)
     s_psi        :      0.18s CPU      0.05s WALL (     205 calls)
     g_psi        :      0.02s CPU      0.01s WALL (     160 calls)

     Called by h_psi:
     h_psi:calbec :      0.34s CPU      0.09s WALL (     205 calls)
     vloc_psi     :      7.57s CPU      1.97s WALL (     205 calls)
     add_vuspsi   :      0.25s CPU      0.06s WALL (     205 calls)

     General routines
     calbec       :      0.43s CPU      0.12s WALL (     245 calls)
     fft          :      1.56s CPU      0.50s WALL (     115 calls)
     ffts         :      1.03s CPU      0.27s WALL (      17 calls)
     fftw         :      7.61s CPU      1.99s WALL (   16316 calls)
     interpolate  :      1.06s CPU      0.28s WALL (       9 calls)
 
     Parallel routines

     PAW routines
     PAW_pot      :      5.85s CPU      1.57s WALL (       9 calls)
     PAW_symme    :      0.09s CPU      0.02s WALL (      17 calls)
 
     PWSCF        :     34.91s CPU     10.09s WALL

 
   This run was terminated on:  16:38:46   4Jun2023            

=------------------------------------------------------------------------------=
   JOB DONE.
=------------------------------------------------------------------------------=
