
     Program PWSCF v.7.0 starts on 23Jun2023 at  7: 4:49 

     This program is part of the open-source Quantum ESPRESSO suite
     for quantum simulation of materials; please cite
         "P. Giannozzi et al., J. Phys.:Condens. Matter 21 395502 (2009);
         "P. Giannozzi et al., J. Phys.:Condens. Matter 29 465901 (2017);
         "P. Giannozzi et al., J. Chem. Phys. 152 154105 (2020);
          URL http://www.quantum-espresso.org", 
     in publications or presentations arising from this work. More details at
     http://www.quantum-espresso.org/quote

     Parallel version (MPI & OpenMP), running on      32 processor cores
     Number of MPI processes:                 8
     Threads/MPI process:                     4

     MPI processes distributed on     1 nodes
     K-points division:     npool     =       2
     R & G space division:  proc/nbgrp/npool/nimage =       4
     81031 MiB available memory on the printing compute node when the environment starts
 
     Reading input from espresso_2401.pwi
Warning: card &CELL ignored
Warning: card / ignored

     Current dimensions of program PWSCF are:
     Max number of different atomic species (ntypx) = 10
     Max number of k-points (npk) =  40000
     Max angular momentum in pseudopotentials (lmaxx) =  4
     file Ba.pbe-spn-kjpaw_psl.1.0.0.UPF: wavefunction(s)  5S 6S renormalized
     file O.pbe-n-kjpaw_psl.0.1.UPF: wavefunction(s)  2P renormalized
     Message from routine setup:
     using ibrav=0 with symmetry is DISCOURAGED, use correct ibrav instead

     Subspace diagonalization in iterative solution of the eigenvalue problem:
     one sub-group per band group will be used
     scalapack distributed-memory algorithm (size of sub-group:  2*  2 procs)

 
     Parallelization info
     --------------------
     sticks:   dense  smooth     PW     G-vecs:    dense   smooth      PW
     Min         669     335     93                36572    12946    1935
     Max         670     337     94                36574    12947    1939
     Sum        2677    1345    375               146291    51785    7745
 
     Using Slab Decomposition
 


     bravais-lattice index     =            0
     lattice parameter (alat)  =      11.7995  a.u.
     unit-cell volume          =    2330.8545 (a.u.)^3
     number of atoms/cell      =           20
     number of atomic types    =            3
     number of electrons       =       172.00
     number of Kohn-Sham states=           90
     kinetic-energy cutoff     =      30.0000  Ry
     charge density cutoff     =     240.0000  Ry
     scf convergence threshold =      1.0E-06
     mixing beta               =       0.7000
     number of iterations used =            8  plain     mixing
     Exchange-correlation= SLA  PW   PBX  PBC
                           (   1   4   3   4   0   0   0)

     celldm(1)=  11.799535  celldm(2)=   0.000000  celldm(3)=   0.000000
     celldm(4)=   0.000000  celldm(5)=   0.000000  celldm(6)=   0.000000

     crystal axes: (cart. coord. in units of alat)
               a(1) = (   1.000000   0.000000   0.000000 )  
               a(2) = (   0.000000   1.005760   0.000000 )  
               a(3) = (   0.000000   0.999332   1.410672 )  

     reciprocal axes: (cart. coord. in units 2 pi/alat)
               b(1) = (  1.000000  0.000000  0.000000 )  
               b(2) = (  0.000000  0.994273 -0.704352 )  
               b(3) = (  0.000000  0.000000  0.708882 )  


     PseudoPot. # 1 for Ba read from file:
     /home/pragov/projects/rrg-bengioy-ad/pragov/crystal_structure_design/SSSP/Ba.pbe-spn-kjpaw_psl.1.0.0.UPF
     MD5 check sum: c432291d3e53af55f19d5e8866385beb
     Pseudo is Projector augmented-wave + core cor, Zval = 10.0
     Generated using "atomic" code by A. Dal Corso  v.5.1
     Shape of augmentation charge: PSQ
     Using radial grid of 1251 points,  7 beta functions with: 
                l(1) =   0
                l(2) =   0
                l(3) =   0
                l(4) =   1
                l(5) =   1
                l(6) =   2
                l(7) =   2
     Q(r) pseudized with 0 coefficients 


     PseudoPot. # 2 for Bi read from file:
     /home/pragov/projects/rrg-bengioy-ad/pragov/crystal_structure_design/SSSP/Bi_pbe_v1.uspp.F.UPF
     MD5 check sum: cceb9f28ec65b6d7ff33140f5b0b1758
     Pseudo is Ultrasoft + core correction, Zval = 15.0
     Generated by new atomic code, or converted to UPF format
     Using radial grid of  899 points,  6 beta functions with: 
                l(1) =   0
                l(2) =   0
                l(3) =   1
                l(4) =   1
                l(5) =   2
                l(6) =   2
     Q(r) pseudized with  6 coefficients,  rinner =    1.000   1.000   1.000
                                                       1.000   1.000

     PseudoPot. # 3 for O  read from file:
     /home/pragov/projects/rrg-bengioy-ad/pragov/crystal_structure_design/SSSP/O.pbe-n-kjpaw_psl.0.1.UPF
     MD5 check sum: 0234752ac141de4415c5fc33072bef88
     Pseudo is Projector augmented-wave + core cor, Zval =  6.0
     Generated using "atomic" code by A. Dal Corso  v.5.0.99 svn rev. 10869
     Shape of augmentation charge: BESSEL
     Using radial grid of 1095 points,  4 beta functions with: 
                l(1) =   0
                l(2) =   0
                l(3) =   1
                l(4) =   1
     Q(r) pseudized with 0 coefficients 


     atomic species   valence    mass     pseudopotential
        Ba            10.00   137.32700     Ba( 1.00)
        Bi            15.00   208.98040     Bi( 1.00)
        O              6.00    15.99900     O ( 1.00)

      4 Sym. Ops., with inversion, found ( 2 have fractional translation)


                                    s                        frac. trans.

      isym =  1     identity                                     

 cryst.   s( 1) = (     1          0          0      )
                  (     0          1          0      )
                  (     0          0          1      )

 cart.    s( 1) = (  1.0000000  0.0000000  0.0000000 )
                  (  0.0000000  1.0000000 -0.0000000 )
                  (  0.0000000  0.0000000  1.0000000 )


      isym =  2     180 deg rotation - cart. axis [1,0,0]        

 cryst.   s( 2) = (     1          0          0      )    f =( -0.5000000 )
                  (     0         -1          0      )       ( -0.0000000 )
                  (     0          0         -1      )       (  0.5000000 )

 cart.    s( 2) = (  1.0000000  0.0000000  0.0000000 )    f =( -0.5000000 )
                  (  0.0000000 -1.0000000  0.0000000 )       (  0.4996662 )
                  (  0.0000000  0.0000000 -1.0000000 )       (  0.7053362 )


      isym =  3     inversion                                    

 cryst.   s( 3) = (    -1          0          0      )
                  (     0         -1          0      )
                  (     0          0         -1      )

 cart.    s( 3) = ( -1.0000000  0.0000000  0.0000000 )
                  (  0.0000000 -1.0000000  0.0000000 )
                  (  0.0000000  0.0000000 -1.0000000 )


      isym =  4     inv. 180 deg rotation - cart. axis [1,0,0]   

 cryst.   s( 4) = (    -1          0          0      )    f =(  0.5000000 )
                  (     0          1          0      )       ( -0.0000000 )
                  (     0          0          1      )       ( -0.5000000 )

 cart.    s( 4) = ( -1.0000000  0.0000000  0.0000000 )    f =(  0.5000000 )
                  (  0.0000000  1.0000000 -0.0000000 )       ( -0.4996662 )
                  (  0.0000000  0.0000000  1.0000000 )       ( -0.7053362 )


   Cartesian axes

     site n.     atom                  positions (alat units)
         1           Ba  tau(   1) = (   0.9866490   0.5076499   0.3512659  )
         2           Ba  tau(   2) = (   0.0133510   1.4974423   1.0594065  )
         3           Ba  tau(   3) = (   0.5133510   1.0073161   1.0566021  )
         4           Ba  tau(   4) = (   0.4866490   0.9977761   0.3540703  )
         5           Bi  tau(   5) = (   0.5000000   0.5028799   0.0000000  )
         6           Bi  tau(   6) = (   0.0000000   0.0000000   0.0000000  )
         7           Bi  tau(   7) = (   0.0000000   1.0025461   0.7053362  )
         8           Bi  tau(   8) = (   0.5000000   0.4996662   0.7053362  )
         9           O   tau(   9) = (   0.7275160   0.7606199   0.0541063  )
        10           O   tau(  10) = (   0.0081960   1.0745100   0.3647858  )
        11           O   tau(  11) = (   0.7399470   0.7774128   0.6510394  )
        12           O   tau(  12) = (   0.2600530   1.2276794   0.7596330  )
        13           O   tau(  13) = (   0.7600530   1.2770789   1.3563756  )
        14           O   tau(  14) = (   0.2399470   0.7280133   0.0542968  )
        15           O   tau(  15) = (   0.7724840   1.2602860   0.7594425  )
        16           O   tau(  16) = (   0.2275160   0.7448062   0.6512299  )
        17           O   tau(  17) = (   0.9918040   0.9305822   1.0458866  )
        18           O   tau(  18) = (   0.5081960   0.4309160   0.3405504  )
        19           O   tau(  19) = (   0.4918040   1.5741762   1.0701220  )
        20           O   tau(  20) = (   0.2724840   1.2444723   1.3565661  )

   Crystallographic axes

     site n.     atom                  positions (cryst. coord.)
         1           Ba  tau(   1) = (  0.9866490  0.2573280  0.2490060  )
         2           Ba  tau(   2) = (  0.0133510  0.7426720  0.7509940  )
         3           Ba  tau(   3) = (  0.5133510  0.2573280  0.7490060  )
         4           Ba  tau(   4) = (  0.4866490  0.7426720  0.2509940  )
         5           Bi  tau(   5) = (  0.5000000  0.5000000  0.0000000  )
         6           Bi  tau(   6) = (  0.0000000  0.0000000  0.0000000  )
         7           Bi  tau(   7) = (  0.0000000  0.5000000  0.5000000  )
         8           Bi  tau(   8) = (  0.5000000  0.0000000  0.5000000  )
         9           O   tau(   9) = (  0.7275160  0.7181540  0.0383550  )
        10           O   tau(  10) = (  0.0081960  0.8114190  0.2585900  )
        11           O   tau(  11) = (  0.7399470  0.3144000  0.4615100  )
        12           O   tau(  12) = (  0.2600530  0.6856000  0.5384900  )
        13           O   tau(  13) = (  0.7600530  0.3144000  0.9615100  )
        14           O   tau(  14) = (  0.2399470  0.6856000  0.0384900  )
        15           O   tau(  15) = (  0.7724840  0.7181540  0.5383550  )
        16           O   tau(  16) = (  0.2275160  0.2818460  0.4616450  )
        17           O   tau(  17) = (  0.9918040  0.1885810  0.7414100  )
        18           O   tau(  18) = (  0.5081960  0.1885810  0.2414100  )
        19           O   tau(  19) = (  0.4918040  0.8114190  0.7585900  )
        20           O   tau(  20) = (  0.2724840  0.2818460  0.9616450  )

     number of k points=    10
                       cart. coord. in units 2pi/alat
        k(    1) = (   0.0000000   0.0000000   0.0000000), wk =   0.0740741
        k(    2) = (   0.0000000   0.0000000   0.2362939), wk =   0.1481481
        k(    3) = (   0.0000000   0.3314244  -0.2347838), wk =   0.1481481
        k(    4) = (   0.0000000   0.3314244   0.0015101), wk =   0.1481481
        k(    5) = (   0.0000000   0.3314244  -0.4710778), wk =   0.1481481
        k(    6) = (   0.3333333   0.0000000   0.0000000), wk =   0.1481481
        k(    7) = (   0.3333333   0.0000000   0.2362939), wk =   0.2962963
        k(    8) = (   0.3333333   0.3314244  -0.2347838), wk =   0.2962963
        k(    9) = (   0.3333333   0.3314244   0.0015101), wk =   0.2962963
        k(   10) = (   0.3333333   0.3314244  -0.4710778), wk =   0.2962963

                       cryst. coord.
        k(    1) = (   0.0000000   0.0000000   0.0000000), wk =   0.0740741
        k(    2) = (   0.0000000   0.0000000   0.3333333), wk =   0.1481481
        k(    3) = (   0.0000000   0.3333333   0.0000000), wk =   0.1481481
        k(    4) = (   0.0000000   0.3333333   0.3333333), wk =   0.1481481
        k(    5) = (   0.0000000   0.3333333  -0.3333333), wk =   0.1481481
        k(    6) = (   0.3333333   0.0000000   0.0000000), wk =   0.1481481
        k(    7) = (   0.3333333   0.0000000   0.3333333), wk =   0.2962963
        k(    8) = (   0.3333333   0.3333333   0.0000000), wk =   0.2962963
        k(    9) = (   0.3333333   0.3333333   0.3333333), wk =   0.2962963
        k(   10) = (   0.3333333   0.3333333  -0.3333333), wk =   0.2962963

     Dense  grid:   146291 G-vectors     FFT dimensions: (  60,  60, 108)

     Smooth grid:    51785 G-vectors     FFT dimensions: (  48,  45,  72)

     Dynamical RAM for                 wfc:       2.22 MB

     Dynamical RAM for     wfc (w. buffer):      13.32 MB

     Dynamical RAM for           str. fact:       1.67 MB

     Dynamical RAM for           local pot:       0.00 MB

     Dynamical RAM for          nlocal pot:       6.02 MB

     Dynamical RAM for                qrad:       4.98 MB

     Dynamical RAM for          rho,v,vnew:       3.90 MB

     Dynamical RAM for               rhoin:       1.30 MB

     Dynamical RAM for            rho*nmix:       8.93 MB

     Dynamical RAM for           G-vectors:       2.19 MB

     Dynamical RAM for          h,s,v(r/c):       0.37 MB

     Dynamical RAM for          <psi|beta>:       0.34 MB

     Dynamical RAM for                 psi:       4.44 MB

     Dynamical RAM for                hpsi:       4.44 MB

     Dynamical RAM for                spsi:       4.44 MB

     Dynamical RAM for      wfcinit/wfcrot:       5.38 MB

     Dynamical RAM for           addusdens:      60.83 MB

     Estimated static dynamical RAM per process >      39.32 MB

     Estimated max dynamical RAM per process >     109.08 MB

     Estimated total dynamical RAM >     836.93 MB

     Check: negative core charge=   -0.000010

     Initial potential from superposition of free atoms

     starting charge     167.9318, renormalised to     172.0000

     negative rho (up, down):  1.757E-01 0.000E+00
     Starting wfcs are  104 randomized atomic wfcs
     Checking if some PAW data can be deallocated... 
       PAW data deallocated on    6 nodes for type:  1
       PAW data deallocated on    2 nodes for type:  3

     total cpu time spent up to now is        5.1 secs

     Self-consistent Calculation

     iteration #  1     ecut=    30.00 Ry     beta= 0.70
     Davidson diagonalization with overlap

---- Real-time Memory Report at c_bands before calling an iterative solver
           213 MiB given to the printing process from OS
             0 MiB allocation reported by mallinfo(arena+hblkhd)
         80333 MiB available memory on the node where the printing process lives
------------------
     ethr =  1.00E-02,  avg # of iterations =  3.7

     negative rho (up, down):  1.645E-01 0.000E+00

     total cpu time spent up to now is        7.1 secs

     total energy              =   -2983.94490245 Ry
     estimated scf accuracy    <       4.03504412 Ry

     iteration #  2     ecut=    30.00 Ry     beta= 0.70
     Davidson diagonalization with overlap

---- Real-time Memory Report at c_bands before calling an iterative solver
           254 MiB given to the printing process from OS
             0 MiB allocation reported by mallinfo(arena+hblkhd)
         80198 MiB available memory on the node where the printing process lives
------------------
     ethr =  2.35E-03,  avg # of iterations =  3.2

     negative rho (up, down):  1.716E-01 0.000E+00

     total cpu time spent up to now is        9.5 secs

     total energy              =   -2984.78494857 Ry
     estimated scf accuracy    <       6.22596497 Ry

     iteration #  3     ecut=    30.00 Ry     beta= 0.70
     Davidson diagonalization with overlap

---- Real-time Memory Report at c_bands before calling an iterative solver
           261 MiB given to the printing process from OS
             0 MiB allocation reported by mallinfo(arena+hblkhd)
         80131 MiB available memory on the node where the printing process lives
------------------
     ethr =  2.35E-03,  avg # of iterations =  2.5

     negative rho (up, down):  1.740E-01 0.000E+00

     total cpu time spent up to now is       11.8 secs

     total energy              =   -2985.93935136 Ry
     estimated scf accuracy    <       0.03137103 Ry

     iteration #  4     ecut=    30.00 Ry     beta= 0.70
     Davidson diagonalization with overlap

---- Real-time Memory Report at c_bands before calling an iterative solver
           267 MiB given to the printing process from OS
             0 MiB allocation reported by mallinfo(arena+hblkhd)
         80100 MiB available memory on the node where the printing process lives
------------------
     ethr =  1.82E-05,  avg # of iterations = 10.2

     negative rho (up, down):  1.741E-01 0.000E+00

     total cpu time spent up to now is       15.3 secs

     total energy              =   -2985.97956989 Ry
     estimated scf accuracy    <       0.08996271 Ry

     iteration #  5     ecut=    30.00 Ry     beta= 0.70
     Davidson diagonalization with overlap

---- Real-time Memory Report at c_bands before calling an iterative solver
           276 MiB given to the printing process from OS
             0 MiB allocation reported by mallinfo(arena+hblkhd)
         80017 MiB available memory on the node where the printing process lives
------------------
     ethr =  1.82E-05,  avg # of iterations =  2.1

     negative rho (up, down):  1.741E-01 0.000E+00

     total cpu time spent up to now is       17.2 secs

     total energy              =   -2985.97680722 Ry
     estimated scf accuracy    <       0.03082173 Ry

     iteration #  6     ecut=    30.00 Ry     beta= 0.70
     Davidson diagonalization with overlap

---- Real-time Memory Report at c_bands before calling an iterative solver
           279 MiB given to the printing process from OS
             0 MiB allocation reported by mallinfo(arena+hblkhd)
         79989 MiB available memory on the node where the printing process lives
------------------
     ethr =  1.79E-05,  avg # of iterations =  2.0

     negative rho (up, down):  1.741E-01 0.000E+00

     total cpu time spent up to now is       19.0 secs

     total energy              =   -2985.98364029 Ry
     estimated scf accuracy    <       0.00104472 Ry

     iteration #  7     ecut=    30.00 Ry     beta= 0.70
     Davidson diagonalization with overlap

---- Real-time Memory Report at c_bands before calling an iterative solver
           279 MiB given to the printing process from OS
             0 MiB allocation reported by mallinfo(arena+hblkhd)
         79977 MiB available memory on the node where the printing process lives
------------------
     ethr =  6.07E-07,  avg # of iterations =  6.6

     negative rho (up, down):  1.742E-01 0.000E+00

     total cpu time spent up to now is       21.4 secs

     total energy              =   -2985.98334542 Ry
     estimated scf accuracy    <       0.00135808 Ry

     iteration #  8     ecut=    30.00 Ry     beta= 0.70
     Davidson diagonalization with overlap

---- Real-time Memory Report at c_bands before calling an iterative solver
           280 MiB given to the printing process from OS
             0 MiB allocation reported by mallinfo(arena+hblkhd)
         79924 MiB available memory on the node where the printing process lives
------------------
     ethr =  6.07E-07,  avg # of iterations =  2.2

     negative rho (up, down):  1.743E-01 0.000E+00

     total cpu time spent up to now is       23.3 secs

     total energy              =   -2985.98366352 Ry
     estimated scf accuracy    <       0.00013568 Ry

     iteration #  9     ecut=    30.00 Ry     beta= 0.70
     Davidson diagonalization with overlap

---- Real-time Memory Report at c_bands before calling an iterative solver
           280 MiB given to the printing process from OS
             0 MiB allocation reported by mallinfo(arena+hblkhd)
         79911 MiB available memory on the node where the printing process lives
------------------
     ethr =  7.89E-08,  avg # of iterations =  3.0

     negative rho (up, down):  1.743E-01 0.000E+00

     total cpu time spent up to now is       25.2 secs

     total energy              =   -2985.98367742 Ry
     estimated scf accuracy    <       0.00016853 Ry

     iteration # 10     ecut=    30.00 Ry     beta= 0.70
     Davidson diagonalization with overlap

---- Real-time Memory Report at c_bands before calling an iterative solver
           285 MiB given to the printing process from OS
             0 MiB allocation reported by mallinfo(arena+hblkhd)
         79816 MiB available memory on the node where the printing process lives
------------------
     ethr =  7.89E-08,  avg # of iterations =  2.0

     negative rho (up, down):  1.743E-01 0.000E+00

     total cpu time spent up to now is       27.0 secs

     total energy              =   -2985.98367637 Ry
     estimated scf accuracy    <       0.00004299 Ry

     iteration # 11     ecut=    30.00 Ry     beta= 0.70
     Davidson diagonalization with overlap

---- Real-time Memory Report at c_bands before calling an iterative solver
           288 MiB given to the printing process from OS
             0 MiB allocation reported by mallinfo(arena+hblkhd)
         79800 MiB available memory on the node where the printing process lives
------------------
     ethr =  2.50E-08,  avg # of iterations =  2.0

     negative rho (up, down):  1.743E-01 0.000E+00

     total cpu time spent up to now is       28.9 secs

     total energy              =   -2985.98368461 Ry
     estimated scf accuracy    <       0.00000114 Ry

     iteration # 12     ecut=    30.00 Ry     beta= 0.70
     Davidson diagonalization with overlap

---- Real-time Memory Report at c_bands before calling an iterative solver
           289 MiB given to the printing process from OS
             0 MiB allocation reported by mallinfo(arena+hblkhd)
         79733 MiB available memory on the node where the printing process lives
------------------
     ethr =  6.62E-10,  avg # of iterations =  4.8

     negative rho (up, down):  1.743E-01 0.000E+00

     total cpu time spent up to now is       32.5 secs

     total energy              =   -2985.98368512 Ry
     estimated scf accuracy    <       0.00000154 Ry

     iteration # 13     ecut=    30.00 Ry     beta= 0.70
     Davidson diagonalization with overlap

---- Real-time Memory Report at c_bands before calling an iterative solver
           289 MiB given to the printing process from OS
             0 MiB allocation reported by mallinfo(arena+hblkhd)
         79697 MiB available memory on the node where the printing process lives
------------------
     ethr =  6.62E-10,  avg # of iterations =  2.0

     negative rho (up, down):  1.743E-01 0.000E+00

     total cpu time spent up to now is       35.5 secs

     End of self-consistent calculation

          k = 0.0000 0.0000 0.0000 (  6505 PWs)   bands (ev):

   -16.8417 -16.8134 -16.7883 -16.7685 -13.3378 -13.3366 -13.3306 -13.3011
   -13.0320 -12.9944 -12.9932 -12.9922 -12.9907 -12.9889 -12.9829 -12.9817
   -12.9787 -12.9749 -12.9196 -12.9185 -12.9140 -12.9132 -12.9061 -12.9044
    -8.8991  -8.5884  -7.8839  -7.8408  -7.8117  -7.7444  -7.7362  -7.7323
    -7.5436  -6.8261  -6.8076  -6.7588  -2.2571  -2.1497  -2.0863  -2.0801
    -2.0485  -2.0132  -1.9797  -1.9671  -1.9650  -1.9231  -1.9150  -1.8995
    -1.8853  -0.5588   0.8308   2.6077   4.1248   4.1252   4.2401   4.2497
     4.2808   4.5302   6.2044   6.4309   6.6105   7.0323   7.0591   7.0654
     7.2325   7.2727   7.2898   7.3904   7.4713   7.4963   7.4995   7.5452
     7.5623   7.5697   7.6794   7.7039   7.7799   7.8190   7.8847   7.9132
     7.9494   8.1293   8.2208   8.2296   8.4481   9.3249  11.0753  12.0455
    12.2503  12.2523

     occupation numbers 
     1.0000   1.0000   1.0000   1.0000   1.0000   1.0000   1.0000   1.0000
     1.0000   1.0000   1.0000   1.0000   1.0000   1.0000   1.0000   1.0000
     1.0000   1.0000   1.0000   1.0000   1.0000   1.0000   1.0000   1.0000
     1.0000   1.0000   1.0000   1.0000   1.0000   1.0000   1.0000   1.0000
     1.0000   1.0000   1.0000   1.0000   1.0000   1.0000   1.0000   1.0000
     1.0000   1.0000   1.0000   1.0000   1.0000   1.0000   1.0000   1.0000
     1.0000   1.0000   1.0000   1.0000   1.0000   1.0000   1.0000   1.0000
     1.0000   1.0000   1.0000   1.0000   1.0000   1.0000   1.0000   1.0000
     1.0000   1.0000   1.0000   1.0000   1.0000   1.0000   1.0000   1.0000
     1.0000   1.0000   1.0000   1.0000   1.0000   1.0000   1.0000   1.0000
     1.0000   1.0000   1.0000   1.0000   1.0000   1.0000   0.0000   0.0000
     0.0000   0.0000

          k = 0.0000 0.0000 0.2363 (  6483 PWs)   bands (ev):

   -16.8347 -16.8205 -16.7833 -16.7735 -13.3374 -13.3367 -13.3116 -13.2949
   -13.0350 -13.0100 -12.9940 -12.9934 -12.9916 -12.9909 -12.9826 -12.9820
   -12.9789 -12.9787 -12.9194 -12.9189 -12.9139 -12.9135 -12.9062 -12.9055
    -8.8521  -8.7102  -7.8549  -7.8257  -7.8165  -7.7692  -7.7211  -7.7041
    -7.3588  -6.9922  -6.7944  -6.7698  -2.1785  -2.1134  -2.0782  -2.0524
    -2.0483  -2.0268  -2.0107  -1.9994  -1.9412  -1.9294  -1.9240  -1.8906
    -1.6950  -1.0050   1.0865   1.8412   4.1293   4.1338   4.2582   4.2751
     5.2561   5.2890   6.3315   6.4148   6.6624   6.7413   6.8491   7.0017
     7.0728   7.1019   7.2280   7.3162   7.4501   7.4961   7.5174   7.5488
     7.6027   7.6082   7.6796   7.7381   7.7905   7.8334   7.8666   7.8904
     7.9114   8.0938   8.1991   8.2374   8.4232   8.6967  11.1159  11.4696
    12.3756  12.5767

     occupation numbers 
     1.0000   1.0000   1.0000   1.0000   1.0000   1.0000   1.0000   1.0000
     1.0000   1.0000   1.0000   1.0000   1.0000   1.0000   1.0000   1.0000
     1.0000   1.0000   1.0000   1.0000   1.0000   1.0000   1.0000   1.0000
     1.0000   1.0000   1.0000   1.0000   1.0000   1.0000   1.0000   1.0000
     1.0000   1.0000   1.0000   1.0000   1.0000   1.0000   1.0000   1.0000
     1.0000   1.0000   1.0000   1.0000   1.0000   1.0000   1.0000   1.0000
     1.0000   1.0000   1.0000   1.0000   1.0000   1.0000   1.0000   1.0000
     1.0000   1.0000   1.0000   1.0000   1.0000   1.0000   1.0000   1.0000
     1.0000   1.0000   1.0000   1.0000   1.0000   1.0000   1.0000   1.0000
     1.0000   1.0000   1.0000   1.0000   1.0000   1.0000   1.0000   1.0000
     1.0000   1.0000   1.0000   1.0000   1.0000   1.0000   0.0000   0.0000
     0.0000   0.0000

          k = 0.0000 0.3314-0.2348 (  6468 PWs)   bands (ev):

   -16.8215 -16.8089 -16.7946 -16.7845 -13.3104 -13.3094 -13.3016 -13.2945
   -13.0312 -13.0254 -13.0245 -13.0191 -12.9917 -12.9911 -12.9860 -12.9857
   -12.9786 -12.9783 -12.9196 -12.9194 -12.9145 -12.9144 -12.9057 -12.9055
    -8.7755  -8.6636  -8.2293  -8.1401  -7.6292  -7.5685  -7.5566  -7.5242
    -7.1981  -7.0357  -6.9980  -6.9799  -2.1726  -2.0982  -2.0930  -2.0573
    -2.0060  -2.0013  -1.9721  -1.9361  -1.9077  -1.8698  -1.8666  -1.8494
    -1.1941  -0.5829   0.0977   0.7098   4.7826   4.8474   4.8608   5.0447
     5.2941   5.6986   6.1584   6.2115   6.2724   6.3100   6.3447   6.5667
     7.0200   7.0925   7.1156   7.1756   7.2764   7.2812   7.3895   7.4380
     7.6618   7.6633   7.7334   7.7713   7.8029   7.8752   7.8964   7.9482
     8.0231   8.0461   8.1010   8.1982   8.4607   8.8313   9.8269  10.1493
    13.3980  13.4641

     occupation numbers 
     1.0000   1.0000   1.0000   1.0000   1.0000   1.0000   1.0000   1.0000
     1.0000   1.0000   1.0000   1.0000   1.0000   1.0000   1.0000   1.0000
     1.0000   1.0000   1.0000   1.0000   1.0000   1.0000   1.0000   1.0000
     1.0000   1.0000   1.0000   1.0000   1.0000   1.0000   1.0000   1.0000
     1.0000   1.0000   1.0000   1.0000   1.0000   1.0000   1.0000   1.0000
     1.0000   1.0000   1.0000   1.0000   1.0000   1.0000   1.0000   1.0000
     1.0000   1.0000   1.0000   1.0000   1.0000   1.0000   1.0000   1.0000
     1.0000   1.0000   1.0000   1.0000   1.0000   1.0000   1.0000   1.0000
     1.0000   1.0000   1.0000   1.0000   1.0000   1.0000   1.0000   1.0000
     1.0000   1.0000   1.0000   1.0000   1.0000   1.0000   1.0000   1.0000
     1.0000   1.0000   1.0000   1.0000   1.0000   1.0000   0.0000   0.0000
     0.0000   0.0000

          k = 0.0000 0.3314 0.0015 (  6467 PWs)   bands (ev):

   -16.8274 -16.8048 -16.7977 -16.7795 -13.3194 -13.3104 -13.3092 -13.3039
   -13.0252 -13.0247 -13.0225 -12.9999 -12.9916 -12.9912 -12.9860 -12.9858
   -12.9780 -12.9771 -12.9197 -12.9191 -12.9146 -12.9142 -12.9055 -12.9047
    -8.8176  -8.6037  -8.1652  -7.9846  -7.7725  -7.7691  -7.6215  -7.5509
    -7.1314  -7.0345  -6.9826  -6.8763  -2.1940  -2.1231  -2.0413  -2.0331
    -2.0018  -1.9981  -1.9855  -1.9333  -1.9128  -1.8799  -1.8783  -1.8560
    -1.4517  -0.2641  -0.0097   1.1871   4.2669   4.4001   4.8449   4.8554
     5.3213   5.5135   6.1225   6.2236   6.3722   6.3882   6.5714   6.8561
     6.9681   7.0835   7.1028   7.2273   7.3314   7.3398   7.4060   7.5035
     7.6155   7.6463   7.6664   7.6782   7.6879   7.8327   7.8353   7.9168
     7.9592   8.0648   8.1743   8.2033   8.4669   9.2337  10.1202  10.7932
    12.8225  13.1154

     occupation numbers 
     1.0000   1.0000   1.0000   1.0000   1.0000   1.0000   1.0000   1.0000
     1.0000   1.0000   1.0000   1.0000   1.0000   1.0000   1.0000   1.0000
     1.0000   1.0000   1.0000   1.0000   1.0000   1.0000   1.0000   1.0000
     1.0000   1.0000   1.0000   1.0000   1.0000   1.0000   1.0000   1.0000
     1.0000   1.0000   1.0000   1.0000   1.0000   1.0000   1.0000   1.0000
     1.0000   1.0000   1.0000   1.0000   1.0000   1.0000   1.0000   1.0000
     1.0000   1.0000   1.0000   1.0000   1.0000   1.0000   1.0000   1.0000
     1.0000   1.0000   1.0000   1.0000   1.0000   1.0000   1.0000   1.0000
     1.0000   1.0000   1.0000   1.0000   1.0000   1.0000   1.0000   1.0000
     1.0000   1.0000   1.0000   1.0000   1.0000   1.0000   1.0000   1.0000
     1.0000   1.0000   1.0000   1.0000   1.0000   1.0000   0.0000   0.0000
     0.0000   0.0000

          k = 0.0000 0.3314-0.4711 (  6477 PWs)   bands (ev):

   -16.8211 -16.8097 -16.7941 -16.7846 -13.3101 -13.3097 -13.3030 -13.2932
   -13.0321 -13.0250 -13.0248 -13.0184 -12.9914 -12.9914 -12.9861 -12.9857
   -12.9786 -12.9783 -12.9197 -12.9193 -12.9147 -12.9141 -12.9058 -12.9054
    -8.7724  -8.6632  -8.2348  -8.1470  -7.5987  -7.5920  -7.5435  -7.5425
    -7.1560  -7.0399  -7.0053  -7.0038  -2.1647  -2.1031  -2.0976  -2.0468
    -1.9991  -1.9960  -1.9750  -1.9216  -1.9080  -1.9043  -1.8572  -1.8566
    -1.2079  -0.5690   0.0995   0.7080   4.8008   4.8389   4.8646   5.0517
     5.2288   5.7090   6.1744   6.1837   6.2995   6.3425   6.3843   6.4967
     7.0681   7.0812   7.1120   7.1518   7.2469   7.2982   7.4132   7.4194
     7.6072   7.6690   7.7444   7.7830   7.8613   7.8681   7.8930   7.9257
     7.9990   8.0750   8.1479   8.1743   8.4343   8.8046   9.8324  10.1479
    13.2857  13.5433

     occupation numbers 
     1.0000   1.0000   1.0000   1.0000   1.0000   1.0000   1.0000   1.0000
     1.0000   1.0000   1.0000   1.0000   1.0000   1.0000   1.0000   1.0000
     1.0000   1.0000   1.0000   1.0000   1.0000   1.0000   1.0000   1.0000
     1.0000   1.0000   1.0000   1.0000   1.0000   1.0000   1.0000   1.0000
     1.0000   1.0000   1.0000   1.0000   1.0000   1.0000   1.0000   1.0000
     1.0000   1.0000   1.0000   1.0000   1.0000   1.0000   1.0000   1.0000
     1.0000   1.0000   1.0000   1.0000   1.0000   1.0000   1.0000   1.0000
     1.0000   1.0000   1.0000   1.0000   1.0000   1.0000   1.0000   1.0000
     1.0000   1.0000   1.0000   1.0000   1.0000   1.0000   1.0000   1.0000
     1.0000   1.0000   1.0000   1.0000   1.0000   1.0000   1.0000   1.0000
     1.0000   1.0000   1.0000   1.0000   1.0000   1.0000   0.0000   0.0000
     0.0000   0.0000

          k = 0.3333 0.0000 0.0000 (  6472 PWs)   bands (ev):

   -16.8272 -16.8021 -16.8004 -16.7797 -13.3203 -13.3105 -13.3092 -13.3045
   -13.0248 -13.0248 -13.0226 -12.9997 -12.9915 -12.9909 -12.9857 -12.9856
   -12.9786 -12.9779 -12.9194 -12.9188 -12.9145 -12.9141 -12.9059 -12.9051
    -8.8000  -8.5793  -8.1437  -7.9413  -7.7758  -7.7631  -7.6394  -7.5992
    -7.1548  -7.0532  -7.0073  -6.8947  -2.1694  -2.0669  -2.0390  -2.0055
    -1.9972  -1.9934  -1.9519  -1.9387  -1.9323  -1.9160  -1.9049  -1.8783
    -1.4732  -0.2419   0.0144   1.2571   4.2573   4.3825   4.7411   4.8252
     5.3124   5.5231   6.1522   6.2219   6.4839   6.5025   6.7111   6.7651
     6.9435   7.0445   7.1522   7.2572   7.3344   7.4253   7.4294   7.4534
     7.5009   7.5940   7.6284   7.7045   7.7268   7.7813   7.8001   7.8711
     7.8910   7.9654   8.1016   8.1043   8.5342   9.2466  10.1832  10.8347
    12.7422  13.5021

     occupation numbers 
     1.0000   1.0000   1.0000   1.0000   1.0000   1.0000   1.0000   1.0000
     1.0000   1.0000   1.0000   1.0000   1.0000   1.0000   1.0000   1.0000
     1.0000   1.0000   1.0000   1.0000   1.0000   1.0000   1.0000   1.0000
     1.0000   1.0000   1.0000   1.0000   1.0000   1.0000   1.0000   1.0000
     1.0000   1.0000   1.0000   1.0000   1.0000   1.0000   1.0000   1.0000
     1.0000   1.0000   1.0000   1.0000   1.0000   1.0000   1.0000   1.0000
     1.0000   1.0000   1.0000   1.0000   1.0000   1.0000   1.0000   1.0000
     1.0000   1.0000   1.0000   1.0000   1.0000   1.0000   1.0000   1.0000
     1.0000   1.0000   1.0000   1.0000   1.0000   1.0000   1.0000   1.0000
     1.0000   1.0000   1.0000   1.0000   1.0000   1.0000   1.0000   1.0000
     1.0000   1.0000   1.0000   1.0000   1.0000   1.0000   0.0000   0.0000
     0.0000   0.0000

          k = 0.3333 0.0000 0.2363 (  6479 PWs)   bands (ev):

   -16.8210 -16.8085 -16.7952 -16.7849 -13.3101 -13.3099 -13.3028 -13.2944
   -13.0320 -13.0249 -13.0248 -13.0190 -12.9913 -12.9910 -12.9856 -12.9855
   -12.9790 -12.9789 -12.9194 -12.9191 -12.9144 -12.9142 -12.9062 -12.9059
    -8.7563  -8.6437  -8.1998  -8.1046  -7.6378  -7.6118  -7.5661  -7.5422
    -7.1900  -7.0445  -7.0262  -7.0175  -2.1300  -2.0646  -2.0415  -2.0398
    -1.9922  -1.9752  -1.9694  -1.9602  -1.9375  -1.9182  -1.8872  -1.8769
    -1.2090  -0.5648   0.1214   0.7511   4.7622   4.7913   4.8447   5.0705
     5.2816   5.7110   6.2489   6.2634   6.2958   6.3821   6.4293   6.5786
     6.9819   7.0838   7.0929   7.1945   7.2974   7.3162   7.3988   7.4372
     7.5667   7.6295   7.6604   7.6735   7.6892   7.8228   7.8815   7.9086
     7.9291   7.9793   8.0842   8.0970   8.5421   8.8730   9.9343  10.2517
    13.3893  13.6356

     occupation numbers 
     1.0000   1.0000   1.0000   1.0000   1.0000   1.0000   1.0000   1.0000
     1.0000   1.0000   1.0000   1.0000   1.0000   1.0000   1.0000   1.0000
     1.0000   1.0000   1.0000   1.0000   1.0000   1.0000   1.0000   1.0000
     1.0000   1.0000   1.0000   1.0000   1.0000   1.0000   1.0000   1.0000
     1.0000   1.0000   1.0000   1.0000   1.0000   1.0000   1.0000   1.0000
     1.0000   1.0000   1.0000   1.0000   1.0000   1.0000   1.0000   1.0000
     1.0000   1.0000   1.0000   1.0000   1.0000   1.0000   1.0000   1.0000
     1.0000   1.0000   1.0000   1.0000   1.0000   1.0000   1.0000   1.0000
     1.0000   1.0000   1.0000   1.0000   1.0000   1.0000   1.0000   1.0000
     1.0000   1.0000   1.0000   1.0000   1.0000   1.0000   1.0000   1.0000
     1.0000   1.0000   1.0000   1.0000   1.0000   1.0000   0.0000   0.0000
     0.0000   0.0000

          k = 0.3333 0.3314-0.2348 (  6453 PWs)   bands (ev):

   -16.8137 -16.8027 -16.8000 -16.7902 -13.3196 -13.3111 -13.3028 -13.2972
   -13.0370 -13.0274 -13.0193 -13.0051 -12.9914 -12.9911 -12.9857 -12.9853
   -12.9784 -12.9779 -12.9193 -12.9192 -12.9144 -12.9143 -12.9055 -12.9053
    -8.6769  -8.5881  -8.1509  -8.0320  -7.8176  -7.8100  -7.6033  -7.5795
    -7.2370  -7.1543  -6.9744  -6.8773  -2.1103  -2.0604  -2.0322  -2.0052
    -1.9619  -1.9589  -1.9446  -1.9282  -1.9044  -1.8951  -1.8674  -1.8578
    -0.7892  -0.2475   0.0061   0.5603   4.2243   4.3297   4.8344   4.9362
     5.2537   5.3091   6.2103   6.2676   6.2757   6.3835   6.4243   6.5166
     6.9271   7.0223   7.1468   7.1984   7.3061   7.3513   7.4334   7.4670
     7.5525   7.5538   7.6239   7.6739   7.7112   7.7343   7.7933   7.8451
     7.8955   8.0154   8.1166   8.1870   8.9184   9.2529  10.1935  10.4984
    13.3765  13.6156

     occupation numbers 
     1.0000   1.0000   1.0000   1.0000   1.0000   1.0000   1.0000   1.0000
     1.0000   1.0000   1.0000   1.0000   1.0000   1.0000   1.0000   1.0000
     1.0000   1.0000   1.0000   1.0000   1.0000   1.0000   1.0000   1.0000
     1.0000   1.0000   1.0000   1.0000   1.0000   1.0000   1.0000   1.0000
     1.0000   1.0000   1.0000   1.0000   1.0000   1.0000   1.0000   1.0000
     1.0000   1.0000   1.0000   1.0000   1.0000   1.0000   1.0000   1.0000
     1.0000   1.0000   1.0000   1.0000   1.0000   1.0000   1.0000   1.0000
     1.0000   1.0000   1.0000   1.0000   1.0000   1.0000   1.0000   1.0000
     1.0000   1.0000   1.0000   1.0000   1.0000   1.0000   1.0000   1.0000
     1.0000   1.0000   1.0000   1.0000   1.0000   1.0000   1.0000   1.0000
     1.0000   1.0000   1.0000   1.0000   1.0000   1.0000   0.0000   0.0000
     0.0000   0.0000

          k = 0.3333 0.3314 0.0015 (  6469 PWs)   bands (ev):

   -16.8192 -16.8060 -16.7961 -16.7851 -13.3306 -13.3158 -13.3090 -13.2998
   -13.0398 -13.0311 -13.0051 -12.9916 -12.9911 -12.9899 -12.9856 -12.9850
   -12.9774 -12.9746 -12.9194 -12.9191 -12.9145 -12.9142 -12.9051 -12.9046
    -8.7151  -8.5673  -8.0353  -7.8339  -7.8225  -7.8013  -7.7569  -7.7258
    -7.3756  -7.2584  -6.8689  -6.7572  -2.1288  -2.0433  -2.0376  -1.9827
    -1.9747  -1.9670  -1.9505  -1.9380  -1.9253  -1.8889  -1.8500  -1.8418
    -1.0248  -0.3467   0.3225   1.0587   4.1711   4.2321   4.2786   4.4232
     5.0056   5.2468   6.2462   6.3186   6.3432   6.4264   6.5089   6.9124
     6.9932   7.0292   7.2216   7.2907   7.3288   7.3529   7.3796   7.5094
     7.5502   7.5588   7.6027   7.6549   7.7091   7.7312   7.7839   7.8396
     7.8534   7.9429   8.1893   8.2101   8.8313   9.4630  10.5404  11.1332
    13.1217  13.1903

     occupation numbers 
     1.0000   1.0000   1.0000   1.0000   1.0000   1.0000   1.0000   1.0000
     1.0000   1.0000   1.0000   1.0000   1.0000   1.0000   1.0000   1.0000
     1.0000   1.0000   1.0000   1.0000   1.0000   1.0000   1.0000   1.0000
     1.0000   1.0000   1.0000   1.0000   1.0000   1.0000   1.0000   1.0000
     1.0000   1.0000   1.0000   1.0000   1.0000   1.0000   1.0000   1.0000
     1.0000   1.0000   1.0000   1.0000   1.0000   1.0000   1.0000   1.0000
     1.0000   1.0000   1.0000   1.0000   1.0000   1.0000   1.0000   1.0000
     1.0000   1.0000   1.0000   1.0000   1.0000   1.0000   1.0000   1.0000
     1.0000   1.0000   1.0000   1.0000   1.0000   1.0000   1.0000   1.0000
     1.0000   1.0000   1.0000   1.0000   1.0000   1.0000   1.0000   1.0000
     1.0000   1.0000   1.0000   1.0000   1.0000   1.0000   0.0000   0.0000
     0.0000   0.0000

          k = 0.3333 0.3314-0.4711 (  6450 PWs)   bands (ev):

   -16.8135 -16.8038 -16.7990 -16.7903 -13.3197 -13.3114 -13.3023 -13.2971
   -13.0373 -13.0272 -13.0196 -13.0048 -12.9913 -12.9912 -12.9856 -12.9853
   -12.9782 -12.9780 -12.9194 -12.9192 -12.9145 -12.9142 -12.9056 -12.9053
    -8.6692  -8.5927  -8.1416  -8.0655  -7.8194  -7.8071  -7.6122  -7.5298
    -7.2517  -7.1547  -6.9697  -6.8879  -2.1028  -2.0651  -2.0285  -1.9965
    -1.9688  -1.9576  -1.9476  -1.9292  -1.9102  -1.8922  -1.8675  -1.8627
    -0.7884  -0.2492   0.0103   0.5616   4.2226   4.3345   4.8274   5.0186
     5.1322   5.3133   6.1820   6.2929   6.3299   6.3963   6.4270   6.5275
     6.9184   7.0415   7.1300   7.1658   7.3096   7.3692   7.4247   7.4405
     7.4989   7.5826   7.6297   7.6697   7.7023   7.7578   7.8124   7.8745
     7.9163   8.0026   8.0970   8.1975   8.8848   9.2646  10.1810  10.5224
    13.3214  13.6987

     occupation numbers 
     1.0000   1.0000   1.0000   1.0000   1.0000   1.0000   1.0000   1.0000
     1.0000   1.0000   1.0000   1.0000   1.0000   1.0000   1.0000   1.0000
     1.0000   1.0000   1.0000   1.0000   1.0000   1.0000   1.0000   1.0000
     1.0000   1.0000   1.0000   1.0000   1.0000   1.0000   1.0000   1.0000
     1.0000   1.0000   1.0000   1.0000   1.0000   1.0000   1.0000   1.0000
     1.0000   1.0000   1.0000   1.0000   1.0000   1.0000   1.0000   1.0000
     1.0000   1.0000   1.0000   1.0000   1.0000   1.0000   1.0000   1.0000
     1.0000   1.0000   1.0000   1.0000   1.0000   1.0000   1.0000   1.0000
     1.0000   1.0000   1.0000   1.0000   1.0000   1.0000   1.0000   1.0000
     1.0000   1.0000   1.0000   1.0000   1.0000   1.0000   1.0000   1.0000
     1.0000   1.0000   1.0000   1.0000   1.0000   1.0000   0.0000   0.0000
     0.0000   0.0000

     highest occupied, lowest unoccupied level (ev):     9.4630    9.8269

!    total energy              =   -2985.98368512 Ry
     estimated scf accuracy    <       0.00000009 Ry

     The total energy is the sum of the following terms:
     one-electron contribution =    -333.69542850 Ry
     hartree contribution      =     285.55577256 Ry
     xc contribution           =    -429.29715466 Ry
     ewald contribution        =    -894.34858740 Ry
     one-center paw contrib.   =   -1614.19828712 Ry
      -> PAW hartree energy AE =      85.92656474 Ry
      -> PAW hartree energy PS =     -85.59049951 Ry
      -> PAW xc energy AE      =   -1182.65248803 Ry
      -> PAW xc energy PS      =      57.45233977 Ry
      -> total E_H with PAW    =     285.89183780 Ry
      -> total E_XC with PAW   =   -1554.49730291 Ry

     convergence has been achieved in  13 iterations

     Writing all to output data dir calculations_bands/myprefix.save/
 
     init_run     :     13.32s CPU      4.74s WALL (       1 calls)
     electrons    :    111.36s CPU     30.49s WALL (       1 calls)

     Called by init_run:
     wfcinit      :      2.02s CPU      0.53s WALL (       1 calls)
     wfcinit:atom :      0.02s CPU      0.00s WALL (       5 calls)
     wfcinit:wfcr :      1.83s CPU      0.48s WALL (       5 calls)
     potinit      :      5.09s CPU      1.49s WALL (       1 calls)
     hinit0       :      5.17s CPU      2.19s WALL (       1 calls)

     Called by electrons:
     c_bands      :     73.10s CPU     19.84s WALL (      13 calls)
     sum_band     :     14.65s CPU      4.15s WALL (      13 calls)
     v_of_rho     :      1.75s CPU      0.48s WALL (      14 calls)
     v_h          :      0.12s CPU      0.03s WALL (      14 calls)
     v_xc         :      1.62s CPU      0.45s WALL (      14 calls)
     newd         :      7.06s CPU      2.13s WALL (      14 calls)
     PAW_pot      :     14.67s CPU      3.84s WALL (      14 calls)
     mix_rho      :      0.42s CPU      0.12s WALL (      13 calls)

     Called by c_bands:
     init_us_2    :      0.31s CPU      0.08s WALL (     135 calls)
     init_us_2:cp :      0.30s CPU      0.08s WALL (     135 calls)
     cegterg      :     59.84s CPU     15.96s WALL (      65 calls)

     Called by sum_band:
     sum_band:wei :      0.04s CPU      0.01s WALL (      13 calls)
     sum_band:loo :      8.43s CPU      2.19s WALL (      13 calls)
     sum_band:buf :      0.11s CPU      0.03s WALL (      65 calls)
     sum_band:ini :      0.14s CPU      0.04s WALL (      65 calls)
     sum_band:cal :      1.14s CPU      0.29s WALL (      65 calls)
     sum_band:bec :      0.06s CPU      0.01s WALL (      65 calls)
     addusdens    :      3.68s CPU      1.29s WALL (      13 calls)
     addusd:skk   :      0.03s CPU      0.01s WALL (      39 calls)
     addusd:dgemm :      0.46s CPU      0.40s WALL (      39 calls)
     addusd:qvan2 :      1.70s CPU      0.43s WALL (      39 calls)

     Called by *egterg:
     cdiaghg      :      9.12s CPU      2.45s WALL (     288 calls)
     cegterg:over :      2.96s CPU      0.79s WALL (     223 calls)
     cegterg:upda :      1.25s CPU      0.33s WALL (     223 calls)
     cegterg:last :      2.58s CPU      0.68s WALL (     149 calls)
     cdiaghg:chol :      0.66s CPU      0.18s WALL (     288 calls)
     cdiaghg:inve :      0.12s CPU      0.03s WALL (     288 calls)
     cdiaghg:para :      1.48s CPU      0.41s WALL (     576 calls)
     h_psi        :     42.80s CPU     11.38s WALL (     293 calls)
     s_psi        :      1.27s CPU      0.33s WALL (     293 calls)
     g_psi        :      0.08s CPU      0.02s WALL (     223 calls)

     Called by h_psi:
     h_psi:calbec :      2.93s CPU      0.78s WALL (     293 calls)
     vloc_psi     :     38.38s CPU     10.20s WALL (     293 calls)
     add_vuspsi   :      1.40s CPU      0.36s WALL (     293 calls)

     General routines
     calbec       :      4.05s CPU      1.07s WALL (     358 calls)
     fft          :      2.54s CPU      0.80s WALL (     180 calls)
     ffts         :      1.30s CPU      0.37s WALL (      27 calls)
     fftw         :     40.59s CPU     10.75s WALL (   38334 calls)
     interpolate  :      1.40s CPU      0.40s WALL (      14 calls)
 
     Parallel routines

     PAW routines
     PAW_pot      :     14.67s CPU      3.84s WALL (      14 calls)
     PAW_symme    :      0.58s CPU      0.15s WALL (      27 calls)
 
     PWSCF        :   2m 5.75s CPU     36.05s WALL

 
   This run was terminated on:   7: 5:25  23Jun2023            

=------------------------------------------------------------------------------=
   JOB DONE.
=------------------------------------------------------------------------------=
