
     Program PWSCF v.7.0 starts on 23Jun2023 at  3:54:27 

     This program is part of the open-source Quantum ESPRESSO suite
     for quantum simulation of materials; please cite
         "P. Giannozzi et al., J. Phys.:Condens. Matter 21 395502 (2009);
         "P. Giannozzi et al., J. Phys.:Condens. Matter 29 465901 (2017);
         "P. Giannozzi et al., J. Chem. Phys. 152 154105 (2020);
          URL http://www.quantum-espresso.org", 
     in publications or presentations arising from this work. More details at
     http://www.quantum-espresso.org/quote

     Parallel version (MPI & OpenMP), running on      32 processor cores
     Number of MPI processes:                 8
     Threads/MPI process:                     4

     MPI processes distributed on     1 nodes
     K-points division:     npool     =       2
     R & G space division:  proc/nbgrp/npool/nimage =       4
     96521 MiB available memory on the printing compute node when the environment starts
 
     Reading input from espresso_2060.pwi
Warning: card &CELL ignored
Warning: card / ignored

     Current dimensions of program PWSCF are:
     Max number of different atomic species (ntypx) = 10
     Max number of k-points (npk) =  40000
     Max angular momentum in pseudopotentials (lmaxx) =  4
     file Ga.pbe-dn-kjpaw_psl.1.0.0.UPF: wavefunction(s)  4S renormalized
     Message from routine setup:
     using ibrav=0 with symmetry is DISCOURAGED, use correct ibrav instead

     Subspace diagonalization in iterative solution of the eigenvalue problem:
     one sub-group per band group will be used
     scalapack distributed-memory algorithm (size of sub-group:  2*  2 procs)

 
     Parallelization info
     --------------------
     sticks:   dense  smooth     PW     G-vecs:    dense   smooth      PW
     Min         326     164     45                22078     7802    1186
     Max         327     165     47                22087     7809    1189
     Sum        1305     657    185                88325    31217    4751
 
     Using Slab Decomposition
 


     bravais-lattice index     =            0
     lattice parameter (alat)  =       8.2445  a.u.
     unit-cell volume          =    1405.2792 (a.u.)^3
     number of atoms/cell      =           10
     number of atomic types    =            3
     number of electrons       =       144.00
     number of Kohn-Sham states=           90
     kinetic-energy cutoff     =      30.0000  Ry
     charge density cutoff     =     240.0000  Ry
     scf convergence threshold =      1.0E-06
     mixing beta               =       0.7000
     number of iterations used =            8  plain     mixing
     Exchange-correlation= PBE
                           (   1   4   3   4   0   0   0)

     celldm(1)=   8.244495  celldm(2)=   0.000000  celldm(3)=   0.000000
     celldm(4)=   0.000000  celldm(5)=   0.000000  celldm(6)=   0.000000

     crystal axes: (cart. coord. in units of alat)
               a(1) = (   1.000000   0.000000   0.000000 )  
               a(2) = (   0.000000   1.000000   0.000000 )  
               a(3) = (   0.000000   0.000000   2.507670 )  

     reciprocal axes: (cart. coord. in units 2 pi/alat)
               b(1) = (  1.000000  0.000000  0.000000 )  
               b(2) = (  0.000000  1.000000  0.000000 )  
               b(3) = (  0.000000  0.000000  0.398777 )  


     PseudoPot. # 1 for Eu read from file:
     /home/pragov/projects/rrg-bengioy-ad/pragov/crystal_structure_design/SSSP/Eu.GGA-PBE-paw-v1.0.UPF
     MD5 check sum: acec5fd9176fb57ec8e299eae1ecaf48
     Pseudo is Projector augmented-wave + core cor, Zval = 17.0
     Generated using ATOMPAW code
     Shape of augmentation charge: BESSEL
     Using radial grid of 1109 points,  8 beta functions with: 
                l(1) =   0
                l(2) =   0
                l(3) =   1
                l(4) =   1
                l(5) =   2
                l(6) =   2
                l(7) =   3
                l(8) =   3
     Q(r) pseudized with 0 coefficients 


     PseudoPot. # 2 for Ga read from file:
     /home/pragov/projects/rrg-bengioy-ad/pragov/crystal_structure_design/SSSP/Ga.pbe-dn-kjpaw_psl.1.0.0.UPF
     MD5 check sum: a27b4342b1af7e5f338de752e9ed7044
     Pseudo is Projector augmented-wave + core cor, Zval = 13.0
     Generated using "atomic" code by A. Dal Corso  v.5.1
     Shape of augmentation charge: PSQ
     Using radial grid of 1205 points,  6 beta functions with: 
                l(1) =   0
                l(2) =   0
                l(3) =   1
                l(4) =   1
                l(5) =   2
                l(6) =   2
     Q(r) pseudized with 0 coefficients 


     PseudoPot. # 3 for Ag read from file:
     /home/pragov/projects/rrg-bengioy-ad/pragov/crystal_structure_design/SSSP/Ag_ONCV_PBE-1.0.oncvpsp.upf
     MD5 check sum: 94f47bd0669c641108e45594df92fabc
     Pseudo is Norm-conserving, Zval = 19.0
     Generated using ONCVPSP code by D. R. Hamann
     Using radial grid of 1398 points,  6 beta functions with: 
                l(1) =   0
                l(2) =   0
                l(3) =   1
                l(4) =   1
                l(5) =   2
                l(6) =   2

     atomic species   valence    mass     pseudopotential
        Eu            17.00   151.96400     Eu( 1.00)
        Ga            13.00    69.72300     Ga( 1.00)
        Ag            19.00   107.86820     Ag( 1.00)

      8 Sym. Ops. (no inversion) found


                                    s                        frac. trans.

      isym =  1     identity                                     

 cryst.   s( 1) = (     1          0          0      )
                  (     0          1          0      )
                  (     0          0          1      )

 cart.    s( 1) = (  1.0000000  0.0000000  0.0000000 )
                  (  0.0000000  1.0000000  0.0000000 )
                  (  0.0000000  0.0000000  1.0000000 )


      isym =  2     180 deg rotation - cart. axis [0,0,1]        

 cryst.   s( 2) = (    -1          0          0      )
                  (     0         -1          0      )
                  (     0          0          1      )

 cart.    s( 2) = ( -1.0000000  0.0000000  0.0000000 )
                  (  0.0000000 -1.0000000  0.0000000 )
                  (  0.0000000  0.0000000  1.0000000 )


      isym =  3     180 deg rotation - cart. axis [1,1,0]        

 cryst.   s( 3) = (     0          1          0      )
                  (     1          0          0      )
                  (     0          0         -1      )

 cart.    s( 3) = (  0.0000000  1.0000000  0.0000000 )
                  (  1.0000000  0.0000000  0.0000000 )
                  (  0.0000000  0.0000000 -1.0000000 )


      isym =  4     180 deg rotation - cart. axis [1,-1,0]       

 cryst.   s( 4) = (     0         -1          0      )
                  (    -1          0          0      )
                  (     0          0         -1      )

 cart.    s( 4) = (  0.0000000 -1.0000000  0.0000000 )
                  ( -1.0000000  0.0000000  0.0000000 )
                  (  0.0000000  0.0000000 -1.0000000 )


      isym =  5     inv. 180 deg rotation - cart. axis [0,1,0]   

 cryst.   s( 5) = (     1          0          0      )
                  (     0         -1          0      )
                  (     0          0          1      )

 cart.    s( 5) = (  1.0000000  0.0000000  0.0000000 )
                  (  0.0000000 -1.0000000  0.0000000 )
                  (  0.0000000  0.0000000  1.0000000 )


      isym =  6     inv. 180 deg rotation - cart. axis [1,0,0]   

 cryst.   s( 6) = (    -1          0          0      )
                  (     0          1          0      )
                  (     0          0          1      )

 cart.    s( 6) = ( -1.0000000  0.0000000  0.0000000 )
                  (  0.0000000  1.0000000  0.0000000 )
                  (  0.0000000  0.0000000  1.0000000 )


      isym =  7     inv.  90 deg rotation - cart. axis [0,0,-1]  

 cryst.   s( 7) = (     0          1          0      )
                  (    -1          0          0      )
                  (     0          0         -1      )

 cart.    s( 7) = (  0.0000000 -1.0000000  0.0000000 )
                  (  1.0000000  0.0000000  0.0000000 )
                  (  0.0000000  0.0000000 -1.0000000 )


      isym =  8     inv.  90 deg rotation - cart. axis [0,0,1]   

 cryst.   s( 8) = (     0         -1          0      )
                  (     1          0          0      )
                  (     0          0         -1      )

 cart.    s( 8) = (  0.0000000  1.0000000  0.0000000 )
                  ( -1.0000000  0.0000000  0.0000000 )
                  (  0.0000000  0.0000000 -1.0000000 )


   Cartesian axes

     site n.     atom                  positions (alat units)
         1           Eu  tau(   1) = (   0.5000000   0.0000000   1.8780845  )
         2           Eu  tau(   2) = (   0.0000000   0.5000000   0.6295857  )
         3           Ga  tau(   3) = (   0.0000000   0.5000000   2.1677104  )
         4           Ga  tau(   4) = (   0.5000000   0.0000000   0.9129374  )
         5           Ga  tau(   5) = (   0.5000000   0.0000000   0.3399598  )
         6           Ga  tau(   6) = (   0.0000000   0.5000000   1.5947328  )
         7           Ga  tau(   7) = (   0.0000000   0.0000000   1.2538351  )
         8           Ga  tau(   8) = (   0.0000000   0.0000000   0.0000000  )
         9           Ga  tau(   9) = (   0.5000000   0.5000000   1.2538351  )
        10           Ag  tau(  10) = (   0.5000000   0.5000000   0.0000000  )

   Crystallographic axes

     site n.     atom                  positions (cryst. coord.)
         1           Eu  tau(   1) = (  0.5000000  0.0000000  0.7489360  )
         2           Eu  tau(   2) = (  0.0000000  0.5000000  0.2510640  )
         3           Ga  tau(   3) = (  0.0000000  0.5000000  0.8644320  )
         4           Ga  tau(   4) = (  0.5000000  0.0000000  0.3640580  )
         5           Ga  tau(   5) = (  0.5000000  0.0000000  0.1355680  )
         6           Ga  tau(   6) = (  0.0000000  0.5000000  0.6359420  )
         7           Ga  tau(   7) = (  0.0000000  0.0000000  0.5000000  )
         8           Ga  tau(   8) = (  0.0000000  0.0000000  0.0000000  )
         9           Ga  tau(   9) = (  0.5000000  0.5000000  0.5000000  )
        10           Ag  tau(  10) = (  0.5000000  0.5000000  0.0000000  )

     number of k points=     6
                       cart. coord. in units 2pi/alat
        k(    1) = (   0.0000000   0.0000000   0.0000000), wk =   0.0740741
        k(    2) = (   0.0000000   0.0000000   0.1329255), wk =   0.1481481
        k(    3) = (   0.0000000   0.3333333   0.0000000), wk =   0.2962963
        k(    4) = (   0.0000000   0.3333333   0.1329255), wk =   0.5925926
        k(    5) = (   0.3333333   0.3333333   0.0000000), wk =   0.2962963
        k(    6) = (   0.3333333   0.3333333   0.1329255), wk =   0.5925926

                       cryst. coord.
        k(    1) = (   0.0000000   0.0000000   0.0000000), wk =   0.0740741
        k(    2) = (   0.0000000   0.0000000   0.3333333), wk =   0.1481481
        k(    3) = (   0.0000000   0.3333333   0.0000000), wk =   0.2962963
        k(    4) = (   0.0000000   0.3333333   0.3333333), wk =   0.5925926
        k(    5) = (   0.3333333   0.3333333   0.0000000), wk =   0.2962963
        k(    6) = (   0.3333333   0.3333333   0.3333333), wk =   0.5925926

     Dense  grid:    88325 G-vectors     FFT dimensions: (  45,  45, 108)

     Smooth grid:    31217 G-vectors     FFT dimensions: (  30,  30,  75)

     Dynamical RAM for                 wfc:       1.34 MB

     Dynamical RAM for     wfc (w. buffer):       5.35 MB

     Dynamical RAM for           str. fact:       1.01 MB

     Dynamical RAM for           local pot:       0.00 MB

     Dynamical RAM for          nlocal pot:       3.09 MB

     Dynamical RAM for                qrad:       8.96 MB

     Dynamical RAM for          rho,v,vnew:       2.26 MB

     Dynamical RAM for               rhoin:       0.75 MB

     Dynamical RAM for            rho*nmix:       5.39 MB

     Dynamical RAM for           G-vectors:       1.32 MB

     Dynamical RAM for          h,s,v(r/c):       0.37 MB

     Dynamical RAM for          <psi|beta>:       0.29 MB

     Dynamical RAM for                 psi:       2.68 MB

     Dynamical RAM for                hpsi:       2.68 MB

     Dynamical RAM for                spsi:       2.68 MB

     Dynamical RAM for      wfcinit/wfcrot:       4.50 MB

     Dynamical RAM for           addusdens:      94.84 MB

     Estimated static dynamical RAM per process >      26.18 MB

     Estimated max dynamical RAM per process >     126.41 MB

     Estimated total dynamical RAM >     989.75 MB

     Check: negative core charge=   -0.000002

     Initial potential from superposition of free atoms

     starting charge     143.9696, renormalised to     144.0000
     Starting wfcs are  137 randomized atomic wfcs
     Checking if some PAW data can be deallocated... 
       PAW data deallocated on    7 nodes for type:  1
       PAW data deallocated on    2 nodes for type:  2

     total cpu time spent up to now is        3.0 secs

     Self-consistent Calculation

     iteration #  1     ecut=    30.00 Ry     beta= 0.70
     Davidson diagonalization with overlap

---- Real-time Memory Report at c_bands before calling an iterative solver
           259 MiB given to the printing process from OS
             0 MiB allocation reported by mallinfo(arena+hblkhd)
         95801 MiB available memory on the node where the printing process lives
------------------
     ethr =  1.00E-02,  avg # of iterations =  2.0

     total cpu time spent up to now is        4.8 secs

     total energy              =   -3475.74106943 Ry
     estimated scf accuracy    <      33.71193596 Ry

     iteration #  2     ecut=    30.00 Ry     beta= 0.70
     Davidson diagonalization with overlap

---- Real-time Memory Report at c_bands before calling an iterative solver
           325 MiB given to the printing process from OS
             0 MiB allocation reported by mallinfo(arena+hblkhd)
         95579 MiB available memory on the node where the printing process lives
------------------
     ethr =  1.00E-02,  avg # of iterations =  6.7

     total cpu time spent up to now is        6.6 secs

     total energy              =   -3523.05558134 Ry
     estimated scf accuracy    <     313.24838697 Ry

     iteration #  3     ecut=    30.00 Ry     beta= 0.70
     Davidson diagonalization with overlap

---- Real-time Memory Report at c_bands before calling an iterative solver
           338 MiB given to the printing process from OS
             0 MiB allocation reported by mallinfo(arena+hblkhd)
         95469 MiB available memory on the node where the printing process lives
------------------
     ethr =  1.00E-02,  avg # of iterations =  4.0

     total cpu time spent up to now is        8.3 secs

     total energy              =   -3529.73185344 Ry
     estimated scf accuracy    <      81.80746786 Ry

     iteration #  4     ecut=    30.00 Ry     beta= 0.70
     Davidson diagonalization with overlap

---- Real-time Memory Report at c_bands before calling an iterative solver
           341 MiB given to the printing process from OS
             0 MiB allocation reported by mallinfo(arena+hblkhd)
         95457 MiB available memory on the node where the printing process lives
------------------
     ethr =  1.00E-02,  avg # of iterations =  2.0

     total cpu time spent up to now is        9.6 secs

     total energy              =   -3524.85388392 Ry
     estimated scf accuracy    <      69.85438342 Ry

     iteration #  5     ecut=    30.00 Ry     beta= 0.70
     Davidson diagonalization with overlap

---- Real-time Memory Report at c_bands before calling an iterative solver
           341 MiB given to the printing process from OS
             0 MiB allocation reported by mallinfo(arena+hblkhd)
         95455 MiB available memory on the node where the printing process lives
------------------
     ethr =  1.00E-02,  avg # of iterations =  1.0

     total cpu time spent up to now is       11.1 secs

     total energy              =   -3518.40281502 Ry
     estimated scf accuracy    <      57.21059949 Ry

     iteration #  6     ecut=    30.00 Ry     beta= 0.70
     Davidson diagonalization with overlap

---- Real-time Memory Report at c_bands before calling an iterative solver
           341 MiB given to the printing process from OS
             0 MiB allocation reported by mallinfo(arena+hblkhd)
         95456 MiB available memory on the node where the printing process lives
------------------
     ethr =  1.00E-02,  avg # of iterations =  2.8

     total cpu time spent up to now is       12.7 secs

     total energy              =   -3507.64175358 Ry
     estimated scf accuracy    <      44.41938054 Ry

     iteration #  7     ecut=    30.00 Ry     beta= 0.70
     Davidson diagonalization with overlap

---- Real-time Memory Report at c_bands before calling an iterative solver
           341 MiB given to the printing process from OS
             0 MiB allocation reported by mallinfo(arena+hblkhd)
         95453 MiB available memory on the node where the printing process lives
------------------
     ethr =  1.00E-02,  avg # of iterations =  3.0

     total cpu time spent up to now is       14.2 secs

     total energy              =   -3520.85576524 Ry
     estimated scf accuracy    <      80.01011067 Ry

     iteration #  8     ecut=    30.00 Ry     beta= 0.70
     Davidson diagonalization with overlap

---- Real-time Memory Report at c_bands before calling an iterative solver
           344 MiB given to the printing process from OS
             0 MiB allocation reported by mallinfo(arena+hblkhd)
         95475 MiB available memory on the node where the printing process lives
------------------
     ethr =  1.00E-02,  avg # of iterations =  1.0

     total cpu time spent up to now is       15.5 secs

     total energy              =   -3514.00055142 Ry
     estimated scf accuracy    <      73.73506043 Ry

     iteration #  9     ecut=    30.00 Ry     beta= 0.70
     Davidson diagonalization with overlap

---- Real-time Memory Report at c_bands before calling an iterative solver
           344 MiB given to the printing process from OS
             0 MiB allocation reported by mallinfo(arena+hblkhd)
         95476 MiB available memory on the node where the printing process lives
------------------
     ethr =  1.00E-02,  avg # of iterations =  1.0

     total cpu time spent up to now is       16.9 secs

     total energy              =   -3516.86393303 Ry
     estimated scf accuracy    <       0.32203365 Ry

     iteration # 10     ecut=    30.00 Ry     beta= 0.70
     Davidson diagonalization with overlap

---- Real-time Memory Report at c_bands before calling an iterative solver
           344 MiB given to the printing process from OS
             0 MiB allocation reported by mallinfo(arena+hblkhd)
         95475 MiB available memory on the node where the printing process lives
------------------
     ethr =  2.24E-04,  avg # of iterations =  6.7

     total cpu time spent up to now is       18.9 secs

     total energy              =   -3517.28034986 Ry
     estimated scf accuracy    <      15.40778381 Ry

     iteration # 11     ecut=    30.00 Ry     beta= 0.70
     Davidson diagonalization with overlap

---- Real-time Memory Report at c_bands before calling an iterative solver
           346 MiB given to the printing process from OS
             0 MiB allocation reported by mallinfo(arena+hblkhd)
         95460 MiB available memory on the node where the printing process lives
------------------
     ethr =  2.24E-04,  avg # of iterations =  1.2

     total cpu time spent up to now is       20.2 secs

     total energy              =   -3516.98136526 Ry
     estimated scf accuracy    <      12.24011565 Ry

     iteration # 12     ecut=    30.00 Ry     beta= 0.70
     Davidson diagonalization with overlap

---- Real-time Memory Report at c_bands before calling an iterative solver
           346 MiB given to the printing process from OS
             0 MiB allocation reported by mallinfo(arena+hblkhd)
         95461 MiB available memory on the node where the printing process lives
------------------
     ethr =  2.24E-04,  avg # of iterations =  2.0

     total cpu time spent up to now is       21.5 secs

     total energy              =   -3517.51972297 Ry
     estimated scf accuracy    <       5.37977532 Ry

     iteration # 13     ecut=    30.00 Ry     beta= 0.70
     Davidson diagonalization with overlap

---- Real-time Memory Report at c_bands before calling an iterative solver
           346 MiB given to the printing process from OS
             0 MiB allocation reported by mallinfo(arena+hblkhd)
         95462 MiB available memory on the node where the printing process lives
------------------
     ethr =  2.24E-04,  avg # of iterations =  3.0

     total cpu time spent up to now is       23.0 secs

     total energy              =   -3517.21655963 Ry
     estimated scf accuracy    <      26.92908296 Ry

     iteration # 14     ecut=    30.00 Ry     beta= 0.70
     Davidson diagonalization with overlap

---- Real-time Memory Report at c_bands before calling an iterative solver
           346 MiB given to the printing process from OS
             0 MiB allocation reported by mallinfo(arena+hblkhd)
         95462 MiB available memory on the node where the printing process lives
------------------
     ethr =  2.24E-04,  avg # of iterations =  2.7

     total cpu time spent up to now is       24.5 secs

     total energy              =   -3516.18046358 Ry
     estimated scf accuracy    <      12.58998157 Ry

     iteration # 15     ecut=    30.00 Ry     beta= 0.70
     Davidson diagonalization with overlap

---- Real-time Memory Report at c_bands before calling an iterative solver
           346 MiB given to the printing process from OS
             0 MiB allocation reported by mallinfo(arena+hblkhd)
         95457 MiB available memory on the node where the printing process lives
------------------
     ethr =  2.24E-04,  avg # of iterations =  4.7

     total cpu time spent up to now is       26.1 secs

     total energy              =   -3516.87030785 Ry
     estimated scf accuracy    <       0.79585122 Ry

     iteration # 16     ecut=    30.00 Ry     beta= 0.70
     Davidson diagonalization with overlap

---- Real-time Memory Report at c_bands before calling an iterative solver
           346 MiB given to the printing process from OS
             0 MiB allocation reported by mallinfo(arena+hblkhd)
         95457 MiB available memory on the node where the printing process lives
------------------
     ethr =  2.24E-04,  avg # of iterations =  1.0

     total cpu time spent up to now is       27.8 secs

     total energy              =   -3516.89977723 Ry
     estimated scf accuracy    <       0.70661423 Ry

     iteration # 17     ecut=    30.00 Ry     beta= 0.70
     Davidson diagonalization with overlap

---- Real-time Memory Report at c_bands before calling an iterative solver
           346 MiB given to the printing process from OS
             0 MiB allocation reported by mallinfo(arena+hblkhd)
         95446 MiB available memory on the node where the printing process lives
------------------
     ethr =  2.24E-04,  avg # of iterations =  1.0

     total cpu time spent up to now is       29.4 secs

     total energy              =   -3516.15100841 Ry
     estimated scf accuracy    <       0.94579817 Ry

     iteration # 18     ecut=    30.00 Ry     beta= 0.70
     Davidson diagonalization with overlap

---- Real-time Memory Report at c_bands before calling an iterative solver
           346 MiB given to the printing process from OS
             0 MiB allocation reported by mallinfo(arena+hblkhd)
         95449 MiB available memory on the node where the printing process lives
------------------
     ethr =  2.24E-04,  avg # of iterations =  2.3

     total cpu time spent up to now is       31.0 secs

     total energy              =   -3516.85898477 Ry
     estimated scf accuracy    <       0.72068462 Ry

     iteration # 19     ecut=    30.00 Ry     beta= 0.70
     Davidson diagonalization with overlap

---- Real-time Memory Report at c_bands before calling an iterative solver
           347 MiB given to the printing process from OS
             0 MiB allocation reported by mallinfo(arena+hblkhd)
         95452 MiB available memory on the node where the printing process lives
------------------
     ethr =  2.24E-04,  avg # of iterations =  2.0

     total cpu time spent up to now is       32.4 secs

     total energy              =   -3516.69763018 Ry
     estimated scf accuracy    <       0.52580573 Ry

     iteration # 20     ecut=    30.00 Ry     beta= 0.70
     Davidson diagonalization with overlap

---- Real-time Memory Report at c_bands before calling an iterative solver
           347 MiB given to the printing process from OS
             0 MiB allocation reported by mallinfo(arena+hblkhd)
         95453 MiB available memory on the node where the printing process lives
------------------
     ethr =  2.24E-04,  avg # of iterations =  1.0

     total cpu time spent up to now is       33.8 secs

     total energy              =   -3516.71245744 Ry
     estimated scf accuracy    <       0.28229448 Ry

     iteration # 21     ecut=    30.00 Ry     beta= 0.70
     Davidson diagonalization with overlap

---- Real-time Memory Report at c_bands before calling an iterative solver
           347 MiB given to the printing process from OS
             0 MiB allocation reported by mallinfo(arena+hblkhd)
         95450 MiB available memory on the node where the printing process lives
------------------
     ethr =  1.96E-04,  avg # of iterations =  1.0

     total cpu time spent up to now is       35.0 secs

     total energy              =   -3516.70165749 Ry
     estimated scf accuracy    <       0.36385560 Ry

     iteration # 22     ecut=    30.00 Ry     beta= 0.70
     Davidson diagonalization with overlap

---- Real-time Memory Report at c_bands before calling an iterative solver
           347 MiB given to the printing process from OS
             0 MiB allocation reported by mallinfo(arena+hblkhd)
         95435 MiB available memory on the node where the printing process lives
------------------
     ethr =  1.96E-04,  avg # of iterations =  1.0

     total cpu time spent up to now is       36.3 secs

     total energy              =   -3516.67450420 Ry
     estimated scf accuracy    <       0.26521039 Ry

     iteration # 23     ecut=    30.00 Ry     beta= 0.70
     Davidson diagonalization with overlap

---- Real-time Memory Report at c_bands before calling an iterative solver
           347 MiB given to the printing process from OS
             0 MiB allocation reported by mallinfo(arena+hblkhd)
         95437 MiB available memory on the node where the printing process lives
------------------
     ethr =  1.84E-04,  avg # of iterations =  1.0

     total cpu time spent up to now is       37.6 secs

     total energy              =   -3516.66765125 Ry
     estimated scf accuracy    <       0.10857059 Ry

     iteration # 24     ecut=    30.00 Ry     beta= 0.70
     Davidson diagonalization with overlap

---- Real-time Memory Report at c_bands before calling an iterative solver
           347 MiB given to the printing process from OS
             0 MiB allocation reported by mallinfo(arena+hblkhd)
         95438 MiB available memory on the node where the printing process lives
------------------
     ethr =  7.54E-05,  avg # of iterations =  1.7

     total cpu time spent up to now is       38.9 secs

     total energy              =   -3516.72465861 Ry
     estimated scf accuracy    <       0.31122435 Ry

     iteration # 25     ecut=    30.00 Ry     beta= 0.70
     Davidson diagonalization with overlap

---- Real-time Memory Report at c_bands before calling an iterative solver
           347 MiB given to the printing process from OS
             0 MiB allocation reported by mallinfo(arena+hblkhd)
         95438 MiB available memory on the node where the printing process lives
------------------
     ethr =  7.54E-05,  avg # of iterations =  1.0

     total cpu time spent up to now is       40.3 secs

     total energy              =   -3516.74685987 Ry
     estimated scf accuracy    <       0.03845635 Ry

     iteration # 26     ecut=    30.00 Ry     beta= 0.70
     Davidson diagonalization with overlap

---- Real-time Memory Report at c_bands before calling an iterative solver
           347 MiB given to the printing process from OS
             0 MiB allocation reported by mallinfo(arena+hblkhd)
         95439 MiB available memory on the node where the printing process lives
------------------
     ethr =  2.67E-05,  avg # of iterations =  1.2

     total cpu time spent up to now is       41.5 secs

     total energy              =   -3516.73373537 Ry
     estimated scf accuracy    <       0.10202365 Ry

     iteration # 27     ecut=    30.00 Ry     beta= 0.70
     Davidson diagonalization with overlap

---- Real-time Memory Report at c_bands before calling an iterative solver
           347 MiB given to the printing process from OS
             0 MiB allocation reported by mallinfo(arena+hblkhd)
         95441 MiB available memory on the node where the printing process lives
------------------
     ethr =  2.67E-05,  avg # of iterations =  1.0

     total cpu time spent up to now is       42.7 secs

     total energy              =   -3516.74184872 Ry
     estimated scf accuracy    <       0.01157902 Ry

     iteration # 28     ecut=    30.00 Ry     beta= 0.70
     Davidson diagonalization with overlap

---- Real-time Memory Report at c_bands before calling an iterative solver
           347 MiB given to the printing process from OS
             0 MiB allocation reported by mallinfo(arena+hblkhd)
         95440 MiB available memory on the node where the printing process lives
------------------
     ethr =  8.04E-06,  avg # of iterations =  1.2

     total cpu time spent up to now is       44.3 secs

     total energy              =   -3516.74473984 Ry
     estimated scf accuracy    <       0.00331226 Ry

     iteration # 29     ecut=    30.00 Ry     beta= 0.70
     Davidson diagonalization with overlap

---- Real-time Memory Report at c_bands before calling an iterative solver
           347 MiB given to the printing process from OS
             0 MiB allocation reported by mallinfo(arena+hblkhd)
         95443 MiB available memory on the node where the printing process lives
------------------
     ethr =  2.30E-06,  avg # of iterations =  3.3

     total cpu time spent up to now is       45.9 secs

     total energy              =   -3516.74642777 Ry
     estimated scf accuracy    <       0.00196126 Ry

     iteration # 30     ecut=    30.00 Ry     beta= 0.70
     Davidson diagonalization with overlap

---- Real-time Memory Report at c_bands before calling an iterative solver
           347 MiB given to the printing process from OS
             0 MiB allocation reported by mallinfo(arena+hblkhd)
         95445 MiB available memory on the node where the printing process lives
------------------
     ethr =  1.36E-06,  avg # of iterations =  1.2

     total cpu time spent up to now is       47.7 secs

     total energy              =   -3516.74816920 Ry
     estimated scf accuracy    <       0.00158627 Ry

     iteration # 31     ecut=    30.00 Ry     beta= 0.70
     Davidson diagonalization with overlap

---- Real-time Memory Report at c_bands before calling an iterative solver
           347 MiB given to the printing process from OS
             0 MiB allocation reported by mallinfo(arena+hblkhd)
         95443 MiB available memory on the node where the printing process lives
------------------
     ethr =  1.10E-06,  avg # of iterations =  1.2

     total cpu time spent up to now is       49.3 secs

     total energy              =   -3516.74727628 Ry
     estimated scf accuracy    <       0.00263945 Ry

     iteration # 32     ecut=    30.00 Ry     beta= 0.70
     Davidson diagonalization with overlap

---- Real-time Memory Report at c_bands before calling an iterative solver
           347 MiB given to the printing process from OS
             0 MiB allocation reported by mallinfo(arena+hblkhd)
         95471 MiB available memory on the node where the printing process lives
------------------
     ethr =  1.10E-06,  avg # of iterations =  2.0

     total cpu time spent up to now is       50.6 secs

     total energy              =   -3516.74891932 Ry
     estimated scf accuracy    <       0.01107092 Ry

     iteration # 33     ecut=    30.00 Ry     beta= 0.70
     Davidson diagonalization with overlap

---- Real-time Memory Report at c_bands before calling an iterative solver
           347 MiB given to the printing process from OS
             0 MiB allocation reported by mallinfo(arena+hblkhd)
         95472 MiB available memory on the node where the printing process lives
------------------
     ethr =  1.10E-06,  avg # of iterations =  2.0

     total cpu time spent up to now is       51.8 secs

     total energy              =   -3516.74861689 Ry
     estimated scf accuracy    <       0.00182527 Ry

     iteration # 34     ecut=    30.00 Ry     beta= 0.70
     Davidson diagonalization with overlap

---- Real-time Memory Report at c_bands before calling an iterative solver
           347 MiB given to the printing process from OS
             0 MiB allocation reported by mallinfo(arena+hblkhd)
         95452 MiB available memory on the node where the printing process lives
------------------
     ethr =  1.10E-06,  avg # of iterations =  1.2

     total cpu time spent up to now is       53.1 secs

     total energy              =   -3516.74923681 Ry
     estimated scf accuracy    <       0.00071688 Ry

     iteration # 35     ecut=    30.00 Ry     beta= 0.70
     Davidson diagonalization with overlap

---- Real-time Memory Report at c_bands before calling an iterative solver
           347 MiB given to the printing process from OS
             0 MiB allocation reported by mallinfo(arena+hblkhd)
         95455 MiB available memory on the node where the printing process lives
------------------
     ethr =  4.98E-07,  avg # of iterations =  2.3

     total cpu time spent up to now is       54.8 secs

     total energy              =   -3516.74947497 Ry
     estimated scf accuracy    <       0.00189436 Ry

     iteration # 36     ecut=    30.00 Ry     beta= 0.70
     Davidson diagonalization with overlap

---- Real-time Memory Report at c_bands before calling an iterative solver
           347 MiB given to the printing process from OS
             0 MiB allocation reported by mallinfo(arena+hblkhd)
         95450 MiB available memory on the node where the printing process lives
------------------
     ethr =  4.98E-07,  avg # of iterations =  1.0

     total cpu time spent up to now is       56.1 secs

     total energy              =   -3516.74923863 Ry
     estimated scf accuracy    <       0.00051311 Ry

     iteration # 37     ecut=    30.00 Ry     beta= 0.70
     Davidson diagonalization with overlap

---- Real-time Memory Report at c_bands before calling an iterative solver
           347 MiB given to the printing process from OS
             0 MiB allocation reported by mallinfo(arena+hblkhd)
         95455 MiB available memory on the node where the printing process lives
------------------
     ethr =  3.56E-07,  avg # of iterations =  2.0

     total cpu time spent up to now is       57.6 secs

     total energy              =   -3516.74919202 Ry
     estimated scf accuracy    <       0.00241454 Ry

     iteration # 38     ecut=    30.00 Ry     beta= 0.70
     Davidson diagonalization with overlap

---- Real-time Memory Report at c_bands before calling an iterative solver
           347 MiB given to the printing process from OS
             0 MiB allocation reported by mallinfo(arena+hblkhd)
         95450 MiB available memory on the node where the printing process lives
------------------
     ethr =  3.56E-07,  avg # of iterations =  1.0

     total cpu time spent up to now is       58.9 secs

     total energy              =   -3516.74968940 Ry
     estimated scf accuracy    <       0.00022332 Ry

     iteration # 39     ecut=    30.00 Ry     beta= 0.70
     Davidson diagonalization with overlap

---- Real-time Memory Report at c_bands before calling an iterative solver
           347 MiB given to the printing process from OS
             0 MiB allocation reported by mallinfo(arena+hblkhd)
         95450 MiB available memory on the node where the printing process lives
------------------
     ethr =  1.55E-07,  avg # of iterations =  1.0

     total cpu time spent up to now is       60.1 secs

     total energy              =   -3516.74970160 Ry
     estimated scf accuracy    <       0.00007539 Ry

     iteration # 40     ecut=    30.00 Ry     beta= 0.70
     Davidson diagonalization with overlap

---- Real-time Memory Report at c_bands before calling an iterative solver
           347 MiB given to the printing process from OS
             0 MiB allocation reported by mallinfo(arena+hblkhd)
         95454 MiB available memory on the node where the printing process lives
------------------
     ethr =  5.24E-08,  avg # of iterations =  1.8

     total cpu time spent up to now is       61.6 secs

     total energy              =   -3516.74971294 Ry
     estimated scf accuracy    <       0.00003778 Ry

     iteration # 41     ecut=    30.00 Ry     beta= 0.70
     Davidson diagonalization with overlap

---- Real-time Memory Report at c_bands before calling an iterative solver
           347 MiB given to the printing process from OS
             0 MiB allocation reported by mallinfo(arena+hblkhd)
         95454 MiB available memory on the node where the printing process lives
------------------
     ethr =  2.62E-08,  avg # of iterations =  1.8

     total cpu time spent up to now is       62.9 secs

     total energy              =   -3516.74972171 Ry
     estimated scf accuracy    <       0.00000914 Ry

     iteration # 42     ecut=    30.00 Ry     beta= 0.70
     Davidson diagonalization with overlap

---- Real-time Memory Report at c_bands before calling an iterative solver
           347 MiB given to the printing process from OS
             0 MiB allocation reported by mallinfo(arena+hblkhd)
         95455 MiB available memory on the node where the printing process lives
------------------
     ethr =  6.35E-09,  avg # of iterations =  2.0

     total cpu time spent up to now is       64.2 secs

     total energy              =   -3516.74972408 Ry
     estimated scf accuracy    <       0.00000149 Ry

     iteration # 43     ecut=    30.00 Ry     beta= 0.70
     Davidson diagonalization with overlap

---- Real-time Memory Report at c_bands before calling an iterative solver
           347 MiB given to the printing process from OS
             0 MiB allocation reported by mallinfo(arena+hblkhd)
         95455 MiB available memory on the node where the printing process lives
------------------
     ethr =  1.04E-09,  avg # of iterations =  2.5

     total cpu time spent up to now is       65.5 secs

     End of self-consistent calculation

          k = 0.0000 0.0000 0.0000 (  3877 PWs)   bands (ev):

   -82.0404 -45.0819 -45.0819 -45.0537 -29.4530 -29.4529  -8.3814  -8.3709
    -8.3284  -8.3284  -8.3001  -8.3001  -3.5197  -3.5186  -3.4869  -3.4869
    -3.4840  -3.4329  -3.4329  -3.4065  -3.3945  -3.3911  -3.3911  -3.3777
    -3.3604  -3.3389  -3.3128  -3.2989  -3.2059  -3.1756  -3.1586  -3.1586
    -3.1350  -3.1350  -3.1109  -3.1050  -3.0950  -3.0856  -3.0844  -3.0824
    -3.0618  -3.0618  -3.0519  -3.0288  -3.0234  -3.0234  -2.9994   1.2030
     2.3207   3.5001   5.6693   6.0687   6.5938   6.5938   6.8609   7.2516
     7.5284   8.9457   9.3053   9.3053  10.1972  10.1972  11.1902  11.2788
    11.4944  11.4944  11.6181  11.6608  11.6608  11.6709  11.6715  11.6803
    11.6803  11.7342  11.7342  11.7419  11.8586  11.9630  12.1835  12.6362
    12.8948  12.8948  13.3033  13.6415  13.6415  14.4868  14.6117  14.9263
    14.9283  15.0294

     occupation numbers 
     1.0000   1.0000   1.0000   1.0000   1.0000   1.0000   1.0000   1.0000
     1.0000   1.0000   1.0000   1.0000   1.0000   1.0000   1.0000   1.0000
     1.0000   1.0000   1.0000   1.0000   1.0000   1.0000   1.0000   1.0000
     1.0000   1.0000   1.0000   1.0000   1.0000   1.0000   1.0000   1.0000
     1.0000   1.0000   1.0000   1.0000   1.0000   1.0000   1.0000   1.0000
     1.0000   1.0000   1.0000   1.0000   1.0000   1.0000   1.0000   1.0000
     1.0000   1.0000   1.0000   1.0000   1.0000   1.0000   1.0000   1.0000
     1.0000   1.0000   1.0000   1.0000   1.0000   1.0000   1.0000   1.0000
     1.0000   1.0000   1.0000   1.0000   1.0000   1.0000   1.0000   1.0000
     0.0000   0.0000   0.0000   0.0000   0.0000   0.0000   0.0000   0.0000
     0.0000   0.0000   0.0000   0.0000   0.0000   0.0000   0.0000   0.0000
     0.0000   0.0000

          k = 0.0000 0.0000 0.1329 (  3872 PWs)   bands (ev):

   -82.0404 -45.0810 -45.0810 -45.0546 -29.4530 -29.4529  -8.3788  -8.3735
    -8.3283  -8.3283  -8.3000  -8.3000  -3.5190  -3.5184  -3.4862  -3.4862
    -3.4839  -3.4379  -3.4379  -3.4067  -3.3942  -3.3859  -3.3859  -3.3759
    -3.3607  -3.3511  -3.2981  -3.2942  -3.2192  -3.1756  -3.1655  -3.1655
    -3.1317  -3.1317  -3.1131  -3.0952  -3.0945  -3.0857  -3.0853  -3.0823
    -3.0572  -3.0572  -3.0515  -3.0265  -3.0265  -3.0238  -3.0047   1.2603
     2.1039   4.0008   4.9398   6.3825   6.5882   6.5882   6.8640   6.8729
     8.5484   8.9429   9.3015   9.3015  10.0715  10.1896  10.1896  11.1685
    11.5586  11.5586  11.6630  11.6630  11.6679  11.6679  11.6704  11.6724
    11.6933  11.6933  11.7751  11.8372  11.8570  11.9479  12.4083  12.6305
    12.9183  12.9183  13.3189  13.6653  13.6653  14.0201  14.8144  14.9172
    14.9392  15.6268

     occupation numbers 
     1.0000   1.0000   1.0000   1.0000   1.0000   1.0000   1.0000   1.0000
     1.0000   1.0000   1.0000   1.0000   1.0000   1.0000   1.0000   1.0000
     1.0000   1.0000   1.0000   1.0000   1.0000   1.0000   1.0000   1.0000
     1.0000   1.0000   1.0000   1.0000   1.0000   1.0000   1.0000   1.0000
     1.0000   1.0000   1.0000   1.0000   1.0000   1.0000   1.0000   1.0000
     1.0000   1.0000   1.0000   1.0000   1.0000   1.0000   1.0000   1.0000
     1.0000   1.0000   1.0000   1.0000   1.0000   1.0000   1.0000   1.0000
     1.0000   1.0000   1.0000   1.0000   1.0000   1.0000   1.0000   1.0000
     1.0000   1.0000   1.0000   1.0000   1.0000   1.0000   1.0000   1.0000
     0.0000   0.0000   0.0000   0.0000   0.0000   0.0000   0.0000   0.0000
     0.0000   0.0000   0.0000   0.0000   0.0000   0.0000   0.0000   0.0000
     0.0000   0.0000

          k = 0.0000 0.3333 0.0000 (  3890 PWs)   bands (ev):

   -82.0404 -45.0855 -45.0828 -45.0533 -29.4511 -29.4510  -8.4050  -8.3752
    -8.3677  -8.3626  -8.3221  -8.2937  -3.5164  -3.5042  -3.4863  -3.4641
    -3.4542  -3.4471  -3.4280  -3.4186  -3.4162  -3.3976  -3.3879  -3.3830
    -3.3544  -3.3232  -3.3088  -3.2453  -3.2045  -3.1800  -3.1695  -3.1632
    -3.1501  -3.1396  -3.1349  -3.1309  -3.1076  -3.0926  -3.0887  -3.0684
    -3.0674  -3.0543  -3.0475  -3.0414  -3.0151  -3.0088  -2.9981   2.0907
     3.0601   3.8825   4.9531   5.9690   6.3019   6.5614   6.5690   6.6149
     7.1103   7.4995   8.4349   9.4899   9.9738  10.5116  10.8271  11.0320
    11.2511  11.4160  11.5756  11.6046  11.6242  11.6419  11.6699  11.6982
    11.7215  11.7807  11.7937  11.8474  11.8590  11.9828  12.0502  12.0859
    12.9057  13.2235  13.3636  13.7858  14.1999  14.3464  14.3949  14.6574
    14.8376  15.0108

     occupation numbers 
     1.0000   1.0000   1.0000   1.0000   1.0000   1.0000   1.0000   1.0000
     1.0000   1.0000   1.0000   1.0000   1.0000   1.0000   1.0000   1.0000
     1.0000   1.0000   1.0000   1.0000   1.0000   1.0000   1.0000   1.0000
     1.0000   1.0000   1.0000   1.0000   1.0000   1.0000   1.0000   1.0000
     1.0000   1.0000   1.0000   1.0000   1.0000   1.0000   1.0000   1.0000
     1.0000   1.0000   1.0000   1.0000   1.0000   1.0000   1.0000   1.0000
     1.0000   1.0000   1.0000   1.0000   1.0000   1.0000   1.0000   1.0000
     1.0000   1.0000   1.0000   1.0000   1.0000   1.0000   1.0000   1.0000
     1.0000   1.0000   1.0000   1.0000   1.0000   1.0000   1.0000   1.0000
     0.0000   0.0000   0.0000   0.0000   0.0000   0.0000   0.0000   0.0000
     0.0000   0.0000   0.0000   0.0000   0.0000   0.0000   0.0000   0.0000
     0.0000   0.0000

          k = 0.0000 0.3333 0.1329 (  3914 PWs)   bands (ev):

   -82.0404 -45.0862 -45.0842 -45.0551 -29.4511 -29.4510  -8.4051  -8.3755
    -8.3663  -8.3637  -8.3222  -8.2937  -3.5145  -3.5057  -3.4860  -3.4630
    -3.4557  -3.4492  -3.4283  -3.4188  -3.4188  -3.3962  -3.3871  -3.3806
    -3.3542  -3.3232  -3.3083  -3.2439  -3.2094  -3.1827  -3.1693  -3.1660
    -3.1517  -3.1395  -3.1330  -3.1318  -3.1091  -3.0901  -3.0831  -3.0703
    -3.0637  -3.0578  -3.0489  -3.0400  -3.0163  -3.0097  -2.9995   2.1352
     2.8912   4.1798   4.7081   6.0413   6.2855   6.5592   6.6031   6.7050
     7.0125   7.4874   8.3582   9.3506   9.9830  10.3824  10.7935  11.3292
    11.4565  11.4696  11.5722  11.6030  11.6262  11.6331  11.6551  11.6962
    11.7215  11.7549  11.7933  11.8692  11.9756  12.0758  12.1895  12.2244
    12.6312  13.0240  13.1104  13.3301  13.9365  14.0505  14.5965  15.0466
    15.0796  15.3497

     occupation numbers 
     1.0000   1.0000   1.0000   1.0000   1.0000   1.0000   1.0000   1.0000
     1.0000   1.0000   1.0000   1.0000   1.0000   1.0000   1.0000   1.0000
     1.0000   1.0000   1.0000   1.0000   1.0000   1.0000   1.0000   1.0000
     1.0000   1.0000   1.0000   1.0000   1.0000   1.0000   1.0000   1.0000
     1.0000   1.0000   1.0000   1.0000   1.0000   1.0000   1.0000   1.0000
     1.0000   1.0000   1.0000   1.0000   1.0000   1.0000   1.0000   1.0000
     1.0000   1.0000   1.0000   1.0000   1.0000   1.0000   1.0000   1.0000
     1.0000   1.0000   1.0000   1.0000   1.0000   1.0000   1.0000   1.0000
     1.0000   1.0000   1.0000   1.0000   1.0000   1.0000   1.0000   1.0000
     0.0000   0.0000   0.0000   0.0000   0.0000   0.0000   0.0000   0.0000
     0.0000   0.0000   0.0000   0.0000   0.0000   0.0000   0.0000   0.0000
     0.0000   0.0000

          k = 0.3333 0.3333 0.0000 (  3900 PWs)   bands (ev):

   -82.0404 -45.0855 -45.0848 -45.0535 -29.4492 -29.4492  -8.3937  -8.3917
    -8.3636  -8.3615  -8.3580  -8.3556  -3.5192  -3.5042  -3.4810  -3.4649
    -3.4531  -3.4492  -3.4343  -3.4276  -3.4068  -3.3945  -3.3909  -3.3847
    -3.3586  -3.3521  -3.2937  -3.2196  -3.2124  -3.2036  -3.1987  -3.1642
    -3.1527  -3.1343  -3.1207  -3.1161  -3.1054  -3.1024  -3.0718  -3.0697
    -3.0589  -3.0442  -3.0398  -3.0240  -3.0218  -3.0036  -2.9889   2.8925
     3.7319   4.0942   5.4733   5.5637   5.7021   6.6228   6.6760   6.7047
     7.0739   7.3675   8.0372   8.1364   9.0459   9.5234   9.7158   9.9773
    10.3064  10.7601  11.5394  11.5735  11.5778  11.5904  11.6512  11.6840
    11.7147  11.7155  11.7527  11.7812  11.8422  11.8638  12.0554  12.0833
    12.9116  13.1964  13.8775  14.0041  14.3343  14.6561  15.1604  15.7767
    15.8138  16.1577

     occupation numbers 
     1.0000   1.0000   1.0000   1.0000   1.0000   1.0000   1.0000   1.0000
     1.0000   1.0000   1.0000   1.0000   1.0000   1.0000   1.0000   1.0000
     1.0000   1.0000   1.0000   1.0000   1.0000   1.0000   1.0000   1.0000
     1.0000   1.0000   1.0000   1.0000   1.0000   1.0000   1.0000   1.0000
     1.0000   1.0000   1.0000   1.0000   1.0000   1.0000   1.0000   1.0000
     1.0000   1.0000   1.0000   1.0000   1.0000   1.0000   1.0000   1.0000
     1.0000   1.0000   1.0000   1.0000   1.0000   1.0000   1.0000   1.0000
     1.0000   1.0000   1.0000   1.0000   1.0000   1.0000   1.0000   1.0000
     1.0000   1.0000   1.0000   1.0000   1.0000   1.0000   1.0000   1.0000
     0.0000   0.0000   0.0000   0.0000   0.0000   0.0000   0.0000   0.0000
     0.0000   0.0000   0.0000   0.0000   0.0000   0.0000   0.0000   0.0000
     0.0000   0.0000

          k = 0.3333 0.3333 0.1329 (  3909 PWs)   bands (ev):

   -82.0404 -45.0852 -45.0848 -45.0554 -29.4492 -29.4492  -8.3932  -8.3922
    -8.3632  -8.3621  -8.3573  -8.3561  -3.5153  -3.5071  -3.4801  -3.4673
    -3.4533  -3.4504  -3.4340  -3.4318  -3.4030  -3.3936  -3.3909  -3.3822
    -3.3592  -3.3513  -3.2939  -3.2207  -3.2157  -3.2069  -3.1910  -3.1671
    -3.1511  -3.1488  -3.1241  -3.1051  -3.1037  -3.0955  -3.0815  -3.0608
    -3.0567  -3.0463  -3.0411  -3.0223  -3.0214  -3.0036  -2.9934   2.9388
     3.5168   4.4524   5.0065   5.7018   5.7967   6.6103   6.6784   6.7260
     6.8841   7.7601   8.0802   8.2776   8.8627   9.2032   9.6622   9.8530
    10.6209  10.6749  11.5626  11.5754  11.5789  11.5874  11.6461  11.6634
    11.7149  11.7158  11.7566  11.7666  11.8715  11.8804  12.0602  12.0725
    12.7134  13.1525  13.8052  14.2415  14.7503  14.8923  15.3442  15.4599
    15.7006  16.0660

     occupation numbers 
     1.0000   1.0000   1.0000   1.0000   1.0000   1.0000   1.0000   1.0000
     1.0000   1.0000   1.0000   1.0000   1.0000   1.0000   1.0000   1.0000
     1.0000   1.0000   1.0000   1.0000   1.0000   1.0000   1.0000   1.0000
     1.0000   1.0000   1.0000   1.0000   1.0000   1.0000   1.0000   1.0000
     1.0000   1.0000   1.0000   1.0000   1.0000   1.0000   1.0000   1.0000
     1.0000   1.0000   1.0000   1.0000   1.0000   1.0000   1.0000   1.0000
     1.0000   1.0000   1.0000   1.0000   1.0000   1.0000   1.0000   1.0000
     1.0000   1.0000   1.0000   1.0000   1.0000   1.0000   1.0000   1.0000
     1.0000   1.0000   1.0000   1.0000   1.0000   1.0000   1.0000   1.0000
     0.0000   0.0000   0.0000   0.0000   0.0000   0.0000   0.0000   0.0000
     0.0000   0.0000   0.0000   0.0000   0.0000   0.0000   0.0000   0.0000
     0.0000   0.0000

     highest occupied, lowest unoccupied level (ev):    11.6982   11.6803

!    total energy              =   -3516.74972253 Ry
     estimated scf accuracy    <       0.00000086 Ry

     The total energy is the sum of the following terms:
     one-electron contribution =    -971.24171479 Ry
     hartree contribution      =     616.76965340 Ry
     xc contribution           =    -334.08954575 Ry
     ewald contribution        =   -1137.69145740 Ry
     one-center paw contrib.   =   -1690.49665799 Ry
      -> PAW hartree energy AE =     314.16795535 Ry
      -> PAW hartree energy PS =    -299.92830243 Ry
      -> PAW xc energy AE      =    -966.59100063 Ry
      -> PAW xc energy PS      =      38.22958152 Ry
      -> total E_H with PAW    =     631.00930632 Ry
      -> total E_XC with PAW   =   -1262.45096486 Ry

     convergence has been achieved in  43 iterations

     Writing all to output data dir calculations_bands/myprefix.save/
 
     init_run     :      8.20s CPU      2.59s WALL (       1 calls)
     electrons    :    229.95s CPU     62.56s WALL (       1 calls)

     Called by init_run:
     wfcinit      :      1.05s CPU      0.29s WALL (       1 calls)
     wfcinit:atom :      0.01s CPU      0.00s WALL (       3 calls)
     wfcinit:wfcr :      0.96s CPU      0.26s WALL (       3 calls)
     potinit      :      3.70s CPU      0.98s WALL (       1 calls)
     hinit0       :      2.48s CPU      0.94s WALL (       1 calls)

     Called by electrons:
     c_bands      :     68.29s CPU     18.60s WALL (      43 calls)
     sum_band     :     29.83s CPU      9.05s WALL (      43 calls)
     v_of_rho     :      2.93s CPU      0.78s WALL (      44 calls)
     v_h          :      0.21s CPU      0.05s WALL (      44 calls)
     v_xc         :      2.72s CPU      0.72s WALL (      44 calls)
     newd         :     26.46s CPU      7.30s WALL (      44 calls)
     PAW_pot      :    103.13s CPU     26.99s WALL (      44 calls)
     mix_rho      :      1.12s CPU      0.30s WALL (      43 calls)

     Called by c_bands:
     init_us_2    :      0.42s CPU      0.13s WALL (     261 calls)
     init_us_2:cp :      0.41s CPU      0.12s WALL (     261 calls)
     cegterg      :     57.58s CPU     15.58s WALL (     129 calls)

     Called by sum_band:
     sum_band:wei :      0.04s CPU      0.01s WALL (      43 calls)
     sum_band:loo :      9.15s CPU      2.46s WALL (      43 calls)
     sum_band:buf :      0.14s CPU      0.04s WALL (     129 calls)
     sum_band:ini :      0.20s CPU      0.06s WALL (     129 calls)
     sum_band:cal :      0.72s CPU      0.20s WALL (     129 calls)
     sum_band:bec :      0.11s CPU      0.03s WALL (     129 calls)
     addusdens    :     14.20s CPU      4.86s WALL (      43 calls)
     addusd:skk   :      0.17s CPU      0.06s WALL (      86 calls)
     addusd:dgemm :      1.73s CPU      1.35s WALL (      86 calls)
     addusd:qvan2 :      9.73s CPU      2.62s WALL (      86 calls)

     Called by *egterg:
     cdiaghg      :     11.36s CPU      3.05s WALL (     398 calls)
     cegterg:over :      2.03s CPU      0.54s WALL (     269 calls)
     cegterg:upda :      1.05s CPU      0.28s WALL (     269 calls)
     cegterg:last :      1.88s CPU      0.50s WALL (     204 calls)
     cdiaghg:chol :      0.73s CPU      0.20s WALL (     398 calls)
     cdiaghg:inve :      0.16s CPU      0.04s WALL (     398 calls)
     cdiaghg:para :      1.98s CPU      0.55s WALL (     796 calls)
     h_psi        :     39.55s CPU     10.72s WALL (     401 calls)
     s_psi        :      0.99s CPU      0.26s WALL (     401 calls)
     g_psi        :      0.09s CPU      0.03s WALL (     269 calls)

     Called by h_psi:
     h_psi:calbec :      1.66s CPU      0.44s WALL (     401 calls)
     vloc_psi     :     36.38s CPU      9.86s WALL (     401 calls)
     add_vuspsi   :      1.38s CPU      0.38s WALL (     401 calls)

     General routines
     calbec       :      2.36s CPU      0.63s WALL (     530 calls)
     fft          :      2.86s CPU      0.78s WALL (     570 calls)
     ffts         :      0.70s CPU      0.18s WALL (      87 calls)
     fftw         :     38.49s CPU     10.42s WALL (   61802 calls)
     interpolate  :      0.89s CPU      0.23s WALL (      44 calls)
 
     Parallel routines

     PAW routines
     PAW_pot      :    103.13s CPU     26.99s WALL (      44 calls)
     PAW_symme    :      0.40s CPU      0.11s WALL (      87 calls)
 
     PWSCF        :   3m59.16s CPU   1m 6.02s WALL

 
   This run was terminated on:   3:55:33  23Jun2023            

=------------------------------------------------------------------------------=
   JOB DONE.
=------------------------------------------------------------------------------=
