
     Program PWSCF v.7.0 starts on 23Jun2023 at  3:40:21 

     This program is part of the open-source Quantum ESPRESSO suite
     for quantum simulation of materials; please cite
         "P. Giannozzi et al., J. Phys.:Condens. Matter 21 395502 (2009);
         "P. Giannozzi et al., J. Phys.:Condens. Matter 29 465901 (2017);
         "P. Giannozzi et al., J. Chem. Phys. 152 154105 (2020);
          URL http://www.quantum-espresso.org", 
     in publications or presentations arising from this work. More details at
     http://www.quantum-espresso.org/quote

     Parallel version (MPI & OpenMP), running on      32 processor cores
     Number of MPI processes:                 8
     Threads/MPI process:                     4

     MPI processes distributed on     1 nodes
     K-points division:     npool     =       2
     R & G space division:  proc/nbgrp/npool/nimage =       4
     96532 MiB available memory on the printing compute node when the environment starts
 
     Reading input from espresso_2014.pwi
Warning: card &CELL ignored
Warning: card / ignored

     Current dimensions of program PWSCF are:
     Max number of different atomic species (ntypx) = 10
     Max number of k-points (npk) =  40000
     Max angular momentum in pseudopotentials (lmaxx) =  4
     file Ga.pbe-dn-kjpaw_psl.1.0.0.UPF: wavefunction(s)  4S renormalized
     Message from routine setup:
     using ibrav=0 with symmetry is DISCOURAGED, use correct ibrav instead

     Subspace diagonalization in iterative solution of the eigenvalue problem:
     one sub-group per band group will be used
     scalapack distributed-memory algorithm (size of sub-group:  2*  2 procs)

 
     Parallelization info
     --------------------
     sticks:   dense  smooth     PW     G-vecs:    dense   smooth      PW
     Min         510     256     72                25088     8886    1324
     Max         511     257     73                25089     8890    1327
     Sum        2041    1025    291               100353    35551    5301
 
     Using Slab Decomposition
 


     bravais-lattice index     =            0
     lattice parameter (alat)  =       8.2538  a.u.
     unit-cell volume          =    1598.7188 (a.u.)^3
     number of atoms/cell      =           12
     number of atomic types    =            3
     number of electrons       =       160.00
     number of Kohn-Sham states=           90
     kinetic-energy cutoff     =      30.0000  Ry
     charge density cutoff     =     240.0000  Ry
     scf convergence threshold =      1.0E-06
     mixing beta               =       0.7000
     number of iterations used =            8  plain     mixing
     Exchange-correlation= SLA  PW   PBE  PBE
                           (   1   4   3   4   0   0   0)

     celldm(1)=   8.253802  celldm(2)=   0.000000  celldm(3)=   0.000000
     celldm(4)=   0.000000  celldm(5)=   0.000000  celldm(6)=   0.000000

     crystal axes: (cart. coord. in units of alat)
               a(1) = (   1.000000   0.000000   0.000000 )  
               a(2) = (   0.000000   1.574322   0.000000 )  
               a(3) = (   0.000000   0.000000   1.805994 )  

     reciprocal axes: (cart. coord. in units 2 pi/alat)
               b(1) = (  1.000000  0.000000  0.000000 )  
               b(2) = (  0.000000  0.635194  0.000000 )  
               b(3) = (  0.000000  0.000000  0.553712 )  


     PseudoPot. # 1 for Ce read from file:
     /home/pragov/projects/rrg-bengioy-ad/pragov/crystal_structure_design/SSSP/Ce.GGA-PBE-paw-v1.0.UPF
     MD5 check sum: f2b950f613061344c13339c8d844425d
     Pseudo is Projector augmented-wave + core cor, Zval = 12.0
     Generated using ATOMPAW code
     Shape of augmentation charge: BESSEL
     Using radial grid of 1102 points,  8 beta functions with: 
                l(1) =   0
                l(2) =   0
                l(3) =   1
                l(4) =   1
                l(5) =   2
                l(6) =   2
                l(7) =   3
                l(8) =   3
     Q(r) pseudized with 0 coefficients 


     PseudoPot. # 2 for Ga read from file:
     /home/pragov/projects/rrg-bengioy-ad/pragov/crystal_structure_design/SSSP/Ga.pbe-dn-kjpaw_psl.1.0.0.UPF
     MD5 check sum: a27b4342b1af7e5f338de752e9ed7044
     Pseudo is Projector augmented-wave + core cor, Zval = 13.0
     Generated using "atomic" code by A. Dal Corso  v.5.1
     Shape of augmentation charge: PSQ
     Using radial grid of 1205 points,  6 beta functions with: 
                l(1) =   0
                l(2) =   0
                l(3) =   1
                l(4) =   1
                l(5) =   2
                l(6) =   2
     Q(r) pseudized with 0 coefficients 


     PseudoPot. # 3 for Ir read from file:
     /home/pragov/projects/rrg-bengioy-ad/pragov/crystal_structure_design/SSSP/Ir_pbe_v1.2.uspp.F.UPF
     MD5 check sum: 8836f839c3459d2b385c504ce6d91f2c
     Pseudo is Ultrasoft + core correction, Zval = 15.0
     Generated by new atomic code, or converted to UPF format
     Using radial grid of  983 points,  7 beta functions with: 
                l(1) =   0
                l(2) =   0
                l(3) =   1
                l(4) =   1
                l(5) =   1
                l(6) =   2
                l(7) =   2
     Q(r) pseudized with  8 coefficients,  rinner =    1.400   1.400   1.400
                                                       1.400   1.400

     atomic species   valence    mass     pseudopotential
        Ce            12.00   140.11600     Ce( 1.00)
        Ga            13.00    69.72300     Ga( 1.00)
        Ir            15.00   192.21700     Ir( 1.00)

      8 Sym. Ops., with inversion, found ( 6 have fractional translation)


                                    s                        frac. trans.

      isym =  1     identity                                     

 cryst.   s( 1) = (     1          0          0      )
                  (     0          1          0      )
                  (     0          0          1      )

 cart.    s( 1) = (  1.0000000  0.0000000  0.0000000 )
                  (  0.0000000  1.0000000  0.0000000 )
                  (  0.0000000  0.0000000  1.0000000 )


      isym =  2     180 deg rotation - cart. axis [0,0,1]        

 cryst.   s( 2) = (    -1          0          0      )    f =(  0.0000000 )
                  (     0         -1          0      )       (  0.5000000 )
                  (     0          0          1      )       (  0.5000000 )

 cart.    s( 2) = ( -1.0000000  0.0000000  0.0000000 )    f =(  0.0000000 )
                  (  0.0000000 -1.0000000  0.0000000 )       (  0.7871612 )
                  (  0.0000000  0.0000000  1.0000000 )       (  0.9029968 )


      isym =  3     180 deg rotation - cart. axis [0,1,0]        

 cryst.   s( 3) = (    -1          0          0      )    f =(  0.5000000 )
                  (     0          1          0      )       (  0.5000000 )
                  (     0          0         -1      )       (  0.5000000 )

 cart.    s( 3) = ( -1.0000000  0.0000000  0.0000000 )    f =(  0.5000000 )
                  (  0.0000000  1.0000000  0.0000000 )       (  0.7871612 )
                  (  0.0000000  0.0000000 -1.0000000 )       (  0.9029968 )


      isym =  4     180 deg rotation - cart. axis [1,0,0]        

 cryst.   s( 4) = (     1          0          0      )    f =( -0.5000000 )
                  (     0         -1          0      )       (  0.0000000 )
                  (     0          0         -1      )       (  0.0000000 )

 cart.    s( 4) = (  1.0000000  0.0000000  0.0000000 )    f =( -0.5000000 )
                  (  0.0000000 -1.0000000  0.0000000 )       (  0.0000000 )
                  (  0.0000000  0.0000000 -1.0000000 )       (  0.0000000 )


      isym =  5     inversion                                    

 cryst.   s( 5) = (    -1          0          0      )
                  (     0         -1          0      )
                  (     0          0         -1      )

 cart.    s( 5) = ( -1.0000000  0.0000000  0.0000000 )
                  (  0.0000000 -1.0000000  0.0000000 )
                  (  0.0000000  0.0000000 -1.0000000 )


      isym =  6     inv. 180 deg rotation - cart. axis [0,0,1]   

 cryst.   s( 6) = (     1          0          0      )    f =(  0.0000000 )
                  (     0          1          0      )       (  0.5000000 )
                  (     0          0         -1      )       (  0.5000000 )

 cart.    s( 6) = (  1.0000000  0.0000000  0.0000000 )    f =(  0.0000000 )
                  (  0.0000000  1.0000000  0.0000000 )       (  0.7871612 )
                  (  0.0000000  0.0000000 -1.0000000 )       (  0.9029968 )


      isym =  7     inv. 180 deg rotation - cart. axis [0,1,0]   

 cryst.   s( 7) = (     1          0          0      )    f =( -0.5000000 )
                  (     0         -1          0      )       (  0.5000000 )
                  (     0          0          1      )       (  0.5000000 )

 cart.    s( 7) = (  1.0000000  0.0000000  0.0000000 )    f =( -0.5000000 )
                  (  0.0000000 -1.0000000  0.0000000 )       (  0.7871612 )
                  (  0.0000000  0.0000000  1.0000000 )       (  0.9029968 )


      isym =  8     inv. 180 deg rotation - cart. axis [1,0,0]   

 cryst.   s( 8) = (    -1          0          0      )    f =(  0.5000000 )
                  (     0          1          0      )       (  0.0000000 )
                  (     0          0          1      )       (  0.0000000 )

 cart.    s( 8) = ( -1.0000000  0.0000000  0.0000000 )    f =(  0.5000000 )
                  (  0.0000000  1.0000000  0.0000000 )       (  0.0000000 )
                  (  0.0000000  0.0000000  1.0000000 )       (  0.0000000 )


   Cartesian axes

     site n.     atom                  positions (alat units)
         1           Ce  tau(   1) = (   0.2500000   0.8349309   0.3400235  )
         2           Ce  tau(   2) = (   0.7500000   0.7393916   1.4659702  )
         3           Ce  tau(   3) = (   0.7500000   1.5265528   1.2430203  )
         4           Ce  tau(   4) = (   0.2500000   0.0477697   0.5629734  )
         5           Ga  tau(   5) = (   0.2500000   1.0235457   1.0268266  )
         6           Ga  tau(   6) = (   0.7500000   0.5507767   0.7791671  )
         7           Ga  tau(   7) = (   0.7500000   1.3379379   0.1238298  )
         8           Ga  tau(   8) = (   0.2500000   0.2363845   1.6821639  )
         9           Ir  tau(   9) = (   0.2500000   1.1977713   1.6064856  )
        10           Ir  tau(  10) = (   0.7500000   0.3765512   0.1995081  )
        11           Ir  tau(  11) = (   0.7500000   1.1637124   0.7034887  )
        12           Ir  tau(  12) = (   0.2500000   0.4106101   1.1025050  )

   Crystallographic axes

     site n.     atom                  positions (cryst. coord.)
         1           Ce  tau(   1) = (  0.2500000  0.5303430  0.1882750  )
         2           Ce  tau(   2) = (  0.7500000  0.4696570  0.8117250  )
         3           Ce  tau(   3) = (  0.7500000  0.9696570  0.6882750  )
         4           Ce  tau(   4) = (  0.2500000  0.0303430  0.3117250  )
         5           Ga  tau(   5) = (  0.2500000  0.6501500  0.5685660  )
         6           Ga  tau(   6) = (  0.7500000  0.3498500  0.4314340  )
         7           Ga  tau(   7) = (  0.7500000  0.8498500  0.0685660  )
         8           Ga  tau(   8) = (  0.2500000  0.1501500  0.9314340  )
         9           Ir  tau(   9) = (  0.2500000  0.7608170  0.8895300  )
        10           Ir  tau(  10) = (  0.7500000  0.2391830  0.1104700  )
        11           Ir  tau(  11) = (  0.7500000  0.7391830  0.3895300  )
        12           Ir  tau(  12) = (  0.2500000  0.2608170  0.6104700  )

     number of k points=     8
                       cart. coord. in units 2pi/alat
        k(    1) = (   0.0000000   0.0000000   0.0000000), wk =   0.0740741
        k(    2) = (   0.0000000   0.0000000   0.1845706), wk =   0.1481481
        k(    3) = (   0.0000000   0.2117313   0.0000000), wk =   0.1481481
        k(    4) = (   0.0000000   0.2117313   0.1845706), wk =   0.2962963
        k(    5) = (   0.3333333   0.0000000   0.0000000), wk =   0.1481481
        k(    6) = (   0.3333333   0.0000000   0.1845706), wk =   0.2962963
        k(    7) = (   0.3333333   0.2117313   0.0000000), wk =   0.2962963
        k(    8) = (   0.3333333   0.2117313   0.1845706), wk =   0.5925926

                       cryst. coord.
        k(    1) = (   0.0000000   0.0000000   0.0000000), wk =   0.0740741
        k(    2) = (   0.0000000   0.0000000   0.3333333), wk =   0.1481481
        k(    3) = (   0.0000000   0.3333333   0.0000000), wk =   0.1481481
        k(    4) = (   0.0000000   0.3333333   0.3333333), wk =   0.2962963
        k(    5) = (   0.3333333   0.0000000   0.0000000), wk =   0.1481481
        k(    6) = (   0.3333333   0.0000000   0.3333333), wk =   0.2962963
        k(    7) = (   0.3333333   0.3333333   0.0000000), wk =   0.2962963
        k(    8) = (   0.3333333   0.3333333   0.3333333), wk =   0.5925926

     Dense  grid:   100353 G-vectors     FFT dimensions: (  48,  72,  80)

     Smooth grid:    35551 G-vectors     FFT dimensions: (  30,  48,  54)

     Dynamical RAM for                 wfc:       1.52 MB

     Dynamical RAM for     wfc (w. buffer):       7.61 MB

     Dynamical RAM for           str. fact:       1.15 MB

     Dynamical RAM for           local pot:       0.00 MB

     Dynamical RAM for          nlocal pot:       4.81 MB

     Dynamical RAM for                qrad:       8.96 MB

     Dynamical RAM for          rho,v,vnew:       2.73 MB

     Dynamical RAM for               rhoin:       0.91 MB

     Dynamical RAM for            rho*nmix:       6.12 MB

     Dynamical RAM for           G-vectors:       1.50 MB

     Dynamical RAM for          h,s,v(r/c):       0.37 MB

     Dynamical RAM for          <psi|beta>:       0.39 MB

     Dynamical RAM for                 psi:       3.05 MB

     Dynamical RAM for                hpsi:       3.05 MB

     Dynamical RAM for                spsi:       3.05 MB

     Dynamical RAM for      wfcinit/wfcrot:       8.21 MB

     Dynamical RAM for           addusdens:     107.19 MB

     Estimated static dynamical RAM per process >      31.84 MB

     Estimated max dynamical RAM per process >     145.15 MB

     Estimated total dynamical RAM >       1.11 GB

     Check: negative core charge=   -0.000001

     Initial potential from superposition of free atoms

     starting charge     157.9601, renormalised to     160.0000

     negative rho (up, down):  1.477E+00 0.000E+00
     Starting wfcs are  212 randomized atomic wfcs
     Checking if some PAW data can be deallocated... 
       PAW data deallocated on    6 nodes for type:  1
       PAW data deallocated on    6 nodes for type:  2

     total cpu time spent up to now is        4.6 secs

     Self-consistent Calculation

     iteration #  1     ecut=    30.00 Ry     beta= 0.70
     Davidson diagonalization with overlap

---- Real-time Memory Report at c_bands before calling an iterative solver
           275 MiB given to the printing process from OS
             0 MiB allocation reported by mallinfo(arena+hblkhd)
         95741 MiB available memory on the node where the printing process lives
------------------
     ethr =  1.00E-02,  avg # of iterations =  1.1

     negative rho (up, down):  1.109E+00 0.000E+00

     total cpu time spent up to now is        6.2 secs

     total energy              =   -3753.37216981 Ry
     estimated scf accuracy    <      17.15567122 Ry

     iteration #  2     ecut=    30.00 Ry     beta= 0.70
     Davidson diagonalization with overlap

---- Real-time Memory Report at c_bands before calling an iterative solver
           342 MiB given to the printing process from OS
             0 MiB allocation reported by mallinfo(arena+hblkhd)
         95559 MiB available memory on the node where the printing process lives
------------------
     ethr =  1.00E-02,  avg # of iterations =  6.8

     negative rho (up, down):  1.247E+00 0.000E+00

     total cpu time spent up to now is        8.7 secs

     total energy              =   -3765.92343095 Ry
     estimated scf accuracy    <      66.88915053 Ry

     iteration #  3     ecut=    30.00 Ry     beta= 0.70
     Davidson diagonalization with overlap

---- Real-time Memory Report at c_bands before calling an iterative solver
           360 MiB given to the printing process from OS
             0 MiB allocation reported by mallinfo(arena+hblkhd)
         95424 MiB available memory on the node where the printing process lives
------------------
     ethr =  1.00E-02,  avg # of iterations =  2.2

     negative rho (up, down):  1.257E+00 0.000E+00

     total cpu time spent up to now is       10.8 secs

     total energy              =   -3769.06172086 Ry
     estimated scf accuracy    <      14.14623897 Ry

     iteration #  4     ecut=    30.00 Ry     beta= 0.70
     Davidson diagonalization with overlap

---- Real-time Memory Report at c_bands before calling an iterative solver
           361 MiB given to the printing process from OS
             0 MiB allocation reported by mallinfo(arena+hblkhd)
         95413 MiB available memory on the node where the printing process lives
------------------
     ethr =  8.84E-03,  avg # of iterations =  1.2

     negative rho (up, down):  1.289E+00 0.000E+00

     total cpu time spent up to now is       12.5 secs

     total energy              =   -3764.94896589 Ry
     estimated scf accuracy    <      10.10763829 Ry

     iteration #  5     ecut=    30.00 Ry     beta= 0.70
     Davidson diagonalization with overlap

---- Real-time Memory Report at c_bands before calling an iterative solver
           361 MiB given to the printing process from OS
             0 MiB allocation reported by mallinfo(arena+hblkhd)
         95415 MiB available memory on the node where the printing process lives
------------------
     ethr =  6.32E-03,  avg # of iterations =  6.4

     negative rho (up, down):  1.293E+00 0.000E+00

     total cpu time spent up to now is       14.9 secs

     total energy              =   -3764.98147509 Ry
     estimated scf accuracy    <     128.33789090 Ry

     iteration #  6     ecut=    30.00 Ry     beta= 0.70
     Davidson diagonalization with overlap

---- Real-time Memory Report at c_bands before calling an iterative solver
           362 MiB given to the printing process from OS
             0 MiB allocation reported by mallinfo(arena+hblkhd)
         95402 MiB available memory on the node where the printing process lives
------------------
     ethr =  6.32E-03,  avg # of iterations =  2.0

     negative rho (up, down):  1.288E+00 0.000E+00

     total cpu time spent up to now is       17.2 secs

     total energy              =   -3766.02422602 Ry
     estimated scf accuracy    <      22.63199264 Ry

     iteration #  7     ecut=    30.00 Ry     beta= 0.70
     Davidson diagonalization with overlap

---- Real-time Memory Report at c_bands before calling an iterative solver
           362 MiB given to the printing process from OS
             0 MiB allocation reported by mallinfo(arena+hblkhd)
         95398 MiB available memory on the node where the printing process lives
------------------
     ethr =  6.32E-03,  avg # of iterations =  5.1

     negative rho (up, down):  1.273E+00 0.000E+00

     total cpu time spent up to now is       19.6 secs

     total energy              =   -3765.88262477 Ry
     estimated scf accuracy    <       7.31791588 Ry

     iteration #  8     ecut=    30.00 Ry     beta= 0.70
     Davidson diagonalization with overlap

---- Real-time Memory Report at c_bands before calling an iterative solver
           366 MiB given to the printing process from OS
             0 MiB allocation reported by mallinfo(arena+hblkhd)
         95388 MiB available memory on the node where the printing process lives
------------------
     ethr =  4.57E-03,  avg # of iterations =  7.0

     negative rho (up, down):  1.263E+00 0.000E+00

     total cpu time spent up to now is       21.6 secs

     total energy              =   -3767.79613035 Ry
     estimated scf accuracy    <       1.17483735 Ry

     iteration #  9     ecut=    30.00 Ry     beta= 0.70
     Davidson diagonalization with overlap

---- Real-time Memory Report at c_bands before calling an iterative solver
           370 MiB given to the printing process from OS
             0 MiB allocation reported by mallinfo(arena+hblkhd)
         95370 MiB available memory on the node where the printing process lives
------------------
     ethr =  7.34E-04,  avg # of iterations =  8.4

     negative rho (up, down):  1.273E+00 0.000E+00

     total cpu time spent up to now is       24.3 secs

     total energy              =   -3767.79211836 Ry
     estimated scf accuracy    <       3.08443633 Ry

     iteration # 10     ecut=    30.00 Ry     beta= 0.70
     Davidson diagonalization with overlap

---- Real-time Memory Report at c_bands before calling an iterative solver
           374 MiB given to the printing process from OS
             0 MiB allocation reported by mallinfo(arena+hblkhd)
         95356 MiB available memory on the node where the printing process lives
------------------
     ethr =  7.34E-04,  avg # of iterations =  1.2

     negative rho (up, down):  1.281E+00 0.000E+00

     total cpu time spent up to now is       26.0 secs

     total energy              =   -3767.56286241 Ry
     estimated scf accuracy    <       2.32103201 Ry

     iteration # 11     ecut=    30.00 Ry     beta= 0.70
     Davidson diagonalization with overlap

---- Real-time Memory Report at c_bands before calling an iterative solver
           375 MiB given to the printing process from OS
             0 MiB allocation reported by mallinfo(arena+hblkhd)
         95351 MiB available memory on the node where the printing process lives
------------------
     ethr =  7.34E-04,  avg # of iterations =  3.5

     negative rho (up, down):  1.279E+00 0.000E+00

     total cpu time spent up to now is       27.7 secs

     total energy              =   -3767.59450921 Ry
     estimated scf accuracy    <       1.27249978 Ry

     iteration # 12     ecut=    30.00 Ry     beta= 0.70
     Davidson diagonalization with overlap

---- Real-time Memory Report at c_bands before calling an iterative solver
           375 MiB given to the printing process from OS
             0 MiB allocation reported by mallinfo(arena+hblkhd)
         95346 MiB available memory on the node where the printing process lives
------------------
     ethr =  7.34E-04,  avg # of iterations =  1.2

     negative rho (up, down):  1.281E+00 0.000E+00

     total cpu time spent up to now is       29.4 secs

     total energy              =   -3767.46825544 Ry
     estimated scf accuracy    <       1.19558467 Ry

     iteration # 13     ecut=    30.00 Ry     beta= 0.70
     Davidson diagonalization with overlap

---- Real-time Memory Report at c_bands before calling an iterative solver
           375 MiB given to the printing process from OS
             0 MiB allocation reported by mallinfo(arena+hblkhd)
         95349 MiB available memory on the node where the printing process lives
------------------
     ethr =  7.34E-04,  avg # of iterations =  2.9

     negative rho (up, down):  1.280E+00 0.000E+00

     total cpu time spent up to now is       31.3 secs

     total energy              =   -3767.50467090 Ry
     estimated scf accuracy    <       0.47742847 Ry

     iteration # 14     ecut=    30.00 Ry     beta= 0.70
     Davidson diagonalization with overlap

---- Real-time Memory Report at c_bands before calling an iterative solver
           379 MiB given to the printing process from OS
             0 MiB allocation reported by mallinfo(arena+hblkhd)
         95337 MiB available memory on the node where the printing process lives
------------------
     ethr =  2.98E-04,  avg # of iterations =  6.1

     negative rho (up, down):  1.278E+00 0.000E+00

     total cpu time spent up to now is       33.3 secs

     total energy              =   -3767.60107443 Ry
     estimated scf accuracy    <       0.25834157 Ry

     iteration # 15     ecut=    30.00 Ry     beta= 0.70
     Davidson diagonalization with overlap

---- Real-time Memory Report at c_bands before calling an iterative solver
           379 MiB given to the printing process from OS
             0 MiB allocation reported by mallinfo(arena+hblkhd)
         95328 MiB available memory on the node where the printing process lives
------------------
     ethr =  1.61E-04,  avg # of iterations =  5.9

     negative rho (up, down):  1.278E+00 0.000E+00

     total cpu time spent up to now is       35.1 secs

     total energy              =   -3767.63496049 Ry
     estimated scf accuracy    <       0.80049176 Ry

     iteration # 16     ecut=    30.00 Ry     beta= 0.70
     Davidson diagonalization with overlap

---- Real-time Memory Report at c_bands before calling an iterative solver
           382 MiB given to the printing process from OS
             0 MiB allocation reported by mallinfo(arena+hblkhd)
         95322 MiB available memory on the node where the printing process lives
------------------
     ethr =  1.61E-04,  avg # of iterations =  1.1

     negative rho (up, down):  1.281E+00 0.000E+00

     total cpu time spent up to now is       36.6 secs

     total energy              =   -3767.49870045 Ry
     estimated scf accuracy    <       0.84303450 Ry

     iteration # 17     ecut=    30.00 Ry     beta= 0.70
     Davidson diagonalization with overlap

---- Real-time Memory Report at c_bands before calling an iterative solver
           382 MiB given to the printing process from OS
             0 MiB allocation reported by mallinfo(arena+hblkhd)
         95322 MiB available memory on the node where the printing process lives
------------------
     ethr =  1.61E-04,  avg # of iterations =  6.8

     negative rho (up, down):  1.283E+00 0.000E+00

     total cpu time spent up to now is       38.4 secs

     total energy              =   -3767.50571442 Ry
     estimated scf accuracy    <       0.16216843 Ry

     iteration # 18     ecut=    30.00 Ry     beta= 0.70
     Davidson diagonalization with overlap

---- Real-time Memory Report at c_bands before calling an iterative solver
           382 MiB given to the printing process from OS
             0 MiB allocation reported by mallinfo(arena+hblkhd)
         95323 MiB available memory on the node where the printing process lives
------------------
     ethr =  1.01E-04,  avg # of iterations =  7.1

     negative rho (up, down):  1.283E+00 0.000E+00

     total cpu time spent up to now is       40.3 secs

     total energy              =   -3767.53140130 Ry
     estimated scf accuracy    <       0.00733794 Ry

     iteration # 19     ecut=    30.00 Ry     beta= 0.70
     Davidson diagonalization with overlap

---- Real-time Memory Report at c_bands before calling an iterative solver
           382 MiB given to the printing process from OS
             0 MiB allocation reported by mallinfo(arena+hblkhd)
         95313 MiB available memory on the node where the printing process lives
------------------
     c_bands:  4 eigenvalues not converged
     c_bands:  4 eigenvalues not converged
     c_bands:  2 eigenvalues not converged
     c_bands:  3 eigenvalues not converged
     ethr =  4.59E-06,  avg # of iterations = 22.5

     negative rho (up, down):  1.283E+00 0.000E+00

     total cpu time spent up to now is       43.2 secs

     total energy              =   -3767.53662086 Ry
     estimated scf accuracy    <       0.03074863 Ry

     iteration # 20     ecut=    30.00 Ry     beta= 0.70
     Davidson diagonalization with overlap

---- Real-time Memory Report at c_bands before calling an iterative solver
           383 MiB given to the printing process from OS
             0 MiB allocation reported by mallinfo(arena+hblkhd)
         95280 MiB available memory on the node where the printing process lives
------------------
     c_bands:  1 eigenvalues not converged
     ethr =  4.59E-06,  avg # of iterations =  9.1

     negative rho (up, down):  1.281E+00 0.000E+00

     total cpu time spent up to now is       45.2 secs

     total energy              =   -3767.53392385 Ry
     estimated scf accuracy    <       0.03444188 Ry

     iteration # 21     ecut=    30.00 Ry     beta= 0.70
     Davidson diagonalization with overlap

---- Real-time Memory Report at c_bands before calling an iterative solver
           386 MiB given to the printing process from OS
             0 MiB allocation reported by mallinfo(arena+hblkhd)
         95270 MiB available memory on the node where the printing process lives
------------------
     ethr =  4.59E-06,  avg # of iterations =  2.0

     negative rho (up, down):  1.280E+00 0.000E+00

     total cpu time spent up to now is       46.8 secs

     total energy              =   -3767.53324578 Ry
     estimated scf accuracy    <       0.02207349 Ry

     iteration # 22     ecut=    30.00 Ry     beta= 0.70
     Davidson diagonalization with overlap

---- Real-time Memory Report at c_bands before calling an iterative solver
           387 MiB given to the printing process from OS
             0 MiB allocation reported by mallinfo(arena+hblkhd)
         95283 MiB available memory on the node where the printing process lives
------------------
     ethr =  4.59E-06,  avg # of iterations =  2.0

     negative rho (up, down):  1.279E+00 0.000E+00

     total cpu time spent up to now is       48.4 secs

     total energy              =   -3767.53146874 Ry
     estimated scf accuracy    <       0.01368807 Ry

     iteration # 23     ecut=    30.00 Ry     beta= 0.70
     Davidson diagonalization with overlap

---- Real-time Memory Report at c_bands before calling an iterative solver
           387 MiB given to the printing process from OS
             0 MiB allocation reported by mallinfo(arena+hblkhd)
         95299 MiB available memory on the node where the printing process lives
------------------
     ethr =  4.59E-06,  avg # of iterations =  7.6

     negative rho (up, down):  1.279E+00 0.000E+00

     total cpu time spent up to now is       50.6 secs

     total energy              =   -3767.53329951 Ry
     estimated scf accuracy    <       0.00159843 Ry

     iteration # 24     ecut=    30.00 Ry     beta= 0.70
     Davidson diagonalization with overlap

---- Real-time Memory Report at c_bands before calling an iterative solver
           387 MiB given to the printing process from OS
             0 MiB allocation reported by mallinfo(arena+hblkhd)
         95288 MiB available memory on the node where the printing process lives
------------------
     ethr =  9.99E-07,  avg # of iterations =  7.6

     negative rho (up, down):  1.280E+00 0.000E+00

     total cpu time spent up to now is       52.5 secs

     total energy              =   -3767.53350451 Ry
     estimated scf accuracy    <       0.00009557 Ry

     iteration # 25     ecut=    30.00 Ry     beta= 0.70
     Davidson diagonalization with overlap

---- Real-time Memory Report at c_bands before calling an iterative solver
           388 MiB given to the printing process from OS
             0 MiB allocation reported by mallinfo(arena+hblkhd)
         95277 MiB available memory on the node where the printing process lives
------------------
     c_bands:  4 eigenvalues not converged
     ethr =  5.97E-08,  avg # of iterations = 12.1

     negative rho (up, down):  1.280E+00 0.000E+00

     total cpu time spent up to now is       54.7 secs

     total energy              =   -3767.53358162 Ry
     estimated scf accuracy    <       0.00004585 Ry

     iteration # 26     ecut=    30.00 Ry     beta= 0.70
     Davidson diagonalization with overlap

---- Real-time Memory Report at c_bands before calling an iterative solver
           389 MiB given to the printing process from OS
             0 MiB allocation reported by mallinfo(arena+hblkhd)
         95273 MiB available memory on the node where the printing process lives
------------------
     ethr =  2.87E-08,  avg # of iterations =  7.0

     negative rho (up, down):  1.280E+00 0.000E+00

     total cpu time spent up to now is       56.6 secs

     total energy              =   -3767.53357809 Ry
     estimated scf accuracy    <       0.00004877 Ry

     iteration # 27     ecut=    30.00 Ry     beta= 0.70
     Davidson diagonalization with overlap

---- Real-time Memory Report at c_bands before calling an iterative solver
           389 MiB given to the printing process from OS
             0 MiB allocation reported by mallinfo(arena+hblkhd)
         95265 MiB available memory on the node where the printing process lives
------------------
     ethr =  2.87E-08,  avg # of iterations =  4.0

     negative rho (up, down):  1.280E+00 0.000E+00

     total cpu time spent up to now is       58.3 secs

     total energy              =   -3767.53357565 Ry
     estimated scf accuracy    <       0.00002451 Ry

     iteration # 28     ecut=    30.00 Ry     beta= 0.70
     Davidson diagonalization with overlap

---- Real-time Memory Report at c_bands before calling an iterative solver
           389 MiB given to the printing process from OS
             0 MiB allocation reported by mallinfo(arena+hblkhd)
         95265 MiB available memory on the node where the printing process lives
------------------
     ethr =  1.53E-08,  avg # of iterations =  7.1

     negative rho (up, down):  1.280E+00 0.000E+00

     total cpu time spent up to now is       60.1 secs

     End of self-consistent calculation

          k = 0.0000 0.0000 0.0000 (  4457 PWs)   bands (ev):

   -32.5864 -32.5843 -32.5837 -32.5833 -32.5551 -32.5547 -32.5544 -32.5534
   -32.5193 -32.5189 -32.5186 -32.5186 -18.5043 -18.4394 -18.4054 -18.3551
    -1.8774  -1.7452  -1.7062  -1.5718  -1.3439  -1.2759  -1.1991  -1.1946
    -1.1752  -1.0592  -0.8847  -0.8451   1.3408   1.3419   1.3493   1.3560
     1.3902   1.3919   1.3922   1.3974   1.4001   1.4021   1.4047   1.4168
     1.4183   1.4244   1.4246   1.4331   1.4493   1.4549   1.4576   1.4702
     7.1021   8.6393   9.4594   9.9529  11.3182  11.8196  12.0632  12.2401
    12.5392  12.6174  12.6805  12.8625  12.9983  13.0151  13.1408  13.1606
    13.2671  13.3462  13.4702  13.5010  13.6566  13.7884  13.8706  13.9702
    14.1863  14.2396  15.0587  15.1511  15.5174  15.5783  15.5932  15.8727
    16.0287  16.1744  16.2283  16.2659  16.2978  16.3505  16.3515  16.3597
    16.3817  16.4690

     occupation numbers 
     1.0000   1.0000   1.0000   1.0000   1.0000   1.0000   1.0000   1.0000
     1.0000   1.0000   1.0000   1.0000   1.0000   1.0000   1.0000   1.0000
     1.0000   1.0000   1.0000   1.0000   1.0000   1.0000   1.0000   1.0000
     1.0000   1.0000   1.0000   1.0000   1.0000   1.0000   1.0000   1.0000
     1.0000   1.0000   1.0000   1.0000   1.0000   1.0000   1.0000   1.0000
     1.0000   1.0000   1.0000   1.0000   1.0000   1.0000   1.0000   1.0000
     1.0000   1.0000   1.0000   1.0000   1.0000   1.0000   1.0000   1.0000
     1.0000   1.0000   1.0000   1.0000   1.0000   1.0000   1.0000   1.0000
     1.0000   1.0000   1.0000   1.0000   1.0000   1.0000   1.0000   1.0000
     1.0000   1.0000   1.0000   1.0000   1.0000   1.0000   1.0000   1.0000
     0.0000   0.0000   0.0000   0.0000   0.0000   0.0000   0.0000   0.0000
     0.0000   0.0000

          k = 0.0000 0.0000 0.1846 (  4446 PWs)   bands (ev):

   -32.5859 -32.5849 -32.5834 -32.5834 -32.5549 -32.5545 -32.5544 -32.5539
   -32.5193 -32.5190 -32.5186 -32.5185 -18.4928 -18.4640 -18.3845 -18.3629
    -1.8449  -1.7735  -1.6662  -1.5874  -1.3334  -1.3031  -1.2200  -1.2104
    -1.1358  -1.0815  -0.8765  -0.8561   1.3427   1.3453   1.3487   1.3502
     1.3818   1.3849   1.3961   1.4033   1.4040   1.4057   1.4072   1.4167
     1.4216   1.4218   1.4239   1.4296   1.4521   1.4545   1.4591   1.4652
     7.4593   8.2228   9.5737   9.7986  11.4453  11.8733  12.0486  12.2777
    12.4013  12.6136  12.6874  12.7649  12.8181  12.9295  12.9449  12.9702
    13.2560  13.4959  13.5261  13.6407  13.8466  13.8631  13.8682  13.9056
    14.0223  14.7165  15.0752  15.3032  15.6509  15.6847  15.7125  15.9223
    16.0450  16.0929  16.1941  16.2225  16.2319  16.3077  16.3550  16.3728
    16.4360  16.4398

     occupation numbers 
     1.0000   1.0000   1.0000   1.0000   1.0000   1.0000   1.0000   1.0000
     1.0000   1.0000   1.0000   1.0000   1.0000   1.0000   1.0000   1.0000
     1.0000   1.0000   1.0000   1.0000   1.0000   1.0000   1.0000   1.0000
     1.0000   1.0000   1.0000   1.0000   1.0000   1.0000   1.0000   1.0000
     1.0000   1.0000   1.0000   1.0000   1.0000   1.0000   1.0000   1.0000
     1.0000   1.0000   1.0000   1.0000   1.0000   1.0000   1.0000   1.0000
     1.0000   1.0000   1.0000   1.0000   1.0000   1.0000   1.0000   1.0000
     1.0000   1.0000   1.0000   1.0000   1.0000   1.0000   1.0000   1.0000
     1.0000   1.0000   1.0000   1.0000   1.0000   1.0000   1.0000   1.0000
     1.0000   1.0000   1.0000   1.0000   1.0000   1.0000   1.0000   1.0000
     0.0000   0.0000   0.0000   0.0000   0.0000   0.0000   0.0000   0.0000
     0.0000   0.0000

          k = 0.0000 0.2117 0.0000 (  4420 PWs)   bands (ev):

   -32.5855 -32.5840 -32.5840 -32.5836 -32.5551 -32.5549 -32.5538 -32.5535
   -32.5191 -32.5188 -32.5186 -32.5185 -18.4800 -18.4306 -18.4184 -18.3762
    -1.8079  -1.6518  -1.5642  -1.5296  -1.3270  -1.2929  -1.2919  -1.1463
    -1.1439  -1.1094  -1.0883  -0.9792   1.3402   1.3457   1.3479   1.3502
     1.3865   1.3890   1.3959   1.4011   1.4021   1.4023   1.4054   1.4056
     1.4236   1.4240   1.4249   1.4273   1.4569   1.4579   1.4628   1.4670
     7.5297   8.3269   9.5258   9.7401  11.3746  11.8950  12.1088  12.1250
    12.3250  12.3916  12.5126  12.6545  12.9495  12.9704  12.9966  13.1641
    13.3010  13.3820  13.3874  13.5360  13.7272  13.8162  13.8839  13.9549
    14.0721  14.4311  15.0685  15.5257  15.6189  15.7594  15.9801  16.0890
    16.1258  16.1840  16.2057  16.2684  16.2956  16.3181  16.3478  16.3522
    16.3794  16.3957

     occupation numbers 
     1.0000   1.0000   1.0000   1.0000   1.0000   1.0000   1.0000   1.0000
     1.0000   1.0000   1.0000   1.0000   1.0000   1.0000   1.0000   1.0000
     1.0000   1.0000   1.0000   1.0000   1.0000   1.0000   1.0000   1.0000
     1.0000   1.0000   1.0000   1.0000   1.0000   1.0000   1.0000   1.0000
     1.0000   1.0000   1.0000   1.0000   1.0000   1.0000   1.0000   1.0000
     1.0000   1.0000   1.0000   1.0000   1.0000   1.0000   1.0000   1.0000
     1.0000   1.0000   1.0000   1.0000   1.0000   1.0000   1.0000   1.0000
     1.0000   1.0000   1.0000   1.0000   1.0000   1.0000   1.0000   1.0000
     1.0000   1.0000   1.0000   1.0000   1.0000   1.0000   1.0000   1.0000
     1.0000   1.0000   1.0000   1.0000   1.0000   1.0000   1.0000   1.0000
     0.0000   0.0000   0.0000   0.0000   0.0000   0.0000   0.0000   0.0000
     0.0000   0.0000

          k = 0.0000 0.2117 0.1846 (  4434 PWs)   bands (ev):

   -32.5852 -32.5846 -32.5839 -32.5836 -32.5550 -32.5549 -32.5540 -32.5538
   -32.5191 -32.5189 -32.5186 -32.5186 -18.4718 -18.4511 -18.3997 -18.3826
    -1.7532  -1.6487  -1.5916  -1.5481  -1.3205  -1.3040  -1.2767  -1.2196
    -1.1291  -1.1006  -1.0496  -0.9990   1.3426   1.3467   1.3470   1.3496
     1.3863   1.3889   1.3969   1.3983   1.4001   1.4039   1.4048   1.4072
     1.4196   1.4203   1.4246   1.4279   1.4583   1.4589   1.4642   1.4667
     7.8017   8.2427   9.4466   9.5297  11.5164  11.7388  11.8717  12.1013
    12.3093  12.5479  12.7106  12.7389  12.8913  12.9700  12.9955  13.1658
    13.2686  13.4533  13.4881  13.5244  13.5627  13.8411  13.8734  13.9189
    14.2399  14.4465  15.0726  15.4595  15.6525  15.6829  15.9015  16.1292
    16.1699  16.1704  16.2047  16.2232  16.2503  16.3073  16.3513  16.3553
    16.4050  16.4071

     occupation numbers 
     1.0000   1.0000   1.0000   1.0000   1.0000   1.0000   1.0000   1.0000
     1.0000   1.0000   1.0000   1.0000   1.0000   1.0000   1.0000   1.0000
     1.0000   1.0000   1.0000   1.0000   1.0000   1.0000   1.0000   1.0000
     1.0000   1.0000   1.0000   1.0000   1.0000   1.0000   1.0000   1.0000
     1.0000   1.0000   1.0000   1.0000   1.0000   1.0000   1.0000   1.0000
     1.0000   1.0000   1.0000   1.0000   1.0000   1.0000   1.0000   1.0000
     1.0000   1.0000   1.0000   1.0000   1.0000   1.0000   1.0000   1.0000
     1.0000   1.0000   1.0000   1.0000   1.0000   1.0000   1.0000   1.0000
     1.0000   1.0000   1.0000   1.0000   1.0000   1.0000   1.0000   1.0000
     1.0000   1.0000   1.0000   1.0000   1.0000   1.0000   1.0000   1.0000
     0.0000   0.0000   0.0000   0.0000   0.0000   0.0000   0.0000   0.0000
     0.0000   0.0000

          k = 0.3333 0.0000 0.0000 (  4440 PWs)   bands (ev):

   -32.5855 -32.5844 -32.5834 -32.5833 -32.5547 -32.5544 -32.5542 -32.5539
   -32.5207 -32.5203 -32.5198 -32.5196 -18.4785 -18.4460 -18.3897 -18.3644
    -1.7963  -1.7230  -1.6118  -1.6079  -1.5953  -1.4501  -1.2772  -1.1759
    -1.1685  -1.1674  -0.8843  -0.8609   1.3504   1.3614   1.3656   1.3670
     1.3738   1.3861   1.3947   1.3978   1.3978   1.4029   1.4050   1.4123
     1.4140   1.4163   1.4203   1.4214   1.4486   1.4623   1.4710   1.4734
     8.1645   8.9484   9.3198   9.5464  11.5114  11.9423  12.1130  12.3553
    12.4616  12.5624  12.9367  12.9546  13.0875  13.1128  13.3156  13.3401
    13.4152  13.5621  13.5956  13.6861  13.6885  13.8738  13.9173  13.9732
    14.0027  14.2059  14.8477  14.9772  15.1447  15.2872  15.6820  15.7311
    16.0177  16.0529  16.2330  16.3346  16.3747  16.3799  16.3821  16.3958
    16.4230  16.4367

     occupation numbers 
     1.0000   1.0000   1.0000   1.0000   1.0000   1.0000   1.0000   1.0000
     1.0000   1.0000   1.0000   1.0000   1.0000   1.0000   1.0000   1.0000
     1.0000   1.0000   1.0000   1.0000   1.0000   1.0000   1.0000   1.0000
     1.0000   1.0000   1.0000   1.0000   1.0000   1.0000   1.0000   1.0000
     1.0000   1.0000   1.0000   1.0000   1.0000   1.0000   1.0000   1.0000
     1.0000   1.0000   1.0000   1.0000   1.0000   1.0000   1.0000   1.0000
     1.0000   1.0000   1.0000   1.0000   1.0000   1.0000   1.0000   1.0000
     1.0000   1.0000   1.0000   1.0000   1.0000   1.0000   1.0000   1.0000
     1.0000   1.0000   1.0000   1.0000   1.0000   1.0000   1.0000   1.0000
     1.0000   1.0000   1.0000   1.0000   1.0000   1.0000   1.0000   1.0000
     0.0000   0.0000   0.0000   0.0000   0.0000   0.0000   0.0000   0.0000
     0.0000   0.0000

          k = 0.3333 0.0000 0.1846 (  4437 PWs)   bands (ev):

   -32.5852 -32.5847 -32.5834 -32.5833 -32.5545 -32.5544 -32.5542 -32.5540
   -32.5205 -32.5203 -32.5198 -32.5196 -18.4719 -18.4562 -18.3813 -18.3693
    -1.7782  -1.7420  -1.6539  -1.6355  -1.5254  -1.4832  -1.2354  -1.2015
    -1.1647  -1.1587  -0.8744  -0.8637   1.3531   1.3583   1.3697   1.3701
     1.3834   1.3867   1.3902   1.3920   1.3989   1.4033   1.4047   1.4094
     1.4151   1.4161   1.4199   1.4208   1.4539   1.4623   1.4689   1.4690
     8.3581   8.7505   9.3215   9.4381  11.4988  11.7944  12.3045  12.4011
    12.5926  12.6695  12.7903  12.8312  12.8909  13.2499  13.3260  13.4470
    13.4758  13.4835  13.5515  13.5795  13.7473  13.8003  13.8076  13.9652
    13.9746  14.6883  14.8628  14.9998  15.1741  15.3745  15.5376  15.8261
    16.0594  16.1310  16.1569  16.1781  16.3833  16.3931  16.3983  16.4014
    16.4152  16.4214

     occupation numbers 
     1.0000   1.0000   1.0000   1.0000   1.0000   1.0000   1.0000   1.0000
     1.0000   1.0000   1.0000   1.0000   1.0000   1.0000   1.0000   1.0000
     1.0000   1.0000   1.0000   1.0000   1.0000   1.0000   1.0000   1.0000
     1.0000   1.0000   1.0000   1.0000   1.0000   1.0000   1.0000   1.0000
     1.0000   1.0000   1.0000   1.0000   1.0000   1.0000   1.0000   1.0000
     1.0000   1.0000   1.0000   1.0000   1.0000   1.0000   1.0000   1.0000
     1.0000   1.0000   1.0000   1.0000   1.0000   1.0000   1.0000   1.0000
     1.0000   1.0000   1.0000   1.0000   1.0000   1.0000   1.0000   1.0000
     1.0000   1.0000   1.0000   1.0000   1.0000   1.0000   1.0000   1.0000
     1.0000   1.0000   1.0000   1.0000   1.0000   1.0000   1.0000   1.0000
     0.0000   0.0000   0.0000   0.0000   0.0000   0.0000   0.0000   0.0000
     0.0000   0.0000

          k = 0.3333 0.2117 0.0000 (  4434 PWs)   bands (ev):

   -32.5849 -32.5842 -32.5839 -32.5836 -32.5546 -32.5546 -32.5539 -32.5539
   -32.5204 -32.5200 -32.5200 -32.5198 -18.4566 -18.4258 -18.4122 -18.3850
    -1.6994  -1.6246  -1.5880  -1.5584  -1.5089  -1.4352  -1.3110  -1.2483
    -1.1845  -1.1419  -1.0567  -1.0070   1.3549   1.3602   1.3707   1.3719
     1.3797   1.3884   1.3893   1.3926   1.3993   1.4010   1.4068   1.4084
     1.4131   1.4148   1.4214   1.4215   1.4543   1.4589   1.4608   1.4736
     8.3471   8.6857   9.4826   9.5562  11.6045  11.7791  11.9330  12.3885
    12.4429  12.5835  12.7599  12.7976  13.0358  13.0659  13.1525  13.3673
    13.4743  13.5418  13.6493  13.7783  13.7842  13.8665  13.9811  14.0387
    14.4045  14.4718  14.7838  14.8813  15.1260  15.3399  15.4982  15.9393
    16.1359  16.2158  16.2574  16.3147  16.3220  16.3347  16.3646  16.3817
    16.3996  16.4112

     occupation numbers 
     1.0000   1.0000   1.0000   1.0000   1.0000   1.0000   1.0000   1.0000
     1.0000   1.0000   1.0000   1.0000   1.0000   1.0000   1.0000   1.0000
     1.0000   1.0000   1.0000   1.0000   1.0000   1.0000   1.0000   1.0000
     1.0000   1.0000   1.0000   1.0000   1.0000   1.0000   1.0000   1.0000
     1.0000   1.0000   1.0000   1.0000   1.0000   1.0000   1.0000   1.0000
     1.0000   1.0000   1.0000   1.0000   1.0000   1.0000   1.0000   1.0000
     1.0000   1.0000   1.0000   1.0000   1.0000   1.0000   1.0000   1.0000
     1.0000   1.0000   1.0000   1.0000   1.0000   1.0000   1.0000   1.0000
     1.0000   1.0000   1.0000   1.0000   1.0000   1.0000   1.0000   1.0000
     1.0000   1.0000   1.0000   1.0000   1.0000   1.0000   1.0000   1.0000
     0.0000   0.0000   0.0000   0.0000   0.0000   0.0000   0.0000   0.0000
     0.0000   0.0000

          k = 0.3333 0.2117 0.1846 (  4438 PWs)   bands (ev):

   -32.5847 -32.5844 -32.5838 -32.5836 -32.5546 -32.5545 -32.5541 -32.5540
   -32.5204 -32.5201 -32.5199 -32.5198 -18.4514 -18.4380 -18.4009 -18.3893
    -1.7011  -1.6589  -1.5859  -1.5531  -1.5029  -1.4683  -1.2515  -1.2216
    -1.1925  -1.1615  -1.0448  -1.0196   1.3551   1.3577   1.3723   1.3741
     1.3853   1.3884   1.3906   1.3920   1.3996   1.4016   1.4072   1.4084
     1.4135   1.4152   1.4193   1.4207   1.4555   1.4586   1.4608   1.4690
     8.4557   8.6282   9.4228   9.4702  11.5532  11.6275  12.0690  12.3425
    12.6115  12.6949  12.8316  12.8744  13.0552  13.1049  13.2892  13.3753
    13.4864  13.5790  13.6445  13.6884  13.7543  13.8680  13.9149  13.9176
    14.1533  14.4823  14.5823  14.7172  15.2252  15.4615  15.5390  15.6423
    16.1732  16.2139  16.2680  16.2828  16.3459  16.3646  16.3797  16.3809
    16.3961  16.4332

     occupation numbers 
     1.0000   1.0000   1.0000   1.0000   1.0000   1.0000   1.0000   1.0000
     1.0000   1.0000   1.0000   1.0000   1.0000   1.0000   1.0000   1.0000
     1.0000   1.0000   1.0000   1.0000   1.0000   1.0000   1.0000   1.0000
     1.0000   1.0000   1.0000   1.0000   1.0000   1.0000   1.0000   1.0000
     1.0000   1.0000   1.0000   1.0000   1.0000   1.0000   1.0000   1.0000
     1.0000   1.0000   1.0000   1.0000   1.0000   1.0000   1.0000   1.0000
     1.0000   1.0000   1.0000   1.0000   1.0000   1.0000   1.0000   1.0000
     1.0000   1.0000   1.0000   1.0000   1.0000   1.0000   1.0000   1.0000
     1.0000   1.0000   1.0000   1.0000   1.0000   1.0000   1.0000   1.0000
     1.0000   1.0000   1.0000   1.0000   1.0000   1.0000   1.0000   1.0000
     0.0000   0.0000   0.0000   0.0000   0.0000   0.0000   0.0000   0.0000
     0.0000   0.0000

     highest occupied, lowest unoccupied level (ev):    16.1292   16.0177

!    total energy              =   -3767.53357841 Ry
     estimated scf accuracy    <       0.00000052 Ry

     The total energy is the sum of the following terms:
     one-electron contribution =    -492.75248839 Ry
     hartree contribution      =     390.50248496 Ry
     xc contribution           =    -395.84685621 Ry
     ewald contribution        =   -1192.56074565 Ry
     one-center paw contrib.   =   -2076.87597311 Ry
      -> PAW hartree energy AE =      87.97200380 Ry
      -> PAW hartree energy PS =     -87.47240551 Ry
      -> PAW xc energy AE      =    -834.22083198 Ry
      -> PAW xc energy PS      =      17.12943334 Ry
      -> total E_H with PAW    =     391.00208324 Ry
      -> total E_XC with PAW   =   -1212.93825485 Ry

     convergence has been achieved in  28 iterations

     Writing all to output data dir calculations_bands/myprefix.save/
 
     init_run     :     12.41s CPU      4.04s WALL (       1 calls)
     electrons    :    206.54s CPU     55.59s WALL (       1 calls)

     Called by init_run:
     wfcinit      :      2.18s CPU      0.58s WALL (       1 calls)
     wfcinit:atom :      0.02s CPU      0.01s WALL (       4 calls)
     wfcinit:wfcr :      1.98s CPU      0.53s WALL (       4 calls)
     potinit      :      4.66s CPU      1.25s WALL (       1 calls)
     hinit0       :      3.63s CPU      1.43s WALL (       1 calls)

     Called by electrons:
     c_bands      :     88.04s CPU     23.17s WALL (      28 calls)
     sum_band     :     24.82s CPU      7.17s WALL (      28 calls)
     v_of_rho     :      2.33s CPU      0.63s WALL (      29 calls)
     v_h          :      0.16s CPU      0.04s WALL (      29 calls)
     v_xc         :      2.17s CPU      0.59s WALL (      29 calls)
     newd         :     27.00s CPU      7.78s WALL (      29 calls)
     PAW_pot      :     67.02s CPU     17.60s WALL (      29 calls)
     mix_rho      :      0.71s CPU      0.19s WALL (      28 calls)

     Called by c_bands:
     init_us_2    :      0.69s CPU      0.19s WALL (     228 calls)
     init_us_2:cp :      0.68s CPU      0.19s WALL (     228 calls)
     cegterg      :     73.05s CPU     19.14s WALL (     112 calls)

     Called by sum_band:
     sum_band:wei :      0.03s CPU      0.01s WALL (      28 calls)
     sum_band:loo :      8.64s CPU      2.24s WALL (      28 calls)
     sum_band:buf :      0.16s CPU      0.04s WALL (     112 calls)
     sum_band:ini :      0.33s CPU      0.08s WALL (     112 calls)
     sum_band:cal :      0.89s CPU      0.23s WALL (     112 calls)
     sum_band:bec :      0.14s CPU      0.04s WALL (     112 calls)
     addusdens    :     12.89s CPU      4.06s WALL (      28 calls)
     addusd:skk   :      0.03s CPU      0.01s WALL (      84 calls)
     addusd:dgemm :      1.51s CPU      1.06s WALL (      84 calls)
     addusd:qvan2 :      8.00s CPU      2.01s WALL (      84 calls)

     Called by *egterg:
     cdiaghg      :     20.10s CPU      5.29s WALL (     723 calls)
     cegterg:over :      3.27s CPU      0.87s WALL (     611 calls)
     cegterg:upda :      1.98s CPU      0.52s WALL (     611 calls)
     cegterg:last :      2.88s CPU      0.73s WALL (     238 calls)
     cdiaghg:chol :      1.26s CPU      0.34s WALL (     723 calls)
     cdiaghg:inve :      0.27s CPU      0.07s WALL (     723 calls)
     cdiaghg:para :      3.06s CPU      0.81s WALL (    1446 calls)
     h_psi        :     42.95s CPU     11.24s WALL (     727 calls)
     s_psi        :      1.99s CPU      0.51s WALL (     727 calls)
     g_psi        :      0.09s CPU      0.02s WALL (     611 calls)

     Called by h_psi:
     h_psi:calbec :      2.79s CPU      0.73s WALL (     727 calls)
     vloc_psi     :     37.65s CPU      9.86s WALL (     727 calls)
     add_vuspsi   :      2.33s CPU      0.60s WALL (     727 calls)

     General routines
     calbec       :      3.65s CPU      0.95s WALL (     839 calls)
     fft          :      2.87s CPU      0.91s WALL (     375 calls)
     ffts         :      1.09s CPU      0.32s WALL (      57 calls)
     fftw         :     37.80s CPU      9.90s WALL (   62060 calls)
     interpolate  :      1.22s CPU      0.36s WALL (      29 calls)
 
     Parallel routines

     PAW routines
     PAW_pot      :     67.02s CPU     17.60s WALL (      29 calls)
     PAW_symme    :      0.24s CPU      0.06s WALL (      57 calls)
 
     PWSCF        :   3m40.00s CPU   1m 0.95s WALL

 
   This run was terminated on:   3:41:22  23Jun2023            

=------------------------------------------------------------------------------=
   JOB DONE.
=------------------------------------------------------------------------------=
