
     Program PWSCF v.7.0 starts on  5Jun2023 at 20:18: 7 

     This program is part of the open-source Quantum ESPRESSO suite
     for quantum simulation of materials; please cite
         "P. Giannozzi et al., J. Phys.:Condens. Matter 21 395502 (2009);
         "P. Giannozzi et al., J. Phys.:Condens. Matter 29 465901 (2017);
         "P. Giannozzi et al., J. Chem. Phys. 152 154105 (2020);
          URL http://www.quantum-espresso.org", 
     in publications or presentations arising from this work. More details at
     http://www.quantum-espresso.org/quote

     Parallel version (MPI & OpenMP), running on      32 processor cores
     Number of MPI processes:                 8
     Threads/MPI process:                     4

     MPI processes distributed on     1 nodes
     K-points division:     npool     =       2
     R & G space division:  proc/nbgrp/npool/nimage =       4
     108349 MiB available memory on the printing compute node when the environment starts
 
     Reading input from espresso_11391.pwi
Warning: card &CELL ignored
Warning: card / ignored

     Current dimensions of program PWSCF are:
     Max number of different atomic species (ntypx) = 10
     Max number of k-points (npk) =  40000
     Max angular momentum in pseudopotentials (lmaxx) =  4
     file Fe.pbe-spn-kjpaw_psl.0.2.1.UPF: wavefunction(s)  3D renormalized
     Message from routine setup:
     using ibrav=0 with symmetry is DISCOURAGED, use correct ibrav instead

     Subspace diagonalization in iterative solution of the eigenvalue problem:
     one sub-group per band group will be used
     scalapack distributed-memory algorithm (size of sub-group:  2*  2 procs)

 
     Parallelization info
     --------------------
     sticks:   dense  smooth     PW     G-vecs:    dense   smooth      PW
     Min         302     150     47                17002     6016    1069
     Max         303     152     48                17007     6019    1072
     Sum        1209     603    191                68017    24069    4283
 
     Using Slab Decomposition
 


     bravais-lattice index     =            0
     lattice parameter (alat)  =      10.7698  a.u.
     unit-cell volume          =    1084.6326 (a.u.)^3
     number of atoms/cell      =            8
     number of atomic types    =            2
     number of electrons       =       104.00
     number of Kohn-Sham states=           64
     kinetic-energy cutoff     =      30.0000  Ry
     charge density cutoff     =     240.0000  Ry
     scf convergence threshold =      1.0E-06
     mixing beta               =       0.7000
     number of iterations used =            8  plain     mixing
     Exchange-correlation= SLA  PW   PBX  PBC
                           (   1   4   3   4   0   0   0)

     celldm(1)=  10.769826  celldm(2)=   0.000000  celldm(3)=   0.000000
     celldm(4)=   0.000000  celldm(5)=   0.000000  celldm(6)=   0.000000

     crystal axes: (cart. coord. in units of alat)
               a(1) = (   1.000000   0.000000   0.000000 )  
               a(2) = (  -0.837966   0.545722   0.000000 )  
               a(3) = (   0.000000   0.000000   1.591054 )  

     reciprocal axes: (cart. coord. in units 2 pi/alat)
               b(1) = (  1.000000  1.535518  0.000000 )  
               b(2) = (  0.000000  1.832434  0.000000 )  
               b(3) = (  0.000000  0.000000  0.628514 )  


     PseudoPot. # 1 for Zr read from file:
     /home/pragov/projects/rrg-bengioy-ad/pragov/crystal_structure_design/SSSP/Zr_pbe_v1.uspp.F.UPF
     MD5 check sum: 5db81b1e868ab7776c4564c113de050b
     Pseudo is Ultrasoft + core correction, Zval = 12.0
     Generated by new atomic code, or converted to UPF format
     Using radial grid of  887 points,  6 beta functions with: 
                l(1) =   0
                l(2) =   0
                l(3) =   1
                l(4) =   1
                l(5) =   2
                l(6) =   2
     Q(r) pseudized with  6 coefficients,  rinner =    1.200   1.200   1.200
                                                       1.200   1.200

     PseudoPot. # 2 for Fe read from file:
     /home/pragov/projects/rrg-bengioy-ad/pragov/crystal_structure_design/SSSP/Fe.pbe-spn-kjpaw_psl.0.2.1.UPF
     MD5 check sum: e86618425769142926afa95317d90200
     Pseudo is Projector augmented-wave + core cor, Zval = 16.0
     Generated using "atomic" code by A. Dal Corso  v.5.0.99 svn rev. 10869
     Shape of augmentation charge: PSQ
     Using radial grid of 1191 points,  6 beta functions with: 
                l(1) =   0
                l(2) =   0
                l(3) =   1
                l(4) =   1
                l(5) =   2
                l(6) =   2
     Q(r) pseudized with 0 coefficients 


     atomic species   valence    mass     pseudopotential
        Zr            12.00    91.22400     Zr( 1.00)
        Fe            16.00    55.84500     Fe( 1.00)

      4 Sym. Ops., with inversion, found ( 2 have fractional translation)


                                    s                        frac. trans.

      isym =  1     identity                                     

 cryst.   s( 1) = (     1          0          0      )
                  (     0          1          0      )
                  (     0          0          1      )

 cart.    s( 1) = (  1.0000000  0.0000000  0.0000000 )
                  (  0.0000000  1.0000000  0.0000000 )
                  (  0.0000000  0.0000000  1.0000000 )


      isym =  2     180 deg rotation - cart. axis [0,0,1]        

 cryst.   s( 2) = (    -1          0          0      )    f =( -0.0000000 )
                  (     0         -1          0      )       ( -0.0000000 )
                  (     0          0          1      )       ( -0.5000000 )

 cart.    s( 2) = ( -1.0000000 -0.0000000  0.0000000 )    f =(  0.0000000 )
                  (  0.0000000 -1.0000000  0.0000000 )       ( -0.0000000 )
                  (  0.0000000  0.0000000  1.0000000 )       ( -0.7955271 )


      isym =  3     inversion                                    

 cryst.   s( 3) = (    -1          0          0      )
                  (     0         -1          0      )
                  (     0          0         -1      )

 cart.    s( 3) = ( -1.0000000 -0.0000000  0.0000000 )
                  (  0.0000000 -1.0000000  0.0000000 )
                  (  0.0000000  0.0000000 -1.0000000 )


      isym =  4     inv. 180 deg rotation - cart. axis [0,0,1]   

 cryst.   s( 4) = (     1          0          0      )    f =(  0.0000000 )
                  (     0          1          0      )       (  0.0000000 )
                  (     0          0         -1      )       (  0.5000000 )

 cart.    s( 4) = (  1.0000000  0.0000000  0.0000000 )    f =(  0.0000000 )
                  (  0.0000000  1.0000000  0.0000000 )       (  0.0000000 )
                  (  0.0000000  0.0000000 -1.0000000 )       (  0.7955271 )


   Cartesian axes

     site n.     atom                  positions (alat units)
         1           Zr  tau(   1) = (   0.7483218   0.0747274   0.7018252  )
         2           Zr  tau(   2) = (  -0.5862879   0.4709949   0.8892291  )
         3           Zr  tau(   3) = (   0.7483218   0.0747274   0.0937020  )
         4           Zr  tau(   4) = (  -0.5862879   0.4709949   1.4973523  )
         5           Zr  tau(   5) = (   0.2156645   0.2328821   0.3977636  )
         6           Zr  tau(   6) = (  -0.0536306   0.3128402   1.1932907  )
         7           Fe  tau(   7) = (  -0.3498611   0.4007959   0.3977636  )
         8           Fe  tau(   8) = (   0.5118950   0.1449264   1.1932907  )

   Crystallographic axes

     site n.     atom                  positions (cryst. coord.)
         1           Zr  tau(   1) = (  0.8630670  0.1369330  0.4411070  )
         2           Zr  tau(   2) = (  0.1369330  0.8630670  0.5588930  )
         3           Zr  tau(   3) = (  0.8630670  0.1369330  0.0588930  )
         4           Zr  tau(   4) = (  0.1369330  0.8630670  0.9411070  )
         5           Zr  tau(   5) = (  0.5732590  0.4267410  0.2500000  )
         6           Zr  tau(   6) = (  0.4267410  0.5732590  0.7500000  )
         7           Fe  tau(   7) = (  0.2655680  0.7344320  0.2500000  )
         8           Fe  tau(   8) = (  0.7344320  0.2655680  0.7500000  )

     number of k points=    10
                       cart. coord. in units 2pi/alat
        k(    1) = (   0.0000000   0.0000000   0.0000000), wk =   0.0740741
        k(    2) = (   0.0000000   0.0000000   0.2095047), wk =   0.1481481
        k(    3) = (   0.0000000   0.6108113   0.0000000), wk =   0.1481481
        k(    4) = (   0.0000000   0.6108113   0.2095047), wk =   0.2962963
        k(    5) = (   0.3333333   0.5118392   0.0000000), wk =   0.1481481
        k(    6) = (   0.3333333   0.5118392   0.2095047), wk =   0.2962963
        k(    7) = (   0.3333333   1.1226506   0.0000000), wk =   0.1481481
        k(    8) = (   0.3333333   1.1226506   0.2095047), wk =   0.2962963
        k(    9) = (   0.3333333  -0.0989721   0.0000000), wk =   0.1481481
        k(   10) = (   0.3333333  -0.0989721   0.2095047), wk =   0.2962963

                       cryst. coord.
        k(    1) = (   0.0000000   0.0000000   0.0000000), wk =   0.0740741
        k(    2) = (   0.0000000   0.0000000   0.3333333), wk =   0.1481481
        k(    3) = (   0.0000000   0.3333333   0.0000000), wk =   0.1481481
        k(    4) = (   0.0000000   0.3333333   0.3333333), wk =   0.2962963
        k(    5) = (   0.3333333   0.0000000   0.0000000), wk =   0.1481481
        k(    6) = (   0.3333333   0.0000000   0.3333333), wk =   0.2962963
        k(    7) = (   0.3333333   0.3333333   0.0000000), wk =   0.1481481
        k(    8) = (   0.3333333   0.3333333   0.3333333), wk =   0.2962963
        k(    9) = (   0.3333333  -0.3333333   0.0000000), wk =   0.1481481
        k(   10) = (   0.3333333  -0.3333333   0.3333333), wk =   0.2962963

     Dense  grid:    68017 G-vectors     FFT dimensions: (  54,  54,  90)

     Smooth grid:    24069 G-vectors     FFT dimensions: (  40,  40,  60)

     Dynamical RAM for                 wfc:       0.73 MB

     Dynamical RAM for     wfc (w. buffer):       4.41 MB

     Dynamical RAM for           str. fact:       0.52 MB

     Dynamical RAM for           local pot:       0.00 MB

     Dynamical RAM for          nlocal pot:       1.65 MB

     Dynamical RAM for                qrad:       2.49 MB

     Dynamical RAM for          rho,v,vnew:       2.31 MB

     Dynamical RAM for               rhoin:       0.77 MB

     Dynamical RAM for            rho*nmix:       4.15 MB

     Dynamical RAM for           G-vectors:       1.02 MB

     Dynamical RAM for          h,s,v(r/c):       0.19 MB

     Dynamical RAM for          <psi|beta>:       0.14 MB

     Dynamical RAM for                 psi:       1.47 MB

     Dynamical RAM for                hpsi:       1.47 MB

     Dynamical RAM for                spsi:       1.47 MB

     Dynamical RAM for      wfcinit/wfcrot:       2.64 MB

     Dynamical RAM for           addusdens:      25.04 MB

     Estimated static dynamical RAM per process >      16.51 MB

     Estimated max dynamical RAM per process >      45.70 MB

     Estimated total dynamical RAM >     348.96 MB

     Check: negative core charge=   -0.000084

     Initial potential from superposition of free atoms

     starting charge     103.9862, renormalised to     104.0000

     negative rho (up, down):  3.643E-01 0.000E+00
     Starting wfcs are  104 randomized atomic wfcs
     Checking if some PAW data can be deallocated... 
       PAW data deallocated on    6 nodes for type:  2

     total cpu time spent up to now is        2.3 secs

     Self-consistent Calculation

     iteration #  1     ecut=    30.00 Ry     beta= 0.70
     Davidson diagonalization with overlap

---- Real-time Memory Report at c_bands before calling an iterative solver
           197 MiB given to the printing process from OS
             0 MiB allocation reported by mallinfo(arena+hblkhd)
        107648 MiB available memory on the node where the printing process lives
------------------
     ethr =  1.00E-02,  avg # of iterations =  2.0

     negative rho (up, down):  3.715E-01 0.000E+00

     total cpu time spent up to now is        3.5 secs

     total energy              =   -1249.04253765 Ry
     estimated scf accuracy    <       4.87842873 Ry

     iteration #  2     ecut=    30.00 Ry     beta= 0.70
     Davidson diagonalization with overlap

---- Real-time Memory Report at c_bands before calling an iterative solver
           265 MiB given to the printing process from OS
             0 MiB allocation reported by mallinfo(arena+hblkhd)
        107124 MiB available memory on the node where the printing process lives
------------------
     ethr =  4.69E-03,  avg # of iterations =  6.5

     negative rho (up, down):  3.694E-01 0.000E+00

     total cpu time spent up to now is        5.5 secs

     total energy              =   -1250.32951887 Ry
     estimated scf accuracy    <      98.51194570 Ry

     iteration #  3     ecut=    30.00 Ry     beta= 0.70
     Davidson diagonalization with overlap

---- Real-time Memory Report at c_bands before calling an iterative solver
           271 MiB given to the printing process from OS
             0 MiB allocation reported by mallinfo(arena+hblkhd)
        107064 MiB available memory on the node where the printing process lives
------------------
     ethr =  4.69E-03,  avg # of iterations =  5.6

     negative rho (up, down):  3.696E-01 0.000E+00

     total cpu time spent up to now is        6.5 secs

     total energy              =   -1252.78060828 Ry
     estimated scf accuracy    <      16.93254040 Ry

     iteration #  4     ecut=    30.00 Ry     beta= 0.70
     Davidson diagonalization with overlap

---- Real-time Memory Report at c_bands before calling an iterative solver
           273 MiB given to the printing process from OS
             0 MiB allocation reported by mallinfo(arena+hblkhd)
        107054 MiB available memory on the node where the printing process lives
------------------
     ethr =  4.69E-03,  avg # of iterations =  2.1

     negative rho (up, down):  3.703E-01 0.000E+00

     total cpu time spent up to now is        7.1 secs

     total energy              =   -1252.74653833 Ry
     estimated scf accuracy    <       6.79261013 Ry

     iteration #  5     ecut=    30.00 Ry     beta= 0.70
     Davidson diagonalization with overlap

---- Real-time Memory Report at c_bands before calling an iterative solver
           273 MiB given to the printing process from OS
             0 MiB allocation reported by mallinfo(arena+hblkhd)
        107052 MiB available memory on the node where the printing process lives
------------------
     ethr =  4.69E-03,  avg # of iterations =  1.4

     negative rho (up, down):  3.742E-01 0.000E+00

     total cpu time spent up to now is        7.7 secs

     total energy              =   -1252.64669584 Ry
     estimated scf accuracy    <       2.07354350 Ry

     iteration #  6     ecut=    30.00 Ry     beta= 0.70
     Davidson diagonalization with overlap

---- Real-time Memory Report at c_bands before calling an iterative solver
           273 MiB given to the printing process from OS
             0 MiB allocation reported by mallinfo(arena+hblkhd)
        107050 MiB available memory on the node where the printing process lives
------------------
     ethr =  1.99E-03,  avg # of iterations =  3.1

     negative rho (up, down):  3.745E-01 0.000E+00

     total cpu time spent up to now is        8.4 secs

     total energy              =   -1252.84946881 Ry
     estimated scf accuracy    <       0.18012407 Ry

     iteration #  7     ecut=    30.00 Ry     beta= 0.70
     Davidson diagonalization with overlap

---- Real-time Memory Report at c_bands before calling an iterative solver
           273 MiB given to the printing process from OS
             0 MiB allocation reported by mallinfo(arena+hblkhd)
        107051 MiB available memory on the node where the printing process lives
------------------
     ethr =  1.73E-04,  avg # of iterations =  5.9

     negative rho (up, down):  3.750E-01 0.000E+00

     total cpu time spent up to now is        9.3 secs

     total energy              =   -1252.85773055 Ry
     estimated scf accuracy    <       0.31276533 Ry

     iteration #  8     ecut=    30.00 Ry     beta= 0.70
     Davidson diagonalization with overlap

---- Real-time Memory Report at c_bands before calling an iterative solver
           273 MiB given to the printing process from OS
             0 MiB allocation reported by mallinfo(arena+hblkhd)
        107041 MiB available memory on the node where the printing process lives
------------------
     ethr =  1.73E-04,  avg # of iterations =  1.0

     negative rho (up, down):  3.753E-01 0.000E+00

     total cpu time spent up to now is        9.9 secs

     total energy              =   -1252.86123243 Ry
     estimated scf accuracy    <       0.05020052 Ry

     iteration #  9     ecut=    30.00 Ry     beta= 0.70
     Davidson diagonalization with overlap

---- Real-time Memory Report at c_bands before calling an iterative solver
           273 MiB given to the printing process from OS
             0 MiB allocation reported by mallinfo(arena+hblkhd)
        107066 MiB available memory on the node where the printing process lives
------------------
     ethr =  4.83E-05,  avg # of iterations =  1.2

     negative rho (up, down):  3.757E-01 0.000E+00

     total cpu time spent up to now is       10.5 secs

     total energy              =   -1252.86121160 Ry
     estimated scf accuracy    <       0.01241728 Ry

     iteration # 10     ecut=    30.00 Ry     beta= 0.70
     Davidson diagonalization with overlap

---- Real-time Memory Report at c_bands before calling an iterative solver
           273 MiB given to the printing process from OS
             0 MiB allocation reported by mallinfo(arena+hblkhd)
        107040 MiB available memory on the node where the printing process lives
------------------
     ethr =  1.19E-05,  avg # of iterations =  2.5

     negative rho (up, down):  3.759E-01 0.000E+00

     total cpu time spent up to now is       11.1 secs

     total energy              =   -1252.86191270 Ry
     estimated scf accuracy    <       0.00012514 Ry

     iteration # 11     ecut=    30.00 Ry     beta= 0.70
     Davidson diagonalization with overlap

---- Real-time Memory Report at c_bands before calling an iterative solver
           273 MiB given to the printing process from OS
             0 MiB allocation reported by mallinfo(arena+hblkhd)
        107041 MiB available memory on the node where the printing process lives
------------------
     ethr =  1.20E-07,  avg # of iterations =  5.9

     negative rho (up, down):  3.759E-01 0.000E+00

     total cpu time spent up to now is       12.1 secs

     total energy              =   -1252.86205621 Ry
     estimated scf accuracy    <       0.00007965 Ry

     iteration # 12     ecut=    30.00 Ry     beta= 0.70
     Davidson diagonalization with overlap

---- Real-time Memory Report at c_bands before calling an iterative solver
           276 MiB given to the printing process from OS
             0 MiB allocation reported by mallinfo(arena+hblkhd)
        107030 MiB available memory on the node where the printing process lives
------------------
     ethr =  7.66E-08,  avg # of iterations =  1.0

     negative rho (up, down):  3.759E-01 0.000E+00

     total cpu time spent up to now is       12.7 secs

     total energy              =   -1252.86206122 Ry
     estimated scf accuracy    <       0.00000189 Ry

     iteration # 13     ecut=    30.00 Ry     beta= 0.70
     Davidson diagonalization with overlap

---- Real-time Memory Report at c_bands before calling an iterative solver
           276 MiB given to the printing process from OS
             0 MiB allocation reported by mallinfo(arena+hblkhd)
        107034 MiB available memory on the node where the printing process lives
------------------
     ethr =  1.82E-09,  avg # of iterations =  4.0

     negative rho (up, down):  3.759E-01 0.000E+00

     total cpu time spent up to now is       13.5 secs

     End of self-consistent calculation

          k = 0.0000 0.0000 0.0000 (  3007 PWs)   bands (ev):

   -71.9005 -71.8984 -37.5718 -37.5685 -37.5397 -37.5092 -37.4775 -37.4674
   -33.9058 -33.8812 -33.7885 -33.7772 -33.7161 -33.7049 -12.2570 -12.1868
   -12.1007 -11.9788 -11.9510 -11.9443 -11.8999 -11.7560 -11.7513 -11.7150
   -11.6785 -11.6702 -11.6656 -11.6149 -11.5779 -11.5417 -11.4870 -11.4817
     8.8815  10.8063  11.2585  11.6488  11.9445  11.9944  12.2516  12.3997
    12.4966  12.9131  13.3102  13.5251  13.5342  13.5670  13.6504  13.9722
    14.2312  14.6854  14.8978  15.0521  15.2196  15.6691  15.7842  15.8826
    16.0549  16.2163  16.2320  16.2735  16.4842  16.4856  16.6361  16.8548

     occupation numbers 
     1.0000   1.0000   1.0000   1.0000   1.0000   1.0000   1.0000   1.0000
     1.0000   1.0000   1.0000   1.0000   1.0000   1.0000   1.0000   1.0000
     1.0000   1.0000   1.0000   1.0000   1.0000   1.0000   1.0000   1.0000
     1.0000   1.0000   1.0000   1.0000   1.0000   1.0000   1.0000   1.0000
     1.0000   1.0000   1.0000   1.0000   1.0000   1.0000   1.0000   1.0000
     1.0000   1.0000   1.0000   1.0000   1.0000   1.0000   1.0000   1.0000
     1.0000   1.0000   1.0000   1.0000   0.0000   0.0000   0.0000   0.0000
     0.0000   0.0000   0.0000   0.0000   0.0000   0.0000   0.0000   0.0000

          k = 0.0000 0.0000 0.2095 (  3010 PWs)   bands (ev):

   -71.9002 -71.8990 -37.5692 -37.5629 -37.5383 -37.5223 -37.4774 -37.4678
   -33.9002 -33.8879 -33.7853 -33.7798 -33.7131 -33.7075 -12.2387 -12.2076
   -12.1193 -12.0714 -11.9166 -11.8929 -11.7720 -11.7689 -11.7472 -11.7270
   -11.7184 -11.6691 -11.6668 -11.6496 -11.5670 -11.5492 -11.4914 -11.4856
     9.1691   9.9571  11.6363  11.8367  11.9829  12.0602  12.1883  12.2762
    12.6707  13.2505  13.3525  13.3603  13.4623  13.5642  13.5922  13.6282
    14.5489  14.6611  14.9587  15.1184  15.2303  15.3780  15.7115  15.9588
    16.0677  16.1302  16.1350  16.3326  16.3816  16.4613  16.6856  16.8838

     occupation numbers 
     1.0000   1.0000   1.0000   1.0000   1.0000   1.0000   1.0000   1.0000
     1.0000   1.0000   1.0000   1.0000   1.0000   1.0000   1.0000   1.0000
     1.0000   1.0000   1.0000   1.0000   1.0000   1.0000   1.0000   1.0000
     1.0000   1.0000   1.0000   1.0000   1.0000   1.0000   1.0000   1.0000
     1.0000   1.0000   1.0000   1.0000   1.0000   1.0000   1.0000   1.0000
     1.0000   1.0000   1.0000   1.0000   1.0000   1.0000   1.0000   1.0000
     1.0000   1.0000   1.0000   1.0000   0.0000   0.0000   0.0000   0.0000
     0.0000   0.0000   0.0000   0.0000   0.0000   0.0000   0.0000   0.0000

          k = 0.0000 0.6108 0.0000 (  2991 PWs)   bands (ev):

   -71.8991 -71.8986 -37.5809 -37.5740 -37.5188 -37.5131 -37.4812 -37.4742
   -33.8564 -33.8510 -33.7455 -33.7437 -33.7022 -33.6965 -12.2053 -12.1725
   -12.1427 -12.0883 -12.0875 -12.0050 -11.9845 -11.9531 -11.9300 -11.8670
   -11.8223 -11.7497 -11.7170 -11.7132 -11.6982 -11.6473 -11.5569 -11.5563
    10.9531  11.6537  11.9522  12.1080  12.6689  12.7347  12.7887  12.8093
    12.9242  13.0244  13.2385  13.2470  13.4244  13.5931  13.6918  13.9117
    14.1786  14.3089  14.3943  14.6949  14.7444  14.7838  14.9224  15.0681
    15.5476  16.1211  16.1956  16.3629  16.4537  16.5985  16.7765  17.2206

     occupation numbers 
     1.0000   1.0000   1.0000   1.0000   1.0000   1.0000   1.0000   1.0000
     1.0000   1.0000   1.0000   1.0000   1.0000   1.0000   1.0000   1.0000
     1.0000   1.0000   1.0000   1.0000   1.0000   1.0000   1.0000   1.0000
     1.0000   1.0000   1.0000   1.0000   1.0000   1.0000   1.0000   1.0000
     1.0000   1.0000   1.0000   1.0000   1.0000   1.0000   1.0000   1.0000
     1.0000   1.0000   1.0000   1.0000   1.0000   1.0000   1.0000   1.0000
     1.0000   1.0000   1.0000   1.0000   0.0000   0.0000   0.0000   0.0000
     0.0000   0.0000   0.0000   0.0000   0.0000   0.0000   0.0000   0.0000

          k = 0.0000 0.6108 0.2095 (  3015 PWs)   bands (ev):

   -71.9013 -71.9010 -37.5895 -37.5839 -37.5299 -37.5245 -37.4838 -37.4815
   -33.8551 -33.8524 -33.7452 -33.7443 -33.7006 -33.6978 -12.1950 -12.1739
   -12.1371 -12.1187 -12.0569 -12.0258 -11.9802 -11.9598 -11.9270 -11.8646
   -11.8133 -11.7507 -11.7427 -11.7238 -11.6680 -11.6442 -11.5580 -11.5573
    11.0721  11.3984  12.1235  12.2503  12.4760  12.5653  12.7382  12.7575
    12.9965  13.0483  13.2969  13.3718  13.5138  13.6094  13.6402  13.9480
    14.0566  14.1289  14.3989  14.4574  14.8815  14.9700  15.1422  15.2077
    15.6788  15.9620  16.1541  16.2283  16.4929  16.5347  16.8630  17.1066

     occupation numbers 
     1.0000   1.0000   1.0000   1.0000   1.0000   1.0000   1.0000   1.0000
     1.0000   1.0000   1.0000   1.0000   1.0000   1.0000   1.0000   1.0000
     1.0000   1.0000   1.0000   1.0000   1.0000   1.0000   1.0000   1.0000
     1.0000   1.0000   1.0000   1.0000   1.0000   1.0000   1.0000   1.0000
     1.0000   1.0000   1.0000   1.0000   1.0000   1.0000   1.0000   1.0000
     1.0000   1.0000   1.0000   1.0000   1.0000   1.0000   1.0000   1.0000
     1.0000   1.0000   1.0000   1.0000   0.0000   0.0000   0.0000   0.0000
     0.0000   0.0000   0.0000   0.0000   0.0000   0.0000   0.0000   0.0000

          k = 0.3333 0.5118 0.0000 (  2991 PWs)   bands (ev):

   -71.8991 -71.8986 -37.5809 -37.5740 -37.5188 -37.5131 -37.4812 -37.4742
   -33.8564 -33.8510 -33.7455 -33.7437 -33.7022 -33.6965 -12.2053 -12.1725
   -12.1427 -12.0883 -12.0875 -12.0050 -11.9845 -11.9531 -11.9300 -11.8670
   -11.8223 -11.7497 -11.7170 -11.7132 -11.6982 -11.6473 -11.5569 -11.5563
    10.9531  11.6537  11.9522  12.1080  12.6689  12.7347  12.7887  12.8093
    12.9242  13.0244  13.2385  13.2470  13.4244  13.5931  13.6918  13.9117
    14.1786  14.3089  14.3943  14.6949  14.7444  14.7838  14.9224  15.0681
    15.5476  16.1211  16.1956  16.3629  16.4537  16.5985  16.7765  17.2206

     occupation numbers 
     1.0000   1.0000   1.0000   1.0000   1.0000   1.0000   1.0000   1.0000
     1.0000   1.0000   1.0000   1.0000   1.0000   1.0000   1.0000   1.0000
     1.0000   1.0000   1.0000   1.0000   1.0000   1.0000   1.0000   1.0000
     1.0000   1.0000   1.0000   1.0000   1.0000   1.0000   1.0000   1.0000
     1.0000   1.0000   1.0000   1.0000   1.0000   1.0000   1.0000   1.0000
     1.0000   1.0000   1.0000   1.0000   1.0000   1.0000   1.0000   1.0000
     1.0000   1.0000   1.0000   1.0000   0.0000   0.0000   0.0000   0.0000
     0.0000   0.0000   0.0000   0.0000   0.0000   0.0000   0.0000   0.0000

          k = 0.3333 0.5118 0.2095 (  3015 PWs)   bands (ev):

   -71.9013 -71.9010 -37.5895 -37.5839 -37.5299 -37.5245 -37.4838 -37.4815
   -33.8551 -33.8524 -33.7452 -33.7443 -33.7006 -33.6978 -12.1950 -12.1739
   -12.1371 -12.1187 -12.0569 -12.0258 -11.9802 -11.9598 -11.9270 -11.8646
   -11.8133 -11.7507 -11.7427 -11.7238 -11.6680 -11.6442 -11.5580 -11.5573
    11.0721  11.3984  12.1235  12.2503  12.4760  12.5653  12.7382  12.7575
    12.9965  13.0483  13.2969  13.3718  13.5138  13.6094  13.6402  13.9480
    14.0566  14.1289  14.3989  14.4574  14.8815  14.9700  15.1422  15.2077
    15.6788  15.9620  16.1541  16.2283  16.4929  16.5347  16.8630  17.1066

     occupation numbers 
     1.0000   1.0000   1.0000   1.0000   1.0000   1.0000   1.0000   1.0000
     1.0000   1.0000   1.0000   1.0000   1.0000   1.0000   1.0000   1.0000
     1.0000   1.0000   1.0000   1.0000   1.0000   1.0000   1.0000   1.0000
     1.0000   1.0000   1.0000   1.0000   1.0000   1.0000   1.0000   1.0000
     1.0000   1.0000   1.0000   1.0000   1.0000   1.0000   1.0000   1.0000
     1.0000   1.0000   1.0000   1.0000   1.0000   1.0000   1.0000   1.0000
     1.0000   1.0000   1.0000   1.0000   0.0000   0.0000   0.0000   0.0000
     0.0000   0.0000   0.0000   0.0000   0.0000   0.0000   0.0000   0.0000

          k = 0.3333 1.1227 0.0000 (  2986 PWs)   bands (ev):

   -71.8986 -71.8976 -37.5858 -37.5749 -37.5141 -37.5138 -37.4701 -37.4695
   -33.8541 -33.8509 -33.7290 -33.7219 -33.7211 -33.7185 -12.2058 -12.1904
   -12.1429 -12.1070 -12.0667 -12.0569 -11.9492 -11.8860 -11.8789 -11.8713
   -11.7940 -11.7489 -11.7085 -11.7061 -11.6749 -11.6587 -11.6426 -11.6121
    11.4158  11.6102  12.1774  12.2318  12.3399  12.4384  12.6702  12.9399
    12.9442  13.0117  13.2843  13.3221  13.3980  13.6751  13.9114  13.9403
    14.1067  14.1539  14.1576  14.2711  14.4108  14.8026  15.1749  15.2138
    15.5353  15.8427  16.0106  16.5231  16.6309  16.7647  16.9252  17.1514

     occupation numbers 
     1.0000   1.0000   1.0000   1.0000   1.0000   1.0000   1.0000   1.0000
     1.0000   1.0000   1.0000   1.0000   1.0000   1.0000   1.0000   1.0000
     1.0000   1.0000   1.0000   1.0000   1.0000   1.0000   1.0000   1.0000
     1.0000   1.0000   1.0000   1.0000   1.0000   1.0000   1.0000   1.0000
     1.0000   1.0000   1.0000   1.0000   1.0000   1.0000   1.0000   1.0000
     1.0000   1.0000   1.0000   1.0000   1.0000   1.0000   1.0000   1.0000
     1.0000   1.0000   1.0000   1.0000   0.0000   0.0000   0.0000   0.0000
     0.0000   0.0000   0.0000   0.0000   0.0000   0.0000   0.0000   0.0000

          k = 0.3333 1.1227 0.2095 (  2993 PWs)   bands (ev):

   -71.8994 -71.8989 -37.5819 -37.5797 -37.5286 -37.5206 -37.4746 -37.4639
   -33.8533 -33.8517 -33.7281 -33.7253 -33.7188 -33.7182 -12.1996 -12.1628
   -12.1614 -12.1302 -12.0395 -12.0374 -11.9948 -11.9644 -11.8247 -11.8196
   -11.8000 -11.7652 -11.7014 -11.6964 -11.6782 -11.6631 -11.6389 -11.6235
    11.5657  11.7263  11.9512  11.9813  12.4384  12.4527  12.6201  12.6728
    13.1692  13.1713  13.2814  13.3408  13.4241  13.6643  13.7670  13.9801
    14.1162  14.2122  14.3516  14.3572  14.4892  14.6488  14.9992  15.0146
    15.7439  15.8094  16.2445  16.4930  16.6065  16.6600  16.8167  17.0189

     occupation numbers 
     1.0000   1.0000   1.0000   1.0000   1.0000   1.0000   1.0000   1.0000
     1.0000   1.0000   1.0000   1.0000   1.0000   1.0000   1.0000   1.0000
     1.0000   1.0000   1.0000   1.0000   1.0000   1.0000   1.0000   1.0000
     1.0000   1.0000   1.0000   1.0000   1.0000   1.0000   1.0000   1.0000
     1.0000   1.0000   1.0000   1.0000   1.0000   1.0000   1.0000   1.0000
     1.0000   1.0000   1.0000   1.0000   1.0000   1.0000   1.0000   1.0000
     1.0000   1.0000   1.0000   1.0000   0.0000   0.0000   0.0000   0.0000
     0.0000   0.0000   0.0000   0.0000   0.0000   0.0000   0.0000   0.0000

          k = 0.3333-0.0990 0.0000 (  3008 PWs)   bands (ev):

   -71.9021 -71.8976 -37.5833 -37.5668 -37.5354 -37.5041 -37.4823 -37.4696
   -33.8947 -33.8805 -33.7768 -33.7717 -33.7279 -33.7219 -12.1989 -12.1432
   -12.0998 -12.0618 -11.9991 -11.8751 -11.8093 -11.7846 -11.7461 -11.7148
   -11.6914 -11.6855 -11.6301 -11.5924 -11.5639 -11.5623 -11.5576 -11.5524
     9.6319  11.0734  11.2866  11.5606  11.6900  11.8005  12.0403  12.2691
    12.7675  12.9557  13.2465  13.2467  13.3481  13.3521  13.5065  13.5147
    14.1761  14.4731  14.6374  14.9706  15.1002  15.5799  15.6108  15.9582
    16.1794  16.2879  16.4137  16.4813  16.7121  16.7350  16.8445  17.0398

     occupation numbers 
     1.0000   1.0000   1.0000   1.0000   1.0000   1.0000   1.0000   1.0000
     1.0000   1.0000   1.0000   1.0000   1.0000   1.0000   1.0000   1.0000
     1.0000   1.0000   1.0000   1.0000   1.0000   1.0000   1.0000   1.0000
     1.0000   1.0000   1.0000   1.0000   1.0000   1.0000   1.0000   1.0000
     1.0000   1.0000   1.0000   1.0000   1.0000   1.0000   1.0000   1.0000
     1.0000   1.0000   1.0000   1.0000   1.0000   1.0000   1.0000   1.0000
     1.0000   1.0000   1.0000   1.0000   0.0000   0.0000   0.0000   0.0000
     0.0000   0.0000   0.0000   0.0000   0.0000   0.0000   0.0000   0.0000

          k = 0.3333-0.0990 0.2095 (  3020 PWs)   bands (ev):

   -71.9028 -71.8992 -37.5837 -37.5697 -37.5393 -37.5183 -37.4830 -37.4725
   -33.8912 -33.8841 -33.7760 -33.7734 -33.7260 -33.7230 -12.2107 -12.1810
   -12.1070 -12.0452 -11.9446 -11.8522 -11.7932 -11.7733 -11.7479 -11.7434
   -11.7088 -11.6600 -11.6428 -11.6373 -11.5583 -11.5568 -11.5543 -11.5519
     9.8828  10.5302  11.4239  11.6227  11.7466  11.9020  11.9930  12.1907
    12.7135  12.9307  13.1498  13.2522  13.3411  13.4251  13.4415  13.5178
    14.3684  14.5185  14.7762  14.9226  15.0881  15.2452  15.8107  16.0992
    16.1449  16.2189  16.2499  16.4209  16.6458  16.6871  16.8531  16.8885

     occupation numbers 
     1.0000   1.0000   1.0000   1.0000   1.0000   1.0000   1.0000   1.0000
     1.0000   1.0000   1.0000   1.0000   1.0000   1.0000   1.0000   1.0000
     1.0000   1.0000   1.0000   1.0000   1.0000   1.0000   1.0000   1.0000
     1.0000   1.0000   1.0000   1.0000   1.0000   1.0000   1.0000   1.0000
     1.0000   1.0000   1.0000   1.0000   1.0000   1.0000   1.0000   1.0000
     1.0000   1.0000   1.0000   1.0000   1.0000   1.0000   1.0000   1.0000
     1.0000   1.0000   1.0000   1.0000   0.0000   0.0000   0.0000   0.0000
     0.0000   0.0000   0.0000   0.0000   0.0000   0.0000   0.0000   0.0000

     highest occupied, lowest unoccupied level (ev):    15.1184   14.4108

!    total energy              =   -1252.86206105 Ry
     estimated scf accuracy    <       0.00000092 Ry

     The total energy is the sum of the following terms:
     one-electron contribution =    -465.27460842 Ry
     hartree contribution      =     279.84772291 Ry
     xc contribution           =    -176.11338599 Ry
     ewald contribution        =    -739.17386929 Ry
     one-center paw contrib.   =    -152.14792026 Ry
      -> PAW hartree energy AE =       0.00000000 Ry
      -> PAW hartree energy PS =       0.00000000 Ry
      -> PAW xc energy AE      =       0.00000000 Ry
      -> PAW xc energy PS      =       0.00000000 Ry
      -> total E_H with PAW    =     279.84772291 Ry
      -> total E_XC with PAW   =    -176.11338599 Ry

     convergence has been achieved in  13 iterations

     Writing all to output data dir calculations_bands/myprefix.save/
 
     init_run     :      6.55s CPU      2.04s WALL (       1 calls)
     electrons    :     42.99s CPU     11.36s WALL (       1 calls)

     Called by init_run:
     wfcinit      :      1.23s CPU      0.33s WALL (       1 calls)
     wfcinit:atom :      0.01s CPU      0.00s WALL (       5 calls)
     wfcinit:wfcr :      1.15s CPU      0.30s WALL (       5 calls)
     potinit      :      1.77s CPU      0.48s WALL (       1 calls)
     hinit0       :      2.03s CPU      0.77s WALL (       1 calls)

     Called by electrons:
     c_bands      :     29.00s CPU      7.54s WALL (      13 calls)
     sum_band     :      6.28s CPU      1.73s WALL (      13 calls)
     v_of_rho     :      0.96s CPU      0.26s WALL (      14 calls)
     v_h          :      0.06s CPU      0.02s WALL (      14 calls)
     v_xc         :      0.90s CPU      0.24s WALL (      14 calls)
     newd         :      1.67s CPU      0.45s WALL (      14 calls)
     PAW_pot      :      4.90s CPU      1.30s WALL (      14 calls)
     mix_rho      :      0.21s CPU      0.05s WALL (      13 calls)

     Called by c_bands:
     init_us_2    :      0.12s CPU      0.03s WALL (     135 calls)
     init_us_2:cp :      0.12s CPU      0.03s WALL (     135 calls)
     cegterg      :     26.20s CPU      6.81s WALL (      65 calls)

     Called by sum_band:
     sum_band:wei :      0.01s CPU      0.00s WALL (      13 calls)
     sum_band:loo :      3.77s CPU      0.97s WALL (      13 calls)
     sum_band:buf :      0.04s CPU      0.01s WALL (      65 calls)
     sum_band:ini :      0.05s CPU      0.01s WALL (      65 calls)
     sum_band:cal :      0.20s CPU      0.05s WALL (      65 calls)
     sum_band:bec :      0.03s CPU      0.01s WALL (      65 calls)
     addusdens    :      1.18s CPU      0.41s WALL (      13 calls)
     addusd:skk   :      0.01s CPU      0.00s WALL (      26 calls)
     addusd:dgemm :      0.19s CPU      0.15s WALL (      26 calls)
     addusd:qvan2 :      0.85s CPU      0.22s WALL (      26 calls)

     Called by *egterg:
     cdiaghg      :      4.98s CPU      1.30s WALL (     283 calls)
     cegterg:over :      1.54s CPU      0.40s WALL (     218 calls)
     cegterg:upda :      0.45s CPU      0.12s WALL (     218 calls)
     cegterg:last :      0.71s CPU      0.18s WALL (     127 calls)
     cdiaghg:chol :      0.34s CPU      0.09s WALL (     283 calls)
     cdiaghg:inve :      0.07s CPU      0.02s WALL (     283 calls)
     cdiaghg:para :      0.79s CPU      0.21s WALL (     566 calls)
     h_psi        :     18.71s CPU      4.85s WALL (     288 calls)
     s_psi        :      0.25s CPU      0.07s WALL (     288 calls)
     g_psi        :      0.03s CPU      0.01s WALL (     218 calls)

     Called by h_psi:
     h_psi:calbec :      0.70s CPU      0.19s WALL (     288 calls)
     vloc_psi     :     17.62s CPU      4.56s WALL (     288 calls)
     add_vuspsi   :      0.34s CPU      0.09s WALL (     288 calls)

     General routines
     calbec       :      0.89s CPU      0.24s WALL (     353 calls)
     fft          :      1.32s CPU      0.39s WALL (     180 calls)
     ffts         :      1.20s CPU      0.33s WALL (      27 calls)
     fftw         :     18.57s CPU      4.81s WALL (   25326 calls)
     interpolate  :      1.24s CPU      0.34s WALL (      14 calls)
 
     Parallel routines

     PAW routines
     PAW_pot      :      4.90s CPU      1.30s WALL (      14 calls)
     PAW_symme    :      0.02s CPU      0.00s WALL (      27 calls)
 
     PWSCF        :     50.42s CPU     14.02s WALL

 
   This run was terminated on:  20:18:21   5Jun2023            

=------------------------------------------------------------------------------=
   JOB DONE.
=------------------------------------------------------------------------------=
