
     Program PWSCF v.7.0 starts on  6Jun2023 at 10:35:22 

     This program is part of the open-source Quantum ESPRESSO suite
     for quantum simulation of materials; please cite
         "P. Giannozzi et al., J. Phys.:Condens. Matter 21 395502 (2009);
         "P. Giannozzi et al., J. Phys.:Condens. Matter 29 465901 (2017);
         "P. Giannozzi et al., J. Chem. Phys. 152 154105 (2020);
          URL http://www.quantum-espresso.org", 
     in publications or presentations arising from this work. More details at
     http://www.quantum-espresso.org/quote

     Parallel version (MPI & OpenMP), running on      32 processor cores
     Number of MPI processes:                 8
     Threads/MPI process:                     4

     MPI processes distributed on     1 nodes
     K-points division:     npool     =       2
     R & G space division:  proc/nbgrp/npool/nimage =       4
     46793 MiB available memory on the printing compute node when the environment starts
 
     Reading input from espresso_16316.pwi
Warning: card &CELL ignored
Warning: card / ignored

     Current dimensions of program PWSCF are:
     Max number of different atomic species (ntypx) = 10
     Max number of k-points (npk) =  40000
     Max angular momentum in pseudopotentials (lmaxx) =  4
     Message from routine setup:
     using ibrav=0 with symmetry is DISCOURAGED, use correct ibrav instead

     Subspace diagonalization in iterative solution of the eigenvalue problem:
     one sub-group per band group will be used
     scalapack distributed-memory algorithm (size of sub-group:  2*  2 procs)

 
     Parallelization info
     --------------------
     sticks:   dense  smooth     PW     G-vecs:    dense   smooth      PW
     Min         531     267     82                 9428     3340     585
     Max         533     268     83                 9429     3341     586
     Sum        2129    1071    331                37715    13361    2341
 
     Using Slab Decomposition
 


     bravais-lattice index     =            0
     lattice parameter (alat)  =      11.7174  a.u.
     unit-cell volume          =     600.2875 (a.u.)^3
     number of atoms/cell      =            5
     number of atomic types    =            3
     number of electrons       =        72.00
     number of Kohn-Sham states=           64
     kinetic-energy cutoff     =      30.0000  Ry
     charge density cutoff     =     240.0000  Ry
     scf convergence threshold =      1.0E-06
     mixing beta               =       0.7000
     number of iterations used =            8  plain     mixing
     Exchange-correlation=  SLA  PW   PBX  PBC
                           (   1   4   3   4   0   0   0)

     celldm(1)=  11.717357  celldm(2)=   0.000000  celldm(3)=   0.000000
     celldm(4)=   0.000000  celldm(5)=   0.000000  celldm(6)=   0.000000

     crystal axes: (cart. coord. in units of alat)
               a(1) = (   1.000000   0.000000   0.000000 )  
               a(2) = (   0.580215   0.814464   0.000000 )  
               a(3) = (  -0.790107  -0.407232   0.458140 )  

     reciprocal axes: (cart. coord. in units 2 pi/alat)
               b(1) = (  1.000000 -0.712389  1.091368 )  
               b(2) = (  0.000000  1.227802  1.091368 )  
               b(3) = (  0.000000  0.000000  2.182737 )  


     PseudoPot. # 1 for Nd read from file:
     /home/pragov/projects/rrg-bengioy-ad/pragov/crystal_structure_design/SSSP/Nd.GGA-PBE-paw-v1.0.UPF
     MD5 check sum: 1d1e94942b6eb1cde76049b71bb7dcb0
     Pseudo is Projector augmented-wave + core cor, Zval = 14.0
     Generated using ATOMPAW code
     Shape of augmentation charge: BESSEL
     Using radial grid of 1105 points,  8 beta functions with: 
                l(1) =   0
                l(2) =   0
                l(3) =   1
                l(4) =   1
                l(5) =   2
                l(6) =   2
                l(7) =   3
                l(8) =   3
     Q(r) pseudized with 0 coefficients 


     PseudoPot. # 2 for Mn read from file:
     /home/pragov/projects/rrg-bengioy-ad/pragov/crystal_structure_design/SSSP/mn_pbe_v1.5.uspp.F.UPF
     MD5 check sum: 82ef2b46521d7a7d9e736dc3972e4928
     Pseudo is Ultrasoft + core correction, Zval = 15.0
     Generated by new atomic code, or converted to UPF format
     Using radial grid of  859 points,  6 beta functions with: 
                l(1) =   0
                l(2) =   0
                l(3) =   1
                l(4) =   1
                l(5) =   2
                l(6) =   2
     Q(r) pseudized with  8 coefficients,  rinner =    0.950   0.950   0.950
                                                       0.950   0.950

     PseudoPot. # 3 for Ge read from file:
     /home/pragov/projects/rrg-bengioy-ad/pragov/crystal_structure_design/SSSP/ge_pbe_v1.4.uspp.F.UPF
     MD5 check sum: 9c9eaa91e581c3f09632fb3098b2c6b2
     Pseudo is Ultrasoft + core correction, Zval = 14.0
     Generated by new atomic code, or converted to UPF format
     Using radial grid of  873 points,  6 beta functions with: 
                l(1) =   0
                l(2) =   0
                l(3) =   1
                l(4) =   1
                l(5) =   2
                l(6) =   2
     Q(r) pseudized with  8 coefficients,  rinner =    1.400   1.400   1.400
                                                       1.400   1.400

     atomic species   valence    mass     pseudopotential
        Nd            14.00   144.24200     Nd( 1.00)
        Mn            15.00    54.93804     Mn( 1.00)
        Ge            14.00    72.63000     Ge( 1.00)

      4 Sym. Ops., with inversion, found


                                    s                        frac. trans.

      isym =  1     identity                                     

 cryst.   s( 1) = (     1          0          0      )
                  (     0          1          0      )
                  (     0          0          1      )

 cart.    s( 1) = (  1.0000000  0.0000000  0.0000000 )
                  (  0.0000000  1.0000000 -0.0000000 )
                  (  0.0000000  0.0000000  1.0000000 )


      isym =  2     180 deg rotation - cart. axis [0,0,1]        

 cryst.   s( 2) = (    -1          0          0      )
                  (     0         -1          0      )
                  (     1          1          1      )

 cart.    s( 2) = ( -1.0000000 -0.0000000  0.0000000 )
                  (  0.0000000 -1.0000000  0.0000000 )
                  (  0.0000000  0.0000000  1.0000000 )


      isym =  3     inversion                                    

 cryst.   s( 3) = (    -1          0          0      )
                  (     0         -1          0      )
                  (     0          0         -1      )

 cart.    s( 3) = ( -1.0000000 -0.0000000 -0.0000000 )
                  (  0.0000000 -1.0000000  0.0000000 )
                  (  0.0000000  0.0000000 -1.0000000 )


      isym =  4     inv. 180 deg rotation - cart. axis [0,0,1]   

 cryst.   s( 4) = (     1          0          0      )
                  (     0          1          0      )
                  (    -1         -1         -1      )

 cart.    s( 4) = (  1.0000000  0.0000000 -0.0000000 )
                  (  0.0000000  1.0000000 -0.0000000 )
                  (  0.0000000  0.0000000 -1.0000000 )


   Cartesian axes

     site n.     atom                  positions (alat units)
         1           Nd  tau(   1) = (   0.0000000   0.0000000   0.0000000  )
         2           Mn  tau(   2) = (   0.5000000   0.0000000   0.2290702  )
         3           Mn  tau(   3) = (   0.2901073   0.4072318   0.2290702  )
         4           Ge  tau(   4) = (   0.9851027   0.5077350   0.0000000  )
         5           Ge  tau(   5) = (   0.5951120   0.3067286   0.0000000  )

   Crystallographic axes

     site n.     atom                  positions (cryst. coord.)
         1           Nd  tau(   1) = (  0.0000000  0.0000000  0.0000000  )
         2           Mn  tau(   2) = (  0.7500000  0.2500000  0.5000000  )
         3           Mn  tau(   3) = (  0.2500000  0.7500000  0.5000000  )
         4           Ge  tau(   4) = (  0.6233980  0.6233980  0.0000000  )
         5           Ge  tau(   5) = (  0.3766020  0.3766020  0.0000000  )

     number of k points=    10
                       cart. coord. in units 2pi/alat
        k(    1) = (   0.0000000   0.0000000   0.0000000), wk =   0.0740741
        k(    2) = (   0.0000000   0.0000000   0.7275789), wk =   0.1481481
        k(    3) = (   0.0000000   0.4092673   0.3637895), wk =   0.2962963
        k(    4) = (   0.0000000   0.4092673   1.0913684), wk =   0.1481481
        k(    5) = (   0.3333333  -0.2374629   0.3637895), wk =   0.2962963
        k(    6) = (   0.3333333  -0.2374629   1.0913684), wk =   0.1481481
        k(    7) = (   0.3333333   0.1718044   0.7275789), wk =   0.2962963
        k(    8) = (   0.3333333   0.1718044  -0.0000000), wk =   0.1481481
        k(    9) = (   0.3333333  -0.6467302   0.0000000), wk =   0.1481481
        k(   10) = (   0.3333333  -0.6467302   0.7275789), wk =   0.2962963

                       cryst. coord.
        k(    1) = (   0.0000000   0.0000000   0.0000000), wk =   0.0740741
        k(    2) = (   0.0000000   0.0000000   0.3333333), wk =   0.1481481
        k(    3) = (   0.0000000   0.3333333   0.0000000), wk =   0.2962963
        k(    4) = (   0.0000000   0.3333333   0.3333333), wk =   0.1481481
        k(    5) = (   0.3333333   0.0000000   0.0000000), wk =   0.2962963
        k(    6) = (   0.3333333   0.0000000   0.3333333), wk =   0.1481481
        k(    7) = (   0.3333333   0.3333333   0.0000000), wk =   0.2962963
        k(    8) = (   0.3333333   0.3333333  -0.3333333), wk =   0.1481481
        k(    9) = (   0.3333333  -0.3333333  -0.0000000), wk =   0.1481481
        k(   10) = (   0.3333333  -0.3333333   0.3333333), wk =   0.2962963

     Dense  grid:    37715 G-vectors     FFT dimensions: (  60,  60,  60)

     Smooth grid:    13361 G-vectors     FFT dimensions: (  45,  45,  45)

     Dynamical RAM for                 wfc:       0.41 MB

     Dynamical RAM for     wfc (w. buffer):       2.44 MB

     Dynamical RAM for           str. fact:       0.43 MB

     Dynamical RAM for           local pot:       0.00 MB

     Dynamical RAM for          nlocal pot:       0.66 MB

     Dynamical RAM for                qrad:       8.96 MB

     Dynamical RAM for          rho,v,vnew:       1.67 MB

     Dynamical RAM for               rhoin:       0.56 MB

     Dynamical RAM for            rho*nmix:       2.30 MB

     Dynamical RAM for           G-vectors:       0.56 MB

     Dynamical RAM for          h,s,v(r/c):       0.19 MB

     Dynamical RAM for          <psi|beta>:       0.10 MB

     Dynamical RAM for                 psi:       0.81 MB

     Dynamical RAM for                hpsi:       0.81 MB

     Dynamical RAM for                spsi:       0.81 MB

     Dynamical RAM for      wfcinit/wfcrot:       1.10 MB

     Dynamical RAM for           addusdens:      40.14 MB

     Estimated static dynamical RAM per process >      17.91 MB

     Estimated max dynamical RAM per process >      60.35 MB

     Estimated total dynamical RAM >     473.59 MB

     Check: negative core charge=   -0.000017

     Initial potential from superposition of free atoms

     starting charge      70.9919, renormalised to      72.0000
     Starting wfcs are   76 randomized atomic wfcs
     Checking if some PAW data can be deallocated... 
       PAW data deallocated on    6 nodes for type:  1

     total cpu time spent up to now is        3.0 secs

     Self-consistent Calculation

     iteration #  1     ecut=    30.00 Ry     beta= 0.70
     Davidson diagonalization with overlap

---- Real-time Memory Report at c_bands before calling an iterative solver
           203 MiB given to the printing process from OS
             0 MiB allocation reported by mallinfo(arena+hblkhd)
         46326 MiB available memory on the node where the printing process lives
------------------
     ethr =  1.00E-02,  avg # of iterations =  5.2

     total cpu time spent up to now is        4.8 secs

     total energy              =   -1380.68824107 Ry
     estimated scf accuracy    <       7.09697869 Ry

     iteration #  2     ecut=    30.00 Ry     beta= 0.70
     Davidson diagonalization with overlap

---- Real-time Memory Report at c_bands before calling an iterative solver
           228 MiB given to the printing process from OS
             0 MiB allocation reported by mallinfo(arena+hblkhd)
         46172 MiB available memory on the node where the printing process lives
------------------
     ethr =  9.86E-03,  avg # of iterations =  3.0

     total cpu time spent up to now is        6.2 secs

     total energy              =   -1381.24126797 Ry
     estimated scf accuracy    <     298.49834988 Ry

     iteration #  3     ecut=    30.00 Ry     beta= 0.70
     Davidson diagonalization with overlap

---- Real-time Memory Report at c_bands before calling an iterative solver
           233 MiB given to the printing process from OS
             0 MiB allocation reported by mallinfo(arena+hblkhd)
         46145 MiB available memory on the node where the printing process lives
------------------
     ethr =  9.86E-03,  avg # of iterations =  2.8

     total cpu time spent up to now is        7.3 secs

     total energy              =   -1385.39736064 Ry
     estimated scf accuracy    <      98.35091308 Ry

     iteration #  4     ecut=    30.00 Ry     beta= 0.70
     Davidson diagonalization with overlap

---- Real-time Memory Report at c_bands before calling an iterative solver
           233 MiB given to the printing process from OS
             0 MiB allocation reported by mallinfo(arena+hblkhd)
         46147 MiB available memory on the node where the printing process lives
------------------
     ethr =  9.86E-03,  avg # of iterations =  1.0

     total cpu time spent up to now is        8.2 secs

     total energy              =   -1386.48492061 Ry
     estimated scf accuracy    <      11.68011887 Ry

     iteration #  5     ecut=    30.00 Ry     beta= 0.70
     Davidson diagonalization with overlap

---- Real-time Memory Report at c_bands before calling an iterative solver
           233 MiB given to the printing process from OS
             0 MiB allocation reported by mallinfo(arena+hblkhd)
         46147 MiB available memory on the node where the printing process lives
------------------
     ethr =  9.86E-03,  avg # of iterations =  1.0

     total cpu time spent up to now is        9.1 secs

     total energy              =   -1386.91237911 Ry
     estimated scf accuracy    <       5.43783906 Ry

     iteration #  6     ecut=    30.00 Ry     beta= 0.70
     Davidson diagonalization with overlap

---- Real-time Memory Report at c_bands before calling an iterative solver
           233 MiB given to the printing process from OS
             0 MiB allocation reported by mallinfo(arena+hblkhd)
         46146 MiB available memory on the node where the printing process lives
------------------
     ethr =  7.55E-03,  avg # of iterations =  1.2

     total cpu time spent up to now is        9.9 secs

     total energy              =   -1386.99852307 Ry
     estimated scf accuracy    <       5.69125140 Ry

     iteration #  7     ecut=    30.00 Ry     beta= 0.70
     Davidson diagonalization with overlap

---- Real-time Memory Report at c_bands before calling an iterative solver
           233 MiB given to the printing process from OS
             0 MiB allocation reported by mallinfo(arena+hblkhd)
         46147 MiB available memory on the node where the printing process lives
------------------
     ethr =  7.55E-03,  avg # of iterations =  1.0

     total cpu time spent up to now is       10.7 secs

     total energy              =   -1386.99230414 Ry
     estimated scf accuracy    <       2.87217991 Ry

     iteration #  8     ecut=    30.00 Ry     beta= 0.70
     Davidson diagonalization with overlap

---- Real-time Memory Report at c_bands before calling an iterative solver
           233 MiB given to the printing process from OS
             0 MiB allocation reported by mallinfo(arena+hblkhd)
         46148 MiB available memory on the node where the printing process lives
------------------
     ethr =  3.99E-03,  avg # of iterations =  1.0

     total cpu time spent up to now is       11.6 secs

     total energy              =   -1387.00225060 Ry
     estimated scf accuracy    <       1.00246916 Ry

     iteration #  9     ecut=    30.00 Ry     beta= 0.70
     Davidson diagonalization with overlap

---- Real-time Memory Report at c_bands before calling an iterative solver
           233 MiB given to the printing process from OS
             0 MiB allocation reported by mallinfo(arena+hblkhd)
         46150 MiB available memory on the node where the printing process lives
------------------
     ethr =  1.39E-03,  avg # of iterations =  1.0

     total cpu time spent up to now is       12.4 secs

     total energy              =   -1386.98890736 Ry
     estimated scf accuracy    <       2.01032424 Ry

     iteration # 10     ecut=    30.00 Ry     beta= 0.70
     Davidson diagonalization with overlap

---- Real-time Memory Report at c_bands before calling an iterative solver
           233 MiB given to the printing process from OS
             0 MiB allocation reported by mallinfo(arena+hblkhd)
         46152 MiB available memory on the node where the printing process lives
------------------
     ethr =  1.39E-03,  avg # of iterations =  1.0

     total cpu time spent up to now is       13.3 secs

     total energy              =   -1386.97825347 Ry
     estimated scf accuracy    <       0.93999336 Ry

     iteration # 11     ecut=    30.00 Ry     beta= 0.70
     Davidson diagonalization with overlap

---- Real-time Memory Report at c_bands before calling an iterative solver
           233 MiB given to the printing process from OS
             0 MiB allocation reported by mallinfo(arena+hblkhd)
         46149 MiB available memory on the node where the printing process lives
------------------
     ethr =  1.31E-03,  avg # of iterations =  1.0

     total cpu time spent up to now is       14.1 secs

     total energy              =   -1386.99509649 Ry
     estimated scf accuracy    <       1.17615505 Ry

     iteration # 12     ecut=    30.00 Ry     beta= 0.70
     Davidson diagonalization with overlap

---- Real-time Memory Report at c_bands before calling an iterative solver
           233 MiB given to the printing process from OS
             0 MiB allocation reported by mallinfo(arena+hblkhd)
         46148 MiB available memory on the node where the printing process lives
------------------
     ethr =  1.31E-03,  avg # of iterations =  1.0

     total cpu time spent up to now is       14.9 secs

     total energy              =   -1386.99211179 Ry
     estimated scf accuracy    <       0.37835410 Ry

     iteration # 13     ecut=    30.00 Ry     beta= 0.70
     Davidson diagonalization with overlap

---- Real-time Memory Report at c_bands before calling an iterative solver
           233 MiB given to the printing process from OS
             0 MiB allocation reported by mallinfo(arena+hblkhd)
         46150 MiB available memory on the node where the printing process lives
------------------
     ethr =  5.25E-04,  avg # of iterations =  1.0

     total cpu time spent up to now is       15.8 secs

     total energy              =   -1386.99486043 Ry
     estimated scf accuracy    <       0.06637840 Ry

     iteration # 14     ecut=    30.00 Ry     beta= 0.70
     Davidson diagonalization with overlap

---- Real-time Memory Report at c_bands before calling an iterative solver
           233 MiB given to the printing process from OS
             0 MiB allocation reported by mallinfo(arena+hblkhd)
         46151 MiB available memory on the node where the printing process lives
------------------
     ethr =  9.22E-05,  avg # of iterations =  1.0

     total cpu time spent up to now is       16.6 secs

     total energy              =   -1386.99473017 Ry
     estimated scf accuracy    <       0.02840027 Ry

     iteration # 15     ecut=    30.00 Ry     beta= 0.70
     Davidson diagonalization with overlap

---- Real-time Memory Report at c_bands before calling an iterative solver
           233 MiB given to the printing process from OS
             0 MiB allocation reported by mallinfo(arena+hblkhd)
         46151 MiB available memory on the node where the printing process lives
------------------
     ethr =  3.94E-05,  avg # of iterations =  1.0

     total cpu time spent up to now is       17.4 secs

     total energy              =   -1386.99493551 Ry
     estimated scf accuracy    <       0.00892496 Ry

     iteration # 16     ecut=    30.00 Ry     beta= 0.70
     Davidson diagonalization with overlap

---- Real-time Memory Report at c_bands before calling an iterative solver
           233 MiB given to the printing process from OS
             0 MiB allocation reported by mallinfo(arena+hblkhd)
         46151 MiB available memory on the node where the printing process lives
------------------
     ethr =  1.24E-05,  avg # of iterations =  1.2

     total cpu time spent up to now is       18.2 secs

     total energy              =   -1386.99494582 Ry
     estimated scf accuracy    <       0.00291350 Ry

     iteration # 17     ecut=    30.00 Ry     beta= 0.70
     Davidson diagonalization with overlap

---- Real-time Memory Report at c_bands before calling an iterative solver
           233 MiB given to the printing process from OS
             0 MiB allocation reported by mallinfo(arena+hblkhd)
         46151 MiB available memory on the node where the printing process lives
------------------
     ethr =  4.05E-06,  avg # of iterations =  2.7

     total cpu time spent up to now is       19.1 secs

     total energy              =   -1386.99496768 Ry
     estimated scf accuracy    <       0.00137043 Ry

     iteration # 18     ecut=    30.00 Ry     beta= 0.70
     Davidson diagonalization with overlap

---- Real-time Memory Report at c_bands before calling an iterative solver
           233 MiB given to the printing process from OS
             0 MiB allocation reported by mallinfo(arena+hblkhd)
         46151 MiB available memory on the node where the printing process lives
------------------
     ethr =  1.90E-06,  avg # of iterations =  3.9

     total cpu time spent up to now is       20.0 secs

     total energy              =   -1386.99498818 Ry
     estimated scf accuracy    <       0.00195070 Ry

     iteration # 19     ecut=    30.00 Ry     beta= 0.70
     Davidson diagonalization with overlap

---- Real-time Memory Report at c_bands before calling an iterative solver
           233 MiB given to the printing process from OS
             0 MiB allocation reported by mallinfo(arena+hblkhd)
         46152 MiB available memory on the node where the printing process lives
------------------
     ethr =  1.90E-06,  avg # of iterations =  1.3

     total cpu time spent up to now is       20.8 secs

     total energy              =   -1386.99498398 Ry
     estimated scf accuracy    <       0.00113651 Ry

     iteration # 20     ecut=    30.00 Ry     beta= 0.70
     Davidson diagonalization with overlap

---- Real-time Memory Report at c_bands before calling an iterative solver
           233 MiB given to the printing process from OS
             0 MiB allocation reported by mallinfo(arena+hblkhd)
         46152 MiB available memory on the node where the printing process lives
------------------
     ethr =  1.58E-06,  avg # of iterations =  2.3

     total cpu time spent up to now is       21.6 secs

     total energy              =   -1386.99499306 Ry
     estimated scf accuracy    <       0.00086049 Ry

     iteration # 21     ecut=    30.00 Ry     beta= 0.70
     Davidson diagonalization with overlap

---- Real-time Memory Report at c_bands before calling an iterative solver
           233 MiB given to the printing process from OS
             0 MiB allocation reported by mallinfo(arena+hblkhd)
         46152 MiB available memory on the node where the printing process lives
------------------
     ethr =  1.20E-06,  avg # of iterations =  1.0

     total cpu time spent up to now is       22.5 secs

     total energy              =   -1386.99502248 Ry
     estimated scf accuracy    <       0.00034232 Ry

     iteration # 22     ecut=    30.00 Ry     beta= 0.70
     Davidson diagonalization with overlap

---- Real-time Memory Report at c_bands before calling an iterative solver
           233 MiB given to the printing process from OS
             0 MiB allocation reported by mallinfo(arena+hblkhd)
         46152 MiB available memory on the node where the printing process lives
------------------
     ethr =  4.75E-07,  avg # of iterations =  1.0

     total cpu time spent up to now is       23.3 secs

     total energy              =   -1386.99502959 Ry
     estimated scf accuracy    <       0.00002212 Ry

     iteration # 23     ecut=    30.00 Ry     beta= 0.70
     Davidson diagonalization with overlap

---- Real-time Memory Report at c_bands before calling an iterative solver
           233 MiB given to the printing process from OS
             0 MiB allocation reported by mallinfo(arena+hblkhd)
         46153 MiB available memory on the node where the printing process lives
------------------
     ethr =  3.07E-08,  avg # of iterations =  1.0

     total cpu time spent up to now is       24.4 secs

     total energy              =   -1386.99503144 Ry
     estimated scf accuracy    <       0.00002476 Ry

     iteration # 24     ecut=    30.00 Ry     beta= 0.70
     Davidson diagonalization with overlap

---- Real-time Memory Report at c_bands before calling an iterative solver
           233 MiB given to the printing process from OS
             0 MiB allocation reported by mallinfo(arena+hblkhd)
         46153 MiB available memory on the node where the printing process lives
------------------
     ethr =  3.07E-08,  avg # of iterations =  1.0

     total cpu time spent up to now is       25.2 secs

     total energy              =   -1386.99503078 Ry
     estimated scf accuracy    <       0.00001190 Ry

     iteration # 25     ecut=    30.00 Ry     beta= 0.70
     Davidson diagonalization with overlap

---- Real-time Memory Report at c_bands before calling an iterative solver
           233 MiB given to the printing process from OS
             0 MiB allocation reported by mallinfo(arena+hblkhd)
         46153 MiB available memory on the node where the printing process lives
------------------
     ethr =  1.65E-08,  avg # of iterations =  1.0

     total cpu time spent up to now is       26.0 secs

     total energy              =   -1386.99503059 Ry
     estimated scf accuracy    <       0.00011403 Ry

     iteration # 26     ecut=    30.00 Ry     beta= 0.70
     Davidson diagonalization with overlap

---- Real-time Memory Report at c_bands before calling an iterative solver
           234 MiB given to the printing process from OS
             0 MiB allocation reported by mallinfo(arena+hblkhd)
         46153 MiB available memory on the node where the printing process lives
------------------
     ethr =  1.65E-08,  avg # of iterations =  1.0

     total cpu time spent up to now is       26.8 secs

     End of self-consistent calculation

          k = 0.0000 0.0000 0.0000 (  1663 PWs)   bands (ev):

   -65.2140 -65.1960 -34.0280 -34.0011 -33.9393 -33.9124 -33.8905 -33.8900
   -23.2397 -10.3442 -10.3099 -10.3097 -10.2720 -10.2717 -10.2608 -10.2606
   -10.2495 -10.2379 -10.2341  -4.4531  -4.4218  -4.4139   3.1936   6.3086
     8.6374  11.3609  11.3699  11.6851  11.9472  12.5822  12.5833  13.0754
    13.2425  13.4935  13.6088  13.6299  13.9041  13.9107  13.9218  13.9273
    13.9564  13.9904  14.0826  14.2141  14.8821  16.8936  16.8978  17.2667
    18.0060  18.7495  19.6502  19.6526  19.7561  19.9681  20.6102  23.8959
    24.2074  24.2117  24.4280  25.1610  25.1618  26.4733  26.4787  26.7492

     occupation numbers 
     1.0000   1.0000   1.0000   1.0000   1.0000   1.0000   1.0000   1.0000
     1.0000   1.0000   1.0000   1.0000   1.0000   1.0000   1.0000   1.0000
     1.0000   1.0000   1.0000   1.0000   1.0000   1.0000   1.0000   1.0000
     1.0000   1.0000   1.0000   1.0000   1.0000   1.0000   1.0000   1.0000
     1.0000   1.0000   1.0000   1.0000   0.0000   0.0000   0.0000   0.0000
     0.0000   0.0000   0.0000   0.0000   0.0000   0.0000   0.0000   0.0000
     0.0000   0.0000   0.0000   0.0000   0.0000   0.0000   0.0000   0.0000
     0.0000   0.0000   0.0000   0.0000   0.0000   0.0000   0.0000   0.0000

          k = 0.0000 0.0000 0.7276 (  1666 PWs)   bands (ev):

   -65.2074 -65.2027 -34.0344 -33.9867 -33.9316 -33.9283 -33.8941 -33.8922
   -23.2163 -10.3421 -10.3199 -10.3112 -10.2799 -10.2747 -10.2520 -10.2490
   -10.2477 -10.2444 -10.2296  -4.6503  -4.6095  -4.3824   4.4241   6.2620
     9.2155   9.9835  10.8156  11.6872  12.1370  12.2996  12.4145  12.6730
    12.8563  13.3963  13.5046  13.7057  13.7216  13.7899  13.8600  13.8790
    13.9404  13.9572  14.0694  14.1530  14.9369  15.1599  17.1461  17.8432
    18.5566  18.6137  18.9479  19.2291  19.4780  23.0374  23.3424  23.8241
    24.3550  24.4099  25.1878  25.6533  25.7706  26.4703  27.4619  29.2471

     occupation numbers 
     1.0000   1.0000   1.0000   1.0000   1.0000   1.0000   1.0000   1.0000
     1.0000   1.0000   1.0000   1.0000   1.0000   1.0000   1.0000   1.0000
     1.0000   1.0000   1.0000   1.0000   1.0000   1.0000   1.0000   1.0000
     1.0000   1.0000   1.0000   1.0000   1.0000   1.0000   1.0000   1.0000
     1.0000   1.0000   1.0000   1.0000   0.0000   0.0000   0.0000   0.0000
     0.0000   0.0000   0.0000   0.0000   0.0000   0.0000   0.0000   0.0000
     0.0000   0.0000   0.0000   0.0000   0.0000   0.0000   0.0000   0.0000
     0.0000   0.0000   0.0000   0.0000   0.0000   0.0000   0.0000   0.0000

          k = 0.0000 0.4093 0.3638 (  1665 PWs)   bands (ev):

   -65.2098 -65.2003 -34.0042 -33.9772 -33.9614 -33.9343 -33.8981 -33.8901
   -23.2277 -10.3430 -10.3158 -10.3153 -10.2764 -10.2714 -10.2563 -10.2535
   -10.2457 -10.2396 -10.2332  -4.7004  -4.4221  -4.3834   4.2131   5.8256
     9.7154  10.0197  11.2631  11.4613  11.8854  12.1426  12.4383  13.0277
    13.3703  13.3897  13.4355  13.6198  13.7132  13.7440  13.8233  13.9415
    13.9483  14.0265  14.0556  14.5274  14.7082  15.9618  17.0751  17.2111
    17.9780  18.6022  18.8502  20.0999  20.2551  21.9688  22.2200  22.9759
    23.2373  23.8145  24.4771  24.8652  26.4211  26.8220  28.2454  29.2166

     occupation numbers 
     1.0000   1.0000   1.0000   1.0000   1.0000   1.0000   1.0000   1.0000
     1.0000   1.0000   1.0000   1.0000   1.0000   1.0000   1.0000   1.0000
     1.0000   1.0000   1.0000   1.0000   1.0000   1.0000   1.0000   1.0000
     1.0000   1.0000   1.0000   1.0000   1.0000   1.0000   1.0000   1.0000
     1.0000   1.0000   1.0000   1.0000   0.0000   0.0000   0.0000   0.0000
     0.0000   0.0000   0.0000   0.0000   0.0000   0.0000   0.0000   0.0000
     0.0000   0.0000   0.0000   0.0000   0.0000   0.0000   0.0000   0.0000
     0.0000   0.0000   0.0000   0.0000   0.0000   0.0000   0.0000   0.0000

          k = 0.0000 0.4093 1.0914 (  1663 PWs)   bands (ev):

   -65.2074 -65.2027 -34.0113 -34.0095 -33.9553 -33.9058 -33.8960 -33.8881
   -23.2162 -10.3420 -10.3201 -10.3113 -10.2762 -10.2726 -10.2543 -10.2494
   -10.2454 -10.2452 -10.2324  -4.6383  -4.6205  -4.3873   4.6083   5.8308
    10.0093  10.1640  10.7516  11.4907  11.5676  12.1037  12.4603  12.6017
    12.7894  13.5388  13.5866  13.6702  13.7090  13.7872  13.8256  13.9185
    13.9365  13.9471  14.2000  14.3908  15.1490  15.4671  15.8373  17.6560
    17.8261  19.2648  19.5923  20.0697  20.3947  21.4976  21.9809  23.2808
    24.4101  24.5872  25.2276  25.6259  26.9108  28.0166  28.6001  29.9807

     occupation numbers 
     1.0000   1.0000   1.0000   1.0000   1.0000   1.0000   1.0000   1.0000
     1.0000   1.0000   1.0000   1.0000   1.0000   1.0000   1.0000   1.0000
     1.0000   1.0000   1.0000   1.0000   1.0000   1.0000   1.0000   1.0000
     1.0000   1.0000   1.0000   1.0000   1.0000   1.0000   1.0000   1.0000
     1.0000   1.0000   1.0000   1.0000   0.0000   0.0000   0.0000   0.0000
     0.0000   0.0000   0.0000   0.0000   0.0000   0.0000   0.0000   0.0000
     0.0000   0.0000   0.0000   0.0000   0.0000   0.0000   0.0000   0.0000
     0.0000   0.0000   0.0000   0.0000   0.0000   0.0000   0.0000   0.0000

          k = 0.3333-0.2375 0.3638 (  1665 PWs)   bands (ev):

   -65.2098 -65.2003 -34.0041 -33.9772 -33.9614 -33.9343 -33.8981 -33.8901
   -23.2277 -10.3430 -10.3158 -10.3153 -10.2764 -10.2714 -10.2563 -10.2535
   -10.2457 -10.2396 -10.2332  -4.7004  -4.4221  -4.3834   4.2131   5.8256
     9.7154  10.0197  11.2632  11.4613  11.8853  12.1425  12.4383  13.0277
    13.3703  13.3897  13.4355  13.6199  13.7132  13.7440  13.8233  13.9415
    13.9482  14.0265  14.0556  14.5274  14.7082  15.9618  17.0751  17.2111
    17.9780  18.6022  18.8502  20.0999  20.2551  21.9689  22.2200  22.9759
    23.2373  23.8145  24.4771  24.8652  26.4211  26.8219  28.2454  29.2163

     occupation numbers 
     1.0000   1.0000   1.0000   1.0000   1.0000   1.0000   1.0000   1.0000
     1.0000   1.0000   1.0000   1.0000   1.0000   1.0000   1.0000   1.0000
     1.0000   1.0000   1.0000   1.0000   1.0000   1.0000   1.0000   1.0000
     1.0000   1.0000   1.0000   1.0000   1.0000   1.0000   1.0000   1.0000
     1.0000   1.0000   1.0000   1.0000   0.0000   0.0000   0.0000   0.0000
     0.0000   0.0000   0.0000   0.0000   0.0000   0.0000   0.0000   0.0000
     0.0000   0.0000   0.0000   0.0000   0.0000   0.0000   0.0000   0.0000
     0.0000   0.0000   0.0000   0.0000   0.0000   0.0000   0.0000   0.0000

          k = 0.3333-0.2375 1.0914 (  1663 PWs)   bands (ev):

   -65.2074 -65.2027 -34.0113 -34.0095 -33.9553 -33.9058 -33.8960 -33.8881
   -23.2162 -10.3420 -10.3201 -10.3113 -10.2762 -10.2726 -10.2543 -10.2494
   -10.2454 -10.2452 -10.2324  -4.6383  -4.6205  -4.3873   4.6083   5.8308
    10.0093  10.1640  10.7516  11.4907  11.5676  12.1037  12.4604  12.6017
    12.7894  13.5388  13.5866  13.6702  13.7090  13.7873  13.8256  13.9185
    13.9365  13.9471  14.2000  14.3908  15.1490  15.4671  15.8373  17.6560
    17.8261  19.2648  19.5923  20.0697  20.3947  21.4976  21.9809  23.2808
    24.4101  24.5872  25.2276  25.6259  26.9108  28.0166  28.6001  29.8094

     occupation numbers 
     1.0000   1.0000   1.0000   1.0000   1.0000   1.0000   1.0000   1.0000
     1.0000   1.0000   1.0000   1.0000   1.0000   1.0000   1.0000   1.0000
     1.0000   1.0000   1.0000   1.0000   1.0000   1.0000   1.0000   1.0000
     1.0000   1.0000   1.0000   1.0000   1.0000   1.0000   1.0000   1.0000
     1.0000   1.0000   1.0000   1.0000   0.0000   0.0000   0.0000   0.0000
     0.0000   0.0000   0.0000   0.0000   0.0000   0.0000   0.0000   0.0000
     0.0000   0.0000   0.0000   0.0000   0.0000   0.0000   0.0000   0.0000
     0.0000   0.0000   0.0000   0.0000   0.0000   0.0000   0.0000   0.0000

          k = 0.3333 0.1718 0.7276 (  1663 PWs)   bands (ev):

   -65.2074 -65.2027 -34.0363 -33.9845 -33.9327 -33.9284 -33.8960 -33.8881
   -23.2162 -10.3420 -10.3199 -10.3115 -10.2764 -10.2724 -10.2543 -10.2494
   -10.2454 -10.2452 -10.2323  -4.6460  -4.6128  -4.3873   4.6084   5.8307
    10.0053  10.1665  10.7497  11.4897  11.5724  12.1071  12.4543  12.5992
    12.8032  13.5412  13.5861  13.6594  13.7081  13.7802  13.8357  13.9209
    13.9273  13.9489  14.1998  14.3990  15.1335  15.4756  15.8341  17.6586
    17.8284  19.2684  19.5929  20.0728  20.3909  21.4993  21.9815  23.2782
    24.4059  24.5845  25.2248  25.6268  26.9076  28.0215  28.5989  29.8098

     occupation numbers 
     1.0000   1.0000   1.0000   1.0000   1.0000   1.0000   1.0000   1.0000
     1.0000   1.0000   1.0000   1.0000   1.0000   1.0000   1.0000   1.0000
     1.0000   1.0000   1.0000   1.0000   1.0000   1.0000   1.0000   1.0000
     1.0000   1.0000   1.0000   1.0000   1.0000   1.0000   1.0000   1.0000
     1.0000   1.0000   1.0000   1.0000   0.0000   0.0000   0.0000   0.0000
     0.0000   0.0000   0.0000   0.0000   0.0000   0.0000   0.0000   0.0000
     0.0000   0.0000   0.0000   0.0000   0.0000   0.0000   0.0000   0.0000
     0.0000   0.0000   0.0000   0.0000   0.0000   0.0000   0.0000   0.0000

          k = 0.3333 0.1718-0.0000 (  1686 PWs)   bands (ev):

   -65.2154 -65.1957 -34.0292 -34.0023 -33.9471 -33.9202 -33.9059 -33.8809
   -23.2394 -10.3454 -10.3186 -10.3184 -10.2714 -10.2711 -10.2648 -10.2616
   -10.2485 -10.2432 -10.2381  -4.4753  -4.4214  -4.4134   3.7130   5.1651
     9.7910  11.2784  11.2886  11.5247  11.9497  12.4124  12.4182  12.4761
    13.3302  13.6234  13.6847  13.6856  13.8023  13.8450  13.9232  14.0065
    14.2026  14.4893  14.5055  14.8727  14.9062  16.8964  16.9029  17.1397
    17.1950  18.2806  19.1340  19.6269  19.6295  19.9806  21.0671  21.5173
    21.5216  22.3634  26.8379  26.9584  27.4992  27.4998  28.4004  29.2853

     occupation numbers 
     1.0000   1.0000   1.0000   1.0000   1.0000   1.0000   1.0000   1.0000
     1.0000   1.0000   1.0000   1.0000   1.0000   1.0000   1.0000   1.0000
     1.0000   1.0000   1.0000   1.0000   1.0000   1.0000   1.0000   1.0000
     1.0000   1.0000   1.0000   1.0000   1.0000   1.0000   1.0000   1.0000
     1.0000   1.0000   1.0000   1.0000   0.0000   0.0000   0.0000   0.0000
     0.0000   0.0000   0.0000   0.0000   0.0000   0.0000   0.0000   0.0000
     0.0000   0.0000   0.0000   0.0000   0.0000   0.0000   0.0000   0.0000
     0.0000   0.0000   0.0000   0.0000   0.0000   0.0000   0.0000   0.0000

          k = 0.3333-0.6467 0.0000 (  1666 PWs)   bands (ev):

   -65.2074 -65.2027 -34.0136 -34.0076 -33.9552 -33.9047 -33.8941 -33.8922
   -23.2163 -10.3421 -10.3196 -10.3114 -10.2801 -10.2745 -10.2520 -10.2490
   -10.2477 -10.2446 -10.2294  -4.6426  -4.6172  -4.3824   4.4240   6.2622
     9.2185   9.9812  10.8164  11.6826  12.1376  12.3048  12.4117  12.6834
    12.8415  13.3908  13.5017  13.7297  13.7496  13.7687  13.8487  13.8614
    13.9483  13.9567  14.0702  14.1513  14.9279  15.1755  17.1454  17.8495
    18.5549  18.6160  18.9476  19.2232  19.4750  23.0347  23.3469  23.8206
    24.3572  24.4085  25.1864  25.6484  25.7734  26.4743  27.4651  29.2486

     occupation numbers 
     1.0000   1.0000   1.0000   1.0000   1.0000   1.0000   1.0000   1.0000
     1.0000   1.0000   1.0000   1.0000   1.0000   1.0000   1.0000   1.0000
     1.0000   1.0000   1.0000   1.0000   1.0000   1.0000   1.0000   1.0000
     1.0000   1.0000   1.0000   1.0000   1.0000   1.0000   1.0000   1.0000
     1.0000   1.0000   1.0000   1.0000   0.0000   0.0000   0.0000   0.0000
     0.0000   0.0000   0.0000   0.0000   0.0000   0.0000   0.0000   0.0000
     0.0000   0.0000   0.0000   0.0000   0.0000   0.0000   0.0000   0.0000
     0.0000   0.0000   0.0000   0.0000   0.0000   0.0000   0.0000   0.0000

          k = 0.3333-0.6467 0.7276 (  1666 PWs)   bands (ev):

   -65.2100 -65.2004 -34.0077 -33.9808 -33.9633 -33.9356 -33.8993 -33.8848
   -23.2275 -10.3439 -10.3173 -10.3157 -10.2737 -10.2696 -10.2595 -10.2548
   -10.2486 -10.2428 -10.2320  -4.6992  -4.4325  -4.3832   4.7254   5.1243
     9.4959  10.9315  11.0241  11.6116  11.6237  12.0962  12.3680  12.7627
    13.2790  13.4177  13.5801  13.6285  13.6725  13.8150  13.8616  13.9353
    13.9934  13.9964  14.7204  14.9204  15.2548  15.5257  17.2267  17.2383
    17.3885  18.0545  18.1572  18.3021  19.5667  22.8063  23.3054  23.8777
    24.0191  24.5723  25.2459  25.4301  26.3691  26.5308  26.6537  28.4578

     occupation numbers 
     1.0000   1.0000   1.0000   1.0000   1.0000   1.0000   1.0000   1.0000
     1.0000   1.0000   1.0000   1.0000   1.0000   1.0000   1.0000   1.0000
     1.0000   1.0000   1.0000   1.0000   1.0000   1.0000   1.0000   1.0000
     1.0000   1.0000   1.0000   1.0000   1.0000   1.0000   1.0000   1.0000
     1.0000   1.0000   1.0000   1.0000   0.0000   0.0000   0.0000   0.0000
     0.0000   0.0000   0.0000   0.0000   0.0000   0.0000   0.0000   0.0000
     0.0000   0.0000   0.0000   0.0000   0.0000   0.0000   0.0000   0.0000
     0.0000   0.0000   0.0000   0.0000   0.0000   0.0000   0.0000   0.0000

     highest occupied, lowest unoccupied level (ev):    13.7297   13.6725

!    total energy              =   -1386.99503172 Ry
     estimated scf accuracy    <       0.00000077 Ry

     The total energy is the sum of the following terms:
     one-electron contribution =    -498.06577449 Ry
     hartree contribution      =     305.79432071 Ry
     xc contribution           =    -183.42342199 Ry
     ewald contribution        =    -581.23999427 Ry
     one-center paw contrib.   =    -430.06016170 Ry
      -> PAW hartree energy AE =      80.72400127 Ry
      -> PAW hartree energy PS =     -80.38177940 Ry
      -> PAW xc energy AE      =    -442.89765359 Ry
      -> PAW xc energy PS      =      12.49527002 Ry
      -> total E_H with PAW    =     306.13654258 Ry
      -> total E_XC with PAW   =    -613.82580555 Ry

     convergence has been achieved in  26 iterations

     Writing all to output data dir calculations_bands/myprefix.save/
 
     init_run     :      8.82s CPU      2.57s WALL (       1 calls)
     electrons    :     88.49s CPU     23.84s WALL (       1 calls)

     Called by init_run:
     wfcinit      :      1.90s CPU      0.50s WALL (       1 calls)
     wfcinit:atom :      0.01s CPU      0.00s WALL (       5 calls)
     wfcinit:wfcr :      1.85s CPU      0.48s WALL (       5 calls)
     potinit      :      1.95s CPU      0.52s WALL (       1 calls)
     hinit0       :      3.65s CPU      1.09s WALL (       1 calls)

     Called by electrons:
     c_bands      :     40.10s CPU     10.52s WALL (      26 calls)
     sum_band     :     13.44s CPU      3.84s WALL (      26 calls)
     v_of_rho     :      1.69s CPU      0.46s WALL (      27 calls)
     v_h          :      0.11s CPU      0.03s WALL (      27 calls)
     v_xc         :      1.57s CPU      0.43s WALL (      27 calls)
     newd         :      8.66s CPU      2.51s WALL (      27 calls)
     PAW_pot      :     25.39s CPU      6.73s WALL (      27 calls)
     mix_rho      :      0.44s CPU      0.12s WALL (      26 calls)

     Called by c_bands:
     init_us_2    :      0.29s CPU      0.08s WALL (     265 calls)
     init_us_2:cp :      0.28s CPU      0.08s WALL (     265 calls)
     cegterg      :     37.07s CPU      9.70s WALL (     130 calls)

     Called by sum_band:
     sum_band:wei :      0.02s CPU      0.00s WALL (      26 calls)
     sum_band:loo :      7.02s CPU      1.82s WALL (      26 calls)
     sum_band:buf :      0.05s CPU      0.01s WALL (     130 calls)
     sum_band:ini :      0.14s CPU      0.03s WALL (     130 calls)
     sum_band:cal :      0.20s CPU      0.05s WALL (     130 calls)
     sum_band:bec :      0.06s CPU      0.02s WALL (     130 calls)
     addusdens    :      4.58s CPU      1.52s WALL (      26 calls)
     addusd:skk   :      0.01s CPU      0.00s WALL (      78 calls)
     addusd:dgemm :      0.45s CPU      0.42s WALL (      78 calls)
     addusd:qvan2 :      3.39s CPU      0.86s WALL (      78 calls)

     Called by *egterg:
     cdiaghg      :      5.00s CPU      1.32s WALL (     318 calls)
     cegterg:over :      0.70s CPU      0.18s WALL (     188 calls)
     cegterg:upda :      0.37s CPU      0.10s WALL (     188 calls)
     cegterg:last :      0.29s CPU      0.08s WALL (     149 calls)
     cdiaghg:chol :      0.38s CPU      0.10s WALL (     318 calls)
     cdiaghg:inve :      0.07s CPU      0.02s WALL (     318 calls)
     cdiaghg:para :      0.90s CPU      0.24s WALL (     636 calls)
     h_psi        :     31.41s CPU      8.19s WALL (     323 calls)
     s_psi        :      0.22s CPU      0.06s WALL (     323 calls)
     g_psi        :      0.02s CPU      0.01s WALL (     188 calls)

     Called by h_psi:
     h_psi:calbec :      0.50s CPU      0.13s WALL (     323 calls)
     vloc_psi     :     30.53s CPU      7.96s WALL (     323 calls)
     add_vuspsi   :      0.33s CPU      0.09s WALL (     323 calls)

     General routines
     calbec       :      0.69s CPU      0.18s WALL (     453 calls)
     fft          :      3.01s CPU      0.86s WALL (     349 calls)
     ffts         :      0.52s CPU      0.14s WALL (      53 calls)
     fftw         :     32.82s CPU      8.56s WALL (   43698 calls)
     interpolate  :      0.60s CPU      0.16s WALL (      27 calls)
 
     Parallel routines

     PAW routines
     PAW_pot      :     25.39s CPU      6.73s WALL (      27 calls)
     PAW_symme    :      0.29s CPU      0.08s WALL (      53 calls)
 
     PWSCF        :   1m38.64s CPU     27.42s WALL

 
   This run was terminated on:  10:35:49   6Jun2023            

=------------------------------------------------------------------------------=
   JOB DONE.
=------------------------------------------------------------------------------=
