
     Program PWSCF v.7.0 starts on  5Jun2023 at  4: 3:53 

     This program is part of the open-source Quantum ESPRESSO suite
     for quantum simulation of materials; please cite
         "P. Giannozzi et al., J. Phys.:Condens. Matter 21 395502 (2009);
         "P. Giannozzi et al., J. Phys.:Condens. Matter 29 465901 (2017);
         "P. Giannozzi et al., J. Chem. Phys. 152 154105 (2020);
          URL http://www.quantum-espresso.org", 
     in publications or presentations arising from this work. More details at
     http://www.quantum-espresso.org/quote

     Parallel version (MPI & OpenMP), running on      32 processor cores
     Number of MPI processes:                 8
     Threads/MPI process:                     4

     MPI processes distributed on     1 nodes
     K-points division:     npool     =       2
     R & G space division:  proc/nbgrp/npool/nimage =       4
     126387 MiB available memory on the printing compute node when the environment starts
 
     Reading input from espresso_10370.pwi
Warning: card &CELL ignored
Warning: card / ignored

     Current dimensions of program PWSCF are:
     Max number of different atomic species (ntypx) = 10
     Max number of k-points (npk) =  40000
     Max angular momentum in pseudopotentials (lmaxx) =  4
     Message from routine setup:
     using ibrav=0 with symmetry is DISCOURAGED, use correct ibrav instead

     Subspace diagonalization in iterative solution of the eigenvalue problem:
     one sub-group per band group will be used
     scalapack distributed-memory algorithm (size of sub-group:  2*  2 procs)

 
     Parallelization info
     --------------------
     sticks:   dense  smooth     PW     G-vecs:    dense   smooth      PW
     Min         385     193     59                 9214     3257     551
     Max         386     194     60                 9215     3258     553
     Sum        1543     773    237                36857    13029    2207
 
     Using Slab Decomposition
 


     bravais-lattice index     =            0
     lattice parameter (alat)  =      10.7710  a.u.
     unit-cell volume          =     587.3578 (a.u.)^3
     number of atoms/cell      =            4
     number of atomic types    =            2
     number of electrons       =        30.00
     number of Kohn-Sham states=           64
     kinetic-energy cutoff     =      30.0000  Ry
     charge density cutoff     =     240.0000  Ry
     scf convergence threshold =      1.0E-06
     mixing beta               =       0.7000
     number of iterations used =            8  plain     mixing
     Exchange-correlation= PBE
                           (   1   4   3   4   0   0   0)

     celldm(1)=  10.771034  celldm(2)=   0.000000  celldm(3)=   0.000000
     celldm(4)=   0.000000  celldm(5)=   0.000000  celldm(6)=   0.000000

     crystal axes: (cart. coord. in units of alat)
               a(1) = (   1.000000   0.000000   0.000000 )  
               a(2) = (  -0.716857   0.697220   0.000000 )  
               a(3) = (   0.000000   0.000000   0.674156 )  

     reciprocal axes: (cart. coord. in units 2 pi/alat)
               b(1) = (  1.000000  1.028164  0.000000 )  
               b(2) = (  0.000000  1.434267  0.000000 )  
               b(3) = (  0.000000  0.000000  1.483336 )  


     PseudoPot. # 1 for Y  read from file:
     /home/pragov/projects/rrg-bengioy-ad/pragov/crystal_structure_design/SSSP/Y_pbe_v1.uspp.F.UPF
     MD5 check sum: 2cf71db95cafeb975fc457bd7f14888e
     Pseudo is Ultrasoft + core correction, Zval = 11.0
     Generated by new atomic code, or converted to UPF format
     Using radial grid of  885 points,  6 beta functions with: 
                l(1) =   0
                l(2) =   0
                l(3) =   1
                l(4) =   1
                l(5) =   2
                l(6) =   2
     Q(r) pseudized with  6 coefficients,  rinner =    1.200   1.200   1.200
                                                       1.200   1.200

     PseudoPot. # 2 for Si read from file:
     /home/pragov/projects/rrg-bengioy-ad/pragov/crystal_structure_design/SSSP/Si.pbe-n-rrkjus_psl.1.0.0.UPF
     MD5 check sum: 0b0bb1205258b0d07b9f9672cf965d36
     Pseudo is Ultrasoft + core correction, Zval =  4.0
     Generated using "atomic" code by A. Dal Corso  v.5.1
     Using radial grid of 1141 points,  6 beta functions with: 
                l(1) =   0
                l(2) =   0
                l(3) =   1
                l(4) =   1
                l(5) =   2
                l(6) =   2
     Q(r) pseudized with 0 coefficients 


     atomic species   valence    mass     pseudopotential
        Y             11.00    88.90584     Y ( 1.00)
        Si             4.00    28.08500     Si( 1.00)

      4 Sym. Ops., with inversion, found ( 2 have fractional translation)


                                    s                        frac. trans.

      isym =  1     identity                                     

 cryst.   s( 1) = (     1          0          0      )
                  (     0          1          0      )
                  (     0          0          1      )

 cart.    s( 1) = (  1.0000000  0.0000000  0.0000000 )
                  (  0.0000000  1.0000000  0.0000000 )
                  (  0.0000000  0.0000000  1.0000000 )


      isym =  2     180 deg rotation - cart. axis [0,0,1]        

 cryst.   s( 2) = (    -1          0          0      )    f =( -0.0000000 )
                  (     0         -1          0      )       ( -0.0000000 )
                  (     0          0          1      )       ( -0.5000000 )

 cart.    s( 2) = ( -1.0000000 -0.0000000  0.0000000 )    f =( -0.0000000 )
                  (  0.0000000 -1.0000000  0.0000000 )       ( -0.0000000 )
                  (  0.0000000  0.0000000  1.0000000 )       ( -0.3370781 )


      isym =  3     inversion                                    

 cryst.   s( 3) = (    -1          0          0      )
                  (     0         -1          0      )
                  (     0          0         -1      )

 cart.    s( 3) = ( -1.0000000 -0.0000000  0.0000000 )
                  (  0.0000000 -1.0000000  0.0000000 )
                  (  0.0000000  0.0000000 -1.0000000 )


      isym =  4     inv. 180 deg rotation - cart. axis [0,0,1]   

 cryst.   s( 4) = (     1          0          0      )    f =(  0.0000000 )
                  (     0          1          0      )       (  0.0000000 )
                  (     0          0         -1      )       (  0.5000000 )

 cart.    s( 4) = (  1.0000000  0.0000000  0.0000000 )    f =(  0.0000000 )
                  (  0.0000000  1.0000000  0.0000000 )       (  0.0000000 )
                  (  0.0000000  0.0000000 -1.0000000 )       (  0.3370781 )


   Cartesian axes

     site n.     atom                  positions (alat units)
         1           Y   tau(   1) = (  -0.4761278   0.5994596   0.1685391  )
         2           Y   tau(   2) = (   0.7592709   0.0977607   0.5056172  )
         3           Si  tau(   3) = (   0.0110286   0.4016240   0.1685391  )
         4           Si  tau(   4) = (   0.2721145   0.2955963   0.5056172  )

   Crystallographic axes

     site n.     atom                  positions (cryst. coord.)
         1           Y   tau(   1) = (  0.1402150  0.8597850  0.2500000  )
         2           Y   tau(   2) = (  0.8597850  0.1402150  0.7500000  )
         3           Si  tau(   3) = (  0.4239640  0.5760360  0.2500000  )
         4           Si  tau(   4) = (  0.5760360  0.4239640  0.7500000  )

     number of k points=    10
                       cart. coord. in units 2pi/alat
        k(    1) = (   0.0000000   0.0000000   0.0000000), wk =   0.0740741
        k(    2) = (   0.0000000   0.0000000   0.4944452), wk =   0.1481481
        k(    3) = (   0.0000000   0.4780890   0.0000000), wk =   0.1481481
        k(    4) = (   0.0000000   0.4780890   0.4944452), wk =   0.2962963
        k(    5) = (   0.3333333   0.3427214   0.0000000), wk =   0.1481481
        k(    6) = (   0.3333333   0.3427214   0.4944452), wk =   0.2962963
        k(    7) = (   0.3333333   0.8208103   0.0000000), wk =   0.1481481
        k(    8) = (   0.3333333   0.8208103   0.4944452), wk =   0.2962963
        k(    9) = (   0.3333333  -0.1353676   0.0000000), wk =   0.1481481
        k(   10) = (   0.3333333  -0.1353676   0.4944452), wk =   0.2962963

                       cryst. coord.
        k(    1) = (   0.0000000   0.0000000   0.0000000), wk =   0.0740741
        k(    2) = (   0.0000000   0.0000000   0.3333333), wk =   0.1481481
        k(    3) = (   0.0000000   0.3333333   0.0000000), wk =   0.1481481
        k(    4) = (   0.0000000   0.3333333   0.3333333), wk =   0.2962963
        k(    5) = (   0.3333333   0.0000000   0.0000000), wk =   0.1481481
        k(    6) = (   0.3333333   0.0000000   0.3333333), wk =   0.2962963
        k(    7) = (   0.3333333   0.3333333   0.0000000), wk =   0.1481481
        k(    8) = (   0.3333333   0.3333333   0.3333333), wk =   0.2962963
        k(    9) = (   0.3333333  -0.3333333   0.0000000), wk =   0.1481481
        k(   10) = (   0.3333333  -0.3333333   0.3333333), wk =   0.2962963

     Dense  grid:    36857 G-vectors     FFT dimensions: (  54,  54,  36)

     Smooth grid:    13029 G-vectors     FFT dimensions: (  40,  40,  30)

     Dynamical RAM for                 wfc:       0.40 MB

     Dynamical RAM for     wfc (w. buffer):       2.38 MB

     Dynamical RAM for           str. fact:       0.28 MB

     Dynamical RAM for           local pot:       0.00 MB

     Dynamical RAM for          nlocal pot:       0.45 MB

     Dynamical RAM for                qrad:       2.49 MB

     Dynamical RAM for          rho,v,vnew:       1.02 MB

     Dynamical RAM for               rhoin:       0.34 MB

     Dynamical RAM for            rho*nmix:       2.25 MB

     Dynamical RAM for           G-vectors:       0.55 MB

     Dynamical RAM for          h,s,v(r/c):       0.19 MB

     Dynamical RAM for          <psi|beta>:       0.07 MB

     Dynamical RAM for                 psi:       0.79 MB

     Dynamical RAM for                hpsi:       0.79 MB

     Dynamical RAM for                spsi:       0.79 MB

     Dynamical RAM for      wfcinit/wfcrot:       0.89 MB

     Dynamical RAM for           addusdens:      13.29 MB

     Estimated static dynamical RAM per process >       8.94 MB

     Estimated max dynamical RAM per process >      24.48 MB

     Estimated total dynamical RAM >     186.81 MB

     Check: negative core charge=   -0.000005

     Initial potential from superposition of free atoms

     starting charge      29.9899, renormalised to      30.0000

     negative rho (up, down):  8.464E-02 0.000E+00
     Starting wfcs are   34 randomized atomic wfcs +   30 random wfcs

     total cpu time spent up to now is        2.4 secs

     Self-consistent Calculation

     iteration #  1     ecut=    30.00 Ry     beta= 0.70
     Davidson diagonalization with overlap

---- Real-time Memory Report at c_bands before calling an iterative solver
           160 MiB given to the printing process from OS
             0 MiB allocation reported by mallinfo(arena+hblkhd)
        126055 MiB available memory on the node where the printing process lives
------------------
     ethr =  1.00E-02,  avg # of iterations =  6.8

     Threshold (ethr) on eigenvalues was too large:
     Diagonalizing with lowered threshold

     Davidson diagonalization with overlap

---- Real-time Memory Report at c_bands before calling an iterative solver
           189 MiB given to the printing process from OS
             0 MiB allocation reported by mallinfo(arena+hblkhd)
        126043 MiB available memory on the node where the printing process lives
------------------
     ethr =  3.85E-04,  avg # of iterations =  2.4

     negative rho (up, down):  8.474E-02 0.000E+00

     total cpu time spent up to now is        8.9 secs

     total energy              =    -198.01594701 Ry
     estimated scf accuracy    <       0.11529960 Ry

     iteration #  2     ecut=    30.00 Ry     beta= 0.70
     Davidson diagonalization with overlap

---- Real-time Memory Report at c_bands before calling an iterative solver
           194 MiB given to the printing process from OS
             0 MiB allocation reported by mallinfo(arena+hblkhd)
        125960 MiB available memory on the node where the printing process lives
------------------
     ethr =  3.84E-04,  avg # of iterations =  3.0

     negative rho (up, down):  8.471E-02 0.000E+00

     total cpu time spent up to now is       12.3 secs

     total energy              =    -198.02785997 Ry
     estimated scf accuracy    <       0.20898118 Ry

     iteration #  3     ecut=    30.00 Ry     beta= 0.70
     Davidson diagonalization with overlap

---- Real-time Memory Report at c_bands before calling an iterative solver
           194 MiB given to the printing process from OS
             0 MiB allocation reported by mallinfo(arena+hblkhd)
        125942 MiB available memory on the node where the printing process lives
------------------
     ethr =  3.84E-04,  avg # of iterations =  1.4

     negative rho (up, down):  8.469E-02 0.000E+00

     total cpu time spent up to now is       15.2 secs

     total energy              =    -198.06661899 Ry
     estimated scf accuracy    <       0.00236762 Ry

     iteration #  4     ecut=    30.00 Ry     beta= 0.70
     Davidson diagonalization with overlap

---- Real-time Memory Report at c_bands before calling an iterative solver
           194 MiB given to the printing process from OS
             0 MiB allocation reported by mallinfo(arena+hblkhd)
        125871 MiB available memory on the node where the printing process lives
------------------
     ethr =  7.89E-06,  avg # of iterations =  6.1

     negative rho (up, down):  8.463E-02 0.000E+00

     total cpu time spent up to now is       21.3 secs

     total energy              =    -198.06690834 Ry
     estimated scf accuracy    <       0.00064187 Ry

     iteration #  5     ecut=    30.00 Ry     beta= 0.70
     Davidson diagonalization with overlap

---- Real-time Memory Report at c_bands before calling an iterative solver
           195 MiB given to the printing process from OS
             0 MiB allocation reported by mallinfo(arena+hblkhd)
        125871 MiB available memory on the node where the printing process lives
------------------
     ethr =  2.14E-06,  avg # of iterations =  2.2

     negative rho (up, down):  8.460E-02 0.000E+00

     total cpu time spent up to now is       28.2 secs

     total energy              =    -198.06703976 Ry
     estimated scf accuracy    <       0.00004493 Ry

     iteration #  6     ecut=    30.00 Ry     beta= 0.70
     Davidson diagonalization with overlap

---- Real-time Memory Report at c_bands before calling an iterative solver
           195 MiB given to the printing process from OS
             0 MiB allocation reported by mallinfo(arena+hblkhd)
        125859 MiB available memory on the node where the printing process lives
------------------
     ethr =  1.50E-07,  avg # of iterations =  1.0

     negative rho (up, down):  8.459E-02 0.000E+00

     total cpu time spent up to now is       30.9 secs

     End of self-consistent calculation

          k = 0.0000 0.0000 0.0000 (  1655 PWs)   bands (ev):

   -31.6588 -31.5997 -11.9440 -11.7089 -11.6527 -11.6337 -11.5415 -11.4781
     0.2994   4.6333   7.7785   8.3198   9.0406   9.3731  10.8525  11.3047
    12.3124  13.1871  13.2004  13.6361  13.7561  13.9243  14.2091  15.7350
    15.8399  16.7266  16.8866  17.0782  17.9177  19.5447  19.5626  19.7203
    22.3763  22.6585  23.8971  24.3499  24.8424  25.4076  27.1180  27.3717
    27.5889  29.4057  29.7970  29.8792  30.6871  31.2524  31.4025  31.5658
    32.5967  32.6345  33.1173  33.2857  33.5055  33.8514  34.3750  34.4515
    35.3888  35.5546  36.1461  37.0054  37.7146  37.9738  38.8665  39.1179

     occupation numbers 
     1.0000   1.0000   1.0000   1.0000   1.0000   1.0000   1.0000   1.0000
     1.0000   1.0000   1.0000   1.0000   1.0000   1.0000   1.0000   0.0000
     0.0000   0.0000   0.0000   0.0000   0.0000   0.0000   0.0000   0.0000
     0.0000   0.0000   0.0000   0.0000   0.0000   0.0000   0.0000   0.0000
     0.0000   0.0000   0.0000   0.0000   0.0000   0.0000   0.0000   0.0000
     0.0000   0.0000   0.0000   0.0000   0.0000   0.0000   0.0000   0.0000
     0.0000   0.0000   0.0000   0.0000   0.0000   0.0000   0.0000   0.0000
     0.0000   0.0000   0.0000   0.0000   0.0000   0.0000   0.0000   0.0000

          k = 0.0000 0.0000 0.4944 (  1628 PWs)   bands (ev):

   -31.6368 -31.6072 -11.8324 -11.7466 -11.6733 -11.6617 -11.6355 -11.6299
     1.4247   4.1203   6.8046   8.2868   8.4504   9.2169   9.4844  10.3585
    12.7842  12.9132  13.5071  14.2511  14.6879  15.3005  15.6369  16.1536
    16.2095  16.4444  17.7717  17.9182  17.9316  18.9188  20.8700  20.9945
    22.6932  23.0664  23.7354  23.7602  24.7691  24.7795  25.8607  26.8885
    27.4744  27.9272  27.9886  28.1959  29.6657  30.3167  30.6459  30.8325
    31.9439  33.1020  33.4759  34.0456  34.0579  35.0508  35.2268  35.4055
    36.2862  36.4193  36.4994  36.8244  37.8221  37.9113  38.1286  38.2024

     occupation numbers 
     1.0000   1.0000   1.0000   1.0000   1.0000   1.0000   1.0000   1.0000
     1.0000   1.0000   1.0000   1.0000   1.0000   1.0000   1.0000   0.0000
     0.0000   0.0000   0.0000   0.0000   0.0000   0.0000   0.0000   0.0000
     0.0000   0.0000   0.0000   0.0000   0.0000   0.0000   0.0000   0.0000
     0.0000   0.0000   0.0000   0.0000   0.0000   0.0000   0.0000   0.0000
     0.0000   0.0000   0.0000   0.0000   0.0000   0.0000   0.0000   0.0000
     0.0000   0.0000   0.0000   0.0000   0.0000   0.0000   0.0000   0.0000
     0.0000   0.0000   0.0000   0.0000   0.0000   0.0000   0.0000   0.0000

          k = 0.0000 0.4781 0.0000 (  1630 PWs)   bands (ev):

   -31.6464 -31.6084 -11.9178 -11.8035 -11.6678 -11.6162 -11.5520 -11.5049
     0.8984   5.0518   6.5008   8.2844   8.5250   9.0233  11.2634  11.3042
    11.8433  12.3374  12.6355  13.3455  14.3860  15.0885  15.1141  15.7487
    16.7831  17.1900  17.5594  18.2288  18.6478  19.2612  19.6079  20.5232
    22.1222  22.6758  22.7701  24.0764  24.5423  25.2841  25.7278  26.3280
    27.2167  28.4939  28.5604  29.0733  29.4324  30.0809  30.3226  30.9566
    31.0989  32.6481  32.7505  33.0134  33.6618  35.1975  35.3918  35.9212
    36.3595  36.9222  37.4579  37.8873  38.3923  38.8124  38.9676  39.6190

     occupation numbers 
     1.0000   1.0000   1.0000   1.0000   1.0000   1.0000   1.0000   1.0000
     1.0000   1.0000   1.0000   1.0000   1.0000   1.0000   1.0000   0.0000
     0.0000   0.0000   0.0000   0.0000   0.0000   0.0000   0.0000   0.0000
     0.0000   0.0000   0.0000   0.0000   0.0000   0.0000   0.0000   0.0000
     0.0000   0.0000   0.0000   0.0000   0.0000   0.0000   0.0000   0.0000
     0.0000   0.0000   0.0000   0.0000   0.0000   0.0000   0.0000   0.0000
     0.0000   0.0000   0.0000   0.0000   0.0000   0.0000   0.0000   0.0000
     0.0000   0.0000   0.0000   0.0000   0.0000   0.0000   0.0000   0.0000

          k = 0.0000 0.4781 0.4944 (  1632 PWs)   bands (ev):

   -31.6297 -31.6107 -11.8480 -11.8043 -11.7445 -11.6635 -11.6266 -11.5707
     1.7594   4.0203   7.0488   7.7086   8.1356   8.9431   9.8757  10.5948
    13.1360  13.3383  14.0079  14.1973  14.6116  15.0502  15.3554  15.7658
    16.2352  16.8907  17.5951  18.2892  18.6299  19.5064  19.6977  20.7400
    22.7092  23.2333  23.4915  24.0415  24.7187  25.0985  25.7012  26.1541
    26.8019  27.1888  27.6010  28.9718  29.0473  29.8886  30.3141  31.1177
    31.8415  32.3884  33.0660  33.1184  33.8782  34.9377  35.2145  35.4030
    35.5793  36.0830  36.4238  37.0943  37.4618  37.6952  39.0909  39.5725

     occupation numbers 
     1.0000   1.0000   1.0000   1.0000   1.0000   1.0000   1.0000   1.0000
     1.0000   1.0000   1.0000   1.0000   1.0000   1.0000   1.0000   0.0000
     0.0000   0.0000   0.0000   0.0000   0.0000   0.0000   0.0000   0.0000
     0.0000   0.0000   0.0000   0.0000   0.0000   0.0000   0.0000   0.0000
     0.0000   0.0000   0.0000   0.0000   0.0000   0.0000   0.0000   0.0000
     0.0000   0.0000   0.0000   0.0000   0.0000   0.0000   0.0000   0.0000
     0.0000   0.0000   0.0000   0.0000   0.0000   0.0000   0.0000   0.0000
     0.0000   0.0000   0.0000   0.0000   0.0000   0.0000   0.0000   0.0000

          k = 0.3333 0.3427 0.0000 (  1630 PWs)   bands (ev):

   -31.6464 -31.6084 -11.9178 -11.8035 -11.6678 -11.6162 -11.5520 -11.5049
     0.8984   5.0518   6.5008   8.2844   8.5250   9.0233  11.2634  11.3042
    11.8433  12.3374  12.6355  13.3455  14.3860  15.0885  15.1141  15.7487
    16.7831  17.1900  17.5594  18.2288  18.6478  19.2612  19.6079  20.5232
    22.1222  22.6758  22.7701  24.0764  24.5423  25.2841  25.7278  26.3280
    27.2167  28.4939  28.5604  29.0733  29.4324  30.0810  30.3226  30.9566
    31.0989  32.6481  32.7505  33.0134  33.6618  35.1975  35.3918  35.9212
    36.3595  36.9222  37.4579  37.8873  38.3923  38.8125  38.9676  39.6189

     occupation numbers 
     1.0000   1.0000   1.0000   1.0000   1.0000   1.0000   1.0000   1.0000
     1.0000   1.0000   1.0000   1.0000   1.0000   1.0000   1.0000   0.0000
     0.0000   0.0000   0.0000   0.0000   0.0000   0.0000   0.0000   0.0000
     0.0000   0.0000   0.0000   0.0000   0.0000   0.0000   0.0000   0.0000
     0.0000   0.0000   0.0000   0.0000   0.0000   0.0000   0.0000   0.0000
     0.0000   0.0000   0.0000   0.0000   0.0000   0.0000   0.0000   0.0000
     0.0000   0.0000   0.0000   0.0000   0.0000   0.0000   0.0000   0.0000
     0.0000   0.0000   0.0000   0.0000   0.0000   0.0000   0.0000   0.0000

          k = 0.3333 0.3427 0.4944 (  1632 PWs)   bands (ev):

   -31.6297 -31.6107 -11.8480 -11.8043 -11.7445 -11.6635 -11.6266 -11.5707
     1.7594   4.0203   7.0488   7.7086   8.1356   8.9431   9.8757  10.5948
    13.1360  13.3383  14.0079  14.1973  14.6116  15.0502  15.3554  15.7658
    16.2352  16.8907  17.5951  18.2892  18.6299  19.5064  19.6977  20.7400
    22.7092  23.2333  23.4915  24.0415  24.7187  25.0985  25.7012  26.1541
    26.8019  27.1888  27.6010  28.9718  29.0473  29.8886  30.3141  31.1177
    31.8415  32.3884  33.0660  33.1184  33.8782  34.9377  35.2145  35.4030
    35.5793  36.0830  36.4238  37.0943  37.4618  37.6953  39.0911  39.5729

     occupation numbers 
     1.0000   1.0000   1.0000   1.0000   1.0000   1.0000   1.0000   1.0000
     1.0000   1.0000   1.0000   1.0000   1.0000   1.0000   1.0000   0.0000
     0.0000   0.0000   0.0000   0.0000   0.0000   0.0000   0.0000   0.0000
     0.0000   0.0000   0.0000   0.0000   0.0000   0.0000   0.0000   0.0000
     0.0000   0.0000   0.0000   0.0000   0.0000   0.0000   0.0000   0.0000
     0.0000   0.0000   0.0000   0.0000   0.0000   0.0000   0.0000   0.0000
     0.0000   0.0000   0.0000   0.0000   0.0000   0.0000   0.0000   0.0000
     0.0000   0.0000   0.0000   0.0000   0.0000   0.0000   0.0000   0.0000

          k = 0.3333 0.8208 0.0000 (  1623 PWs)   bands (ev):

   -31.6335 -31.6213 -11.9115 -11.7494 -11.7165 -11.5780 -11.5701 -11.5437
     1.0309   4.8110   6.6447   8.4018   8.6798   9.0263  10.8578  11.4556
    11.4608  12.3329  12.7044  12.9173  14.4526  14.4942  14.9131  15.3645
    16.7555  18.0996  18.6895  18.9345  19.6492  20.2750  20.4740  20.5332
    21.0128  21.1937  22.7699  23.4305  23.6563  24.2409  26.0901  26.1628
    26.1965  27.7469  28.9964  29.1281  30.0530  30.5148  31.8596  31.9358
    32.6107  33.1495  33.2023  33.2845  33.8164  34.2481  34.6043  36.1085
    36.3004  36.4645  36.6966  36.9764  37.2652  37.5712  38.4838  38.9901

     occupation numbers 
     1.0000   1.0000   1.0000   1.0000   1.0000   1.0000   1.0000   1.0000
     1.0000   1.0000   1.0000   1.0000   1.0000   1.0000   1.0000   0.0000
     0.0000   0.0000   0.0000   0.0000   0.0000   0.0000   0.0000   0.0000
     0.0000   0.0000   0.0000   0.0000   0.0000   0.0000   0.0000   0.0000
     0.0000   0.0000   0.0000   0.0000   0.0000   0.0000   0.0000   0.0000
     0.0000   0.0000   0.0000   0.0000   0.0000   0.0000   0.0000   0.0000
     0.0000   0.0000   0.0000   0.0000   0.0000   0.0000   0.0000   0.0000
     0.0000   0.0000   0.0000   0.0000   0.0000   0.0000   0.0000   0.0000

          k = 0.3333 0.8208 0.4944 (  1627 PWs)   bands (ev):

   -31.6233 -31.6171 -11.8629 -11.8455 -11.7725 -11.6463 -11.5691 -11.5632
     1.8898   4.0916   6.7692   7.1985   8.4775   9.0198  10.2296  10.8269
    11.7800  13.2119  14.1325  14.1451  14.6785  15.1877  15.7388  15.9495
    16.6967  16.7683  18.4038  18.5683  18.6328  19.5283  19.5523  20.7203
    21.0018  22.3345  23.0262  23.8112  25.7237  26.1174  26.4172  26.5195
    27.5090  28.1785  28.2126  29.0792  29.2688  29.5763  29.7851  30.3758
    30.8032  32.1307  32.8141  32.9791  33.1900  33.9168  34.3932  35.3230
    35.4994  35.9852  36.5055  37.1023  37.2986  38.2138  39.2777  39.6083

     occupation numbers 
     1.0000   1.0000   1.0000   1.0000   1.0000   1.0000   1.0000   1.0000
     1.0000   1.0000   1.0000   1.0000   1.0000   1.0000   1.0000   0.0000
     0.0000   0.0000   0.0000   0.0000   0.0000   0.0000   0.0000   0.0000
     0.0000   0.0000   0.0000   0.0000   0.0000   0.0000   0.0000   0.0000
     0.0000   0.0000   0.0000   0.0000   0.0000   0.0000   0.0000   0.0000
     0.0000   0.0000   0.0000   0.0000   0.0000   0.0000   0.0000   0.0000
     0.0000   0.0000   0.0000   0.0000   0.0000   0.0000   0.0000   0.0000
     0.0000   0.0000   0.0000   0.0000   0.0000   0.0000   0.0000   0.0000

          k = 0.3333-0.1354 0.0000 (  1628 PWs)   bands (ev):

   -31.6441 -31.6144 -11.8620 -11.7504 -11.6390 -11.6098 -11.5916 -11.5220
     0.5907   4.1136   8.4203   8.4971   8.8787   9.4157  10.3300  11.6921
    12.4771  12.5661  12.6719  13.0379  13.7552  14.1454  14.6438  15.2889
    15.4425  15.5295  16.4358  17.6057  19.9944  20.4567  21.6408  21.8289
    21.9306  22.3476  23.1761  23.7929  24.2388  25.8744  26.1216  27.3102
    27.7163  27.7700  28.1859  28.8603  29.1120  29.9448  30.9593  32.0517
    33.1452  33.6193  33.8142  34.1484  34.8094  34.9769  35.1004  35.2564
    35.7097  35.9797  36.6688  37.2662  37.7905  38.1581  38.7204  38.8863

     occupation numbers 
     1.0000   1.0000   1.0000   1.0000   1.0000   1.0000   1.0000   1.0000
     1.0000   1.0000   1.0000   1.0000   1.0000   1.0000   1.0000   0.0000
     0.0000   0.0000   0.0000   0.0000   0.0000   0.0000   0.0000   0.0000
     0.0000   0.0000   0.0000   0.0000   0.0000   0.0000   0.0000   0.0000
     0.0000   0.0000   0.0000   0.0000   0.0000   0.0000   0.0000   0.0000
     0.0000   0.0000   0.0000   0.0000   0.0000   0.0000   0.0000   0.0000
     0.0000   0.0000   0.0000   0.0000   0.0000   0.0000   0.0000   0.0000
     0.0000   0.0000   0.0000   0.0000   0.0000   0.0000   0.0000   0.0000

          k = 0.3333-0.1354 0.4944 (  1617 PWs)   bands (ev):

   -31.6294 -31.6145 -11.9043 -11.8244 -11.6945 -11.6148 -11.6084 -11.5357
     1.6513   4.2531   6.0198   8.2165   8.6021   9.5011   9.8060  10.8443
    11.8886  12.7691  13.0577  13.6420  13.7294  14.9154  15.3164  16.3570
    17.1433  17.4099  18.5243  18.7649  19.1955  19.4147  19.9842  21.6897
    22.3145  22.6122  22.7473  23.9501  24.8884  25.3167  25.4576  26.0541
    26.9042  27.6174  28.6855  29.3261  29.5438  30.6700  31.2062  31.4495
    31.4562  32.0608  32.4370  33.3071  33.5673  34.8183  34.9615  35.2706
    36.3399  36.4603  36.7011  36.9399  37.6085  37.6899  38.7814  38.9487

     occupation numbers 
     1.0000   1.0000   1.0000   1.0000   1.0000   1.0000   1.0000   1.0000
     1.0000   1.0000   1.0000   1.0000   1.0000   1.0000   1.0000   0.0000
     0.0000   0.0000   0.0000   0.0000   0.0000   0.0000   0.0000   0.0000
     0.0000   0.0000   0.0000   0.0000   0.0000   0.0000   0.0000   0.0000
     0.0000   0.0000   0.0000   0.0000   0.0000   0.0000   0.0000   0.0000
     0.0000   0.0000   0.0000   0.0000   0.0000   0.0000   0.0000   0.0000
     0.0000   0.0000   0.0000   0.0000   0.0000   0.0000   0.0000   0.0000
     0.0000   0.0000   0.0000   0.0000   0.0000   0.0000   0.0000   0.0000

     highest occupied, lowest unoccupied level (ev):    11.2634   10.3585

!    total energy              =    -198.06704880 Ry
     estimated scf accuracy    <       0.00000071 Ry

     The total energy is the sum of the following terms:
     one-electron contribution =     -29.83545771 Ry
     hartree contribution      =      26.29345722 Ry
     xc contribution           =     -56.39777058 Ry
     ewald contribution        =    -138.12727773 Ry

     convergence has been achieved in   6 iterations

     Writing all to output data dir calculations_bands/myprefix.save/
 
     init_run     :      2.65s CPU      1.30s WALL (       1 calls)
     electrons    :     64.13s CPU     28.53s WALL (       1 calls)

     Called by init_run:
     wfcinit      :      0.56s CPU      0.25s WALL (       1 calls)
     wfcinit:atom :      0.00s CPU      0.00s WALL (       5 calls)
     wfcinit:wfcr :      0.54s CPU      0.24s WALL (       5 calls)
     potinit      :      0.73s CPU      0.31s WALL (       1 calls)
     hinit0       :      1.00s CPU      0.53s WALL (       1 calls)

     Called by electrons:
     c_bands      :     52.56s CPU     23.28s WALL (       7 calls)
     sum_band     :      8.86s CPU      3.92s WALL (       7 calls)
     v_of_rho     :      0.40s CPU      0.20s WALL (       7 calls)
     v_h          :      0.03s CPU      0.02s WALL (       7 calls)
     v_xc         :      0.37s CPU      0.19s WALL (       7 calls)
     newd         :      2.09s CPU      1.02s WALL (       7 calls)
     mix_rho      :      0.11s CPU      0.05s WALL (       7 calls)

     Called by c_bands:
     init_us_2    :      0.09s CPU      0.05s WALL (      75 calls)
     init_us_2:cp :      0.09s CPU      0.05s WALL (      75 calls)
     cegterg      :     45.20s CPU     19.19s WALL (      35 calls)

     Called by sum_band:
     sum_band:wei :      0.00s CPU      0.00s WALL (       7 calls)
     sum_band:loo :      5.39s CPU      2.30s WALL (       7 calls)
     sum_band:buf :      0.02s CPU      0.01s WALL (      35 calls)
     sum_band:ini :      0.03s CPU      0.02s WALL (      35 calls)
     sum_band:cal :      0.10s CPU      0.04s WALL (      35 calls)
     sum_band:bec :      0.03s CPU      0.01s WALL (      35 calls)
     addusdens    :      2.12s CPU      0.94s WALL (       7 calls)
     addusd:skk   :      0.06s CPU      0.03s WALL (      14 calls)
     addusd:dgemm :      0.06s CPU      0.07s WALL (      14 calls)
     addusd:qvan2 :      0.72s CPU      0.31s WALL (      14 calls)

     Called by *egterg:
     cdiaghg      :      7.04s CPU      2.79s WALL (     148 calls)
     cegterg:over :      3.82s CPU      1.37s WALL (     118 calls)
     cegterg:upda :      1.31s CPU      0.56s WALL (     118 calls)
     cegterg:last :      1.01s CPU      0.33s WALL (      72 calls)
     cdiaghg:chol :      0.49s CPU      0.20s WALL (     148 calls)
     cdiaghg:inve :      0.09s CPU      0.04s WALL (     148 calls)
     cdiaghg:para :      2.66s CPU      1.07s WALL (     296 calls)
     h_psi        :     30.13s CPU     13.27s WALL (     158 calls)
     s_psi        :      0.07s CPU      0.03s WALL (     158 calls)
     g_psi        :      0.01s CPU      0.00s WALL (     118 calls)

     Called by h_psi:
     h_psi:calbec :      0.93s CPU      0.34s WALL (     158 calls)
     vloc_psi     :     29.05s CPU     12.87s WALL (     158 calls)
     add_vuspsi   :      0.12s CPU      0.05s WALL (     158 calls)

     General routines
     calbec       :      1.02s CPU      0.38s WALL (     193 calls)
     fft          :      0.84s CPU      0.41s WALL (      90 calls)
     ffts         :      0.67s CPU      0.29s WALL (      14 calls)
     fftw         :     31.90s CPU     13.97s WALL (   13714 calls)
     interpolate  :      0.60s CPU      0.27s WALL (       7 calls)
 
     Parallel routines
 
     PWSCF        :   1m 8.76s CPU     31.43s WALL

 
   This run was terminated on:   4: 4:24   5Jun2023            

=------------------------------------------------------------------------------=
   JOB DONE.
=------------------------------------------------------------------------------=
