
     Program PWSCF v.7.0 starts on  5Jun2023 at 23:59:17 

     This program is part of the open-source Quantum ESPRESSO suite
     for quantum simulation of materials; please cite
         "P. Giannozzi et al., J. Phys.:Condens. Matter 21 395502 (2009);
         "P. Giannozzi et al., J. Phys.:Condens. Matter 29 465901 (2017);
         "P. Giannozzi et al., J. Chem. Phys. 152 154105 (2020);
          URL http://www.quantum-espresso.org", 
     in publications or presentations arising from this work. More details at
     http://www.quantum-espresso.org/quote

     Parallel version (MPI & OpenMP), running on      32 processor cores
     Number of MPI processes:                 8
     Threads/MPI process:                     4

     MPI processes distributed on     1 nodes
     K-points division:     npool     =       2
     R & G space division:  proc/nbgrp/npool/nimage =       4
     27221 MiB available memory on the printing compute node when the environment starts
 
     Reading input from espresso_12441.pwi
Warning: card &CELL ignored
Warning: card / ignored

     Current dimensions of program PWSCF are:
     Max number of different atomic species (ntypx) = 10
     Max number of k-points (npk) =  40000
     Max angular momentum in pseudopotentials (lmaxx) =  4
     Message from routine setup:
     using ibrav=0 with symmetry is DISCOURAGED, use correct ibrav instead

     Subspace diagonalization in iterative solution of the eigenvalue problem:
     one sub-group per band group will be used
     scalapack distributed-memory algorithm (size of sub-group:  2*  2 procs)

 
     Parallelization info
     --------------------
     sticks:   dense  smooth     PW     G-vecs:    dense   smooth      PW
     Min         558     279     85                13183     4673     779
     Max         559     280     86                13185     4674     780
     Sum        2233    1119    343                52735    18695    3117
 
     Using Slab Decomposition
 


     bravais-lattice index     =            0
     lattice parameter (alat)  =      14.5862  a.u.
     unit-cell volume          =     839.2807 (a.u.)^3
     number of atoms/cell      =            4
     number of atomic types    =            3
     number of electrons       =        54.00
     number of Kohn-Sham states=           64
     kinetic-energy cutoff     =      30.0000  Ry
     charge density cutoff     =     240.0000  Ry
     scf convergence threshold =      1.0E-06
     mixing beta               =       0.7000
     number of iterations used =            8  plain     mixing
     Exchange-correlation= SLA  PW   PBE  PBE
                           (   1   4   3   4   0   0   0)

     celldm(1)=  14.586205  celldm(2)=   0.000000  celldm(3)=   0.000000
     celldm(4)=   0.000000  celldm(5)=   0.000000  celldm(6)=   0.000000

     crystal axes: (cart. coord. in units of alat)
               a(1) = (   1.000000   0.000000   0.000000 )  
               a(2) = (   0.834456   0.551074   0.000000 )  
               a(3) = (   0.834456   0.250672   0.490761 )  

     reciprocal axes: (cart. coord. in units 2 pi/alat)
               b(1) = (  1.000000 -1.514235 -0.926885 )  
               b(2) = (  0.000000  1.814637 -0.926885 )  
               b(3) = (  0.000000  0.000000  2.037652 )  


     PseudoPot. # 1 for Yb read from file:
     /home/pragov/projects/rrg-bengioy-ad/pragov/crystal_structure_design/SSSP/Yb.GGA-PBE-paw-v1.0.UPF
     MD5 check sum: 43b6465ad8021f06e3edb42ae292e187
     Pseudo is Projector augmented-wave + core cor, Zval = 24.0
     Generated using ATOMPAW code
     Shape of augmentation charge: BESSEL
     Using radial grid of 1117 points,  8 beta functions with: 
                l(1) =   0
                l(2) =   0
                l(3) =   1
                l(4) =   1
                l(5) =   2
                l(6) =   2
                l(7) =   3
                l(8) =   3
     Q(r) pseudized with 0 coefficients 


     PseudoPot. # 2 for Gd read from file:
     /home/pragov/projects/rrg-bengioy-ad/pragov/crystal_structure_design/SSSP/Gd.GGA-PBE-paw-v1.0.UPF
     MD5 check sum: 3e8e0d208da550914ae52eaf991d13de
     Pseudo is Projector augmented-wave + core cor, Zval = 18.0
     Generated using ATOMPAW code
     Shape of augmentation charge: BESSEL
     Using radial grid of 1110 points,  8 beta functions with: 
                l(1) =   0
                l(2) =   0
                l(3) =   1
                l(4) =   1
                l(5) =   2
                l(6) =   2
                l(7) =   3
                l(8) =   3
     Q(r) pseudized with 0 coefficients 


     PseudoPot. # 3 for Te read from file:
     /home/pragov/projects/rrg-bengioy-ad/pragov/crystal_structure_design/SSSP/Te_pbe_v1.uspp.F.UPF
     MD5 check sum: c319670d6894cc26e93307826a071b75
     Pseudo is Ultrasoft + core correction, Zval =  6.0
     Generated by new atomic code, or converted to UPF format
     Using radial grid of  891 points,  5 beta functions with: 
                l(1) =   0
                l(2) =   0
                l(3) =   1
                l(4) =   1
                l(5) =   2
     Q(r) pseudized with  6 coefficients,  rinner =    1.800   1.800   1.800
                                                       1.800   1.800

     atomic species   valence    mass     pseudopotential
        Yb            24.00   173.05400     Yb( 1.00)
        Gd            18.00   157.25000     Gd( 1.00)
        Te             6.00   127.60000     Te( 1.00)

      2 Sym. Ops., with inversion, found


                                    s                        frac. trans.

      isym =  1     identity                                     

 cryst.   s( 1) = (     1          0          0      )
                  (     0          1          0      )
                  (     0          0          1      )

 cart.    s( 1) = (  1.0000000  0.0000000 -0.0000000 )
                  (  0.0000000  1.0000000 -0.0000000 )
                  (  0.0000000  0.0000000  1.0000000 )


      isym =  2     inversion                                    

 cryst.   s( 2) = (    -1          0          0      )
                  (     0         -1          0      )
                  (     0          0         -1      )

 cart.    s( 2) = ( -1.0000000 -0.0000000  0.0000000 )
                  (  0.0000000 -1.0000000  0.0000000 )
                  (  0.0000000  0.0000000 -1.0000000 )


   Cartesian axes

     site n.     atom                  positions (alat units)
         1           Yb  tau(   1) = (   1.3344561   0.4008733   0.2453805  )
         2           Gd  tau(   2) = (   0.0000000   0.0000000   0.0000000  )
         3           Te  tau(   3) = (   0.6665261   0.2002258   0.1225612  )
         4           Te  tau(   4) = (   2.0023860   0.6015209   0.3681999  )

   Crystallographic axes

     site n.     atom                  positions (cryst. coord.)
         1           Yb  tau(   1) = (  0.5000000  0.5000000  0.5000000  )
         2           Gd  tau(   2) = (  0.0000000  0.0000000  0.0000000  )
         3           Te  tau(   3) = (  0.2497370  0.2497370  0.2497370  )
         4           Te  tau(   4) = (  0.7502630  0.7502630  0.7502630  )

     number of k points=    14
                       cart. coord. in units 2pi/alat
        k(    1) = (   0.0000000   0.0000000   0.0000000), wk =   0.0740741
        k(    2) = (   0.0000000   0.0000000   0.6792172), wk =   0.1481481
        k(    3) = (   0.0000000   0.6048790  -0.3089618), wk =   0.1481481
        k(    4) = (   0.0000000   0.6048790   0.3702554), wk =   0.1481481
        k(    5) = (   0.0000000   0.6048790  -0.9881790), wk =   0.1481481
        k(    6) = (   0.3333333  -0.5047450  -0.3089618), wk =   0.1481481
        k(    7) = (   0.3333333  -0.5047450   0.3702554), wk =   0.1481481
        k(    8) = (   0.3333333  -0.5047450  -0.9881790), wk =   0.1481481
        k(    9) = (   0.3333333   0.1001340  -0.6179236), wk =   0.1481481
        k(   10) = (   0.3333333   0.1001340   0.0612936), wk =   0.1481481
        k(   11) = (   0.3333333   0.1001340  -1.2971408), wk =   0.1481481
        k(   12) = (   0.3333333  -1.1096240  -0.0000000), wk =   0.1481481
        k(   13) = (   0.3333333  -1.1096240   0.6792172), wk =   0.1481481
        k(   14) = (   0.3333333  -1.1096240  -0.6792172), wk =   0.1481481

                       cryst. coord.
        k(    1) = (   0.0000000   0.0000000   0.0000000), wk =   0.0740741
        k(    2) = (   0.0000000   0.0000000   0.3333333), wk =   0.1481481
        k(    3) = (   0.0000000   0.3333333   0.0000000), wk =   0.1481481
        k(    4) = (   0.0000000   0.3333333   0.3333333), wk =   0.1481481
        k(    5) = (   0.0000000   0.3333333  -0.3333333), wk =   0.1481481
        k(    6) = (   0.3333333  -0.0000000  -0.0000000), wk =   0.1481481
        k(    7) = (   0.3333333  -0.0000000   0.3333333), wk =   0.1481481
        k(    8) = (   0.3333333  -0.0000000  -0.3333333), wk =   0.1481481
        k(    9) = (   0.3333333   0.3333333   0.0000000), wk =   0.1481481
        k(   10) = (   0.3333333   0.3333333   0.3333333), wk =   0.1481481
        k(   11) = (   0.3333333   0.3333333  -0.3333333), wk =   0.1481481
        k(   12) = (   0.3333333  -0.3333333  -0.0000000), wk =   0.1481481
        k(   13) = (   0.3333333  -0.3333333   0.3333333), wk =   0.1481481
        k(   14) = (   0.3333333  -0.3333333  -0.3333333), wk =   0.1481481

     Dense  grid:    52735 G-vectors     FFT dimensions: (  72,  72,  72)

     Smooth grid:    18695 G-vectors     FFT dimensions: (  54,  54,  54)

     Dynamical RAM for                 wfc:       0.57 MB

     Dynamical RAM for     wfc (w. buffer):       4.55 MB

     Dynamical RAM for           str. fact:       0.60 MB

     Dynamical RAM for           local pot:       0.00 MB

     Dynamical RAM for          nlocal pot:       0.80 MB

     Dynamical RAM for                qrad:       8.96 MB

     Dynamical RAM for          rho,v,vnew:       2.74 MB

     Dynamical RAM for               rhoin:       0.91 MB

     Dynamical RAM for            rho*nmix:       3.22 MB

     Dynamical RAM for           G-vectors:       0.79 MB

     Dynamical RAM for          h,s,v(r/c):       0.19 MB

     Dynamical RAM for          <psi|beta>:       0.09 MB

     Dynamical RAM for                 psi:       1.14 MB

     Dynamical RAM for                hpsi:       1.14 MB

     Dynamical RAM for                spsi:       1.14 MB

     Dynamical RAM for      wfcinit/wfcrot:       1.40 MB

     Dynamical RAM for           addusdens:      56.13 MB

     Estimated static dynamical RAM per process >      23.71 MB

     Estimated max dynamical RAM per process >      83.06 MB

     Estimated total dynamical RAM >     651.60 MB

     Initial potential from superposition of free atoms

     starting charge      53.9904, renormalised to      54.0000
     Starting wfcs are   72 randomized atomic wfcs
     Checking if some PAW data can be deallocated... 
       PAW data deallocated on    6 nodes for type:  1
       PAW data deallocated on    6 nodes for type:  2

     total cpu time spent up to now is        3.8 secs

     Self-consistent Calculation

     iteration #  1     ecut=    30.00 Ry     beta= 0.70
     Davidson diagonalization with overlap

---- Real-time Memory Report at c_bands before calling an iterative solver
           227 MiB given to the printing process from OS
             0 MiB allocation reported by mallinfo(arena+hblkhd)
         24592 MiB available memory on the node where the printing process lives
------------------
     ethr =  1.00E-02,  avg # of iterations = 10.8

     total cpu time spent up to now is        6.3 secs

     total energy              =   -1721.50215776 Ry
     estimated scf accuracy    <      22.76648085 Ry

     iteration #  2     ecut=    30.00 Ry     beta= 0.70
     Davidson diagonalization with overlap

---- Real-time Memory Report at c_bands before calling an iterative solver
           256 MiB given to the printing process from OS
             0 MiB allocation reported by mallinfo(arena+hblkhd)
         21590 MiB available memory on the node where the printing process lives
------------------
     ethr =  1.00E-02,  avg # of iterations =  3.7

     total cpu time spent up to now is        8.3 secs

     total energy              =   -1746.10533490 Ry
     estimated scf accuracy    <     293.45900814 Ry

     iteration #  3     ecut=    30.00 Ry     beta= 0.70
     Davidson diagonalization with overlap

---- Real-time Memory Report at c_bands before calling an iterative solver
           259 MiB given to the printing process from OS
             0 MiB allocation reported by mallinfo(arena+hblkhd)
         19684 MiB available memory on the node where the printing process lives
------------------
     ethr =  1.00E-02,  avg # of iterations =  3.1

     total cpu time spent up to now is       10.0 secs

     total energy              =   -1743.40733689 Ry
     estimated scf accuracy    <     194.48707280 Ry

     iteration #  4     ecut=    30.00 Ry     beta= 0.70
     Davidson diagonalization with overlap

---- Real-time Memory Report at c_bands before calling an iterative solver
           260 MiB given to the printing process from OS
             0 MiB allocation reported by mallinfo(arena+hblkhd)
         18271 MiB available memory on the node where the printing process lives
------------------
     ethr =  1.00E-02,  avg # of iterations =  2.0

     total cpu time spent up to now is       11.4 secs

     total energy              =   -1754.31350071 Ry
     estimated scf accuracy    <      61.47565851 Ry

     iteration #  5     ecut=    30.00 Ry     beta= 0.70
     Davidson diagonalization with overlap

---- Real-time Memory Report at c_bands before calling an iterative solver
           262 MiB given to the printing process from OS
             0 MiB allocation reported by mallinfo(arena+hblkhd)
         17091 MiB available memory on the node where the printing process lives
------------------
     ethr =  1.00E-02,  avg # of iterations =  3.4

     total cpu time spent up to now is       12.9 secs

     total energy              =   -1750.99827015 Ry
     estimated scf accuracy    <      50.69213071 Ry

     iteration #  6     ecut=    30.00 Ry     beta= 0.70
     Davidson diagonalization with overlap

---- Real-time Memory Report at c_bands before calling an iterative solver
           262 MiB given to the printing process from OS
             0 MiB allocation reported by mallinfo(arena+hblkhd)
         15707 MiB available memory on the node where the printing process lives
------------------
     ethr =  1.00E-02,  avg # of iterations =  1.0

     total cpu time spent up to now is       14.2 secs

     total energy              =   -1748.86945812 Ry
     estimated scf accuracy    <      41.33646734 Ry

     iteration #  7     ecut=    30.00 Ry     beta= 0.70
     Davidson diagonalization with overlap

---- Real-time Memory Report at c_bands before calling an iterative solver
           267 MiB given to the printing process from OS
             0 MiB allocation reported by mallinfo(arena+hblkhd)
         14399 MiB available memory on the node where the printing process lives
------------------
     ethr =  1.00E-02,  avg # of iterations =  1.0

     total cpu time spent up to now is       15.5 secs

     total energy              =   -1748.14025399 Ry
     estimated scf accuracy    <      32.14401815 Ry

     iteration #  8     ecut=    30.00 Ry     beta= 0.70
     Davidson diagonalization with overlap

---- Real-time Memory Report at c_bands before calling an iterative solver
           267 MiB given to the printing process from OS
             0 MiB allocation reported by mallinfo(arena+hblkhd)
         13169 MiB available memory on the node where the printing process lives
------------------
     ethr =  1.00E-02,  avg # of iterations =  1.0

     total cpu time spent up to now is       16.8 secs

     total energy              =   -1748.63853940 Ry
     estimated scf accuracy    <       9.05465354 Ry

     iteration #  9     ecut=    30.00 Ry     beta= 0.70
     Davidson diagonalization with overlap

---- Real-time Memory Report at c_bands before calling an iterative solver
           267 MiB given to the printing process from OS
             0 MiB allocation reported by mallinfo(arena+hblkhd)
         11954 MiB available memory on the node where the printing process lives
------------------
     ethr =  1.00E-02,  avg # of iterations =  1.0

     total cpu time spent up to now is       18.2 secs

     total energy              =   -1747.77324742 Ry
     estimated scf accuracy    <      29.90633511 Ry

     iteration # 10     ecut=    30.00 Ry     beta= 0.70
     Davidson diagonalization with overlap

---- Real-time Memory Report at c_bands before calling an iterative solver
           267 MiB given to the printing process from OS
             0 MiB allocation reported by mallinfo(arena+hblkhd)
         10564 MiB available memory on the node where the printing process lives
------------------
     ethr =  1.00E-02,  avg # of iterations =  1.0

     total cpu time spent up to now is       19.5 secs

     total energy              =   -1746.68954116 Ry
     estimated scf accuracy    <       2.14902730 Ry

     iteration # 11     ecut=    30.00 Ry     beta= 0.70
     Davidson diagonalization with overlap

---- Real-time Memory Report at c_bands before calling an iterative solver
           267 MiB given to the printing process from OS
             0 MiB allocation reported by mallinfo(arena+hblkhd)
          9378 MiB available memory on the node where the printing process lives
------------------
     ethr =  3.98E-03,  avg # of iterations =  2.1

     total cpu time spent up to now is       20.9 secs

     total energy              =   -1753.28070163 Ry
     estimated scf accuracy    <     222.61932150 Ry

     iteration # 12     ecut=    30.00 Ry     beta= 0.70
     Davidson diagonalization with overlap

---- Real-time Memory Report at c_bands before calling an iterative solver
           267 MiB given to the printing process from OS
             0 MiB allocation reported by mallinfo(arena+hblkhd)
          7990 MiB available memory on the node where the printing process lives
------------------
     ethr =  3.98E-03,  avg # of iterations =  2.0

     total cpu time spent up to now is       22.3 secs

     total energy              =   -1754.46213666 Ry
     estimated scf accuracy    <      64.82678439 Ry

     iteration # 13     ecut=    30.00 Ry     beta= 0.70
     Davidson diagonalization with overlap

---- Real-time Memory Report at c_bands before calling an iterative solver
           267 MiB given to the printing process from OS
             0 MiB allocation reported by mallinfo(arena+hblkhd)
          6791 MiB available memory on the node where the printing process lives
------------------
     ethr =  3.98E-03,  avg # of iterations =  1.0

     total cpu time spent up to now is       23.6 secs

     total energy              =   -1752.08988779 Ry
     estimated scf accuracy    <     148.39771211 Ry

     iteration # 14     ecut=    30.00 Ry     beta= 0.70
     Davidson diagonalization with overlap

---- Real-time Memory Report at c_bands before calling an iterative solver
           267 MiB given to the printing process from OS
             0 MiB allocation reported by mallinfo(arena+hblkhd)
          5770 MiB available memory on the node where the printing process lives
------------------
     ethr =  3.98E-03,  avg # of iterations =  1.0

     total cpu time spent up to now is       24.9 secs

     total energy              =   -1750.55781638 Ry
     estimated scf accuracy    <      80.56337087 Ry

     iteration # 15     ecut=    30.00 Ry     beta= 0.70
     Davidson diagonalization with overlap

---- Real-time Memory Report at c_bands before calling an iterative solver
           267 MiB given to the printing process from OS
             0 MiB allocation reported by mallinfo(arena+hblkhd)
          4868 MiB available memory on the node where the printing process lives
------------------
     ethr =  3.98E-03,  avg # of iterations =  1.0

     total cpu time spent up to now is       26.6 secs

     total energy              =   -1745.66469707 Ry
     estimated scf accuracy    <      89.18242008 Ry

     iteration # 16     ecut=    30.00 Ry     beta= 0.70
     Davidson diagonalization with overlap

---- Real-time Memory Report at c_bands before calling an iterative solver
           267 MiB given to the printing process from OS
             0 MiB allocation reported by mallinfo(arena+hblkhd)
          3825 MiB available memory on the node where the printing process lives
------------------
     ethr =  3.98E-03,  avg # of iterations =  1.3

     total cpu time spent up to now is       28.0 secs

     total energy              =   -1748.18649823 Ry
     estimated scf accuracy    <      26.88977515 Ry

     iteration # 17     ecut=    30.00 Ry     beta= 0.70
     Davidson diagonalization with overlap

---- Real-time Memory Report at c_bands before calling an iterative solver
           267 MiB given to the printing process from OS
             0 MiB allocation reported by mallinfo(arena+hblkhd)
          2755 MiB available memory on the node where the printing process lives
------------------
     ethr =  3.98E-03,  avg # of iterations =  1.0

     total cpu time spent up to now is       30.2 secs

     total energy              =   -1746.68760518 Ry
     estimated scf accuracy    <       9.25438334 Ry

     iteration # 18     ecut=    30.00 Ry     beta= 0.70
     Davidson diagonalization with overlap

---- Real-time Memory Report at c_bands before calling an iterative solver
           267 MiB given to the printing process from OS
             0 MiB allocation reported by mallinfo(arena+hblkhd)
           986 MiB available memory on the node where the printing process lives
------------------
     ethr =  3.98E-03,  avg # of iterations =  2.0

     total cpu time spent up to now is       32.4 secs

     total energy              =   -1746.84556111 Ry
     estimated scf accuracy    <      54.60068427 Ry

     iteration # 19     ecut=    30.00 Ry     beta= 0.70
     Davidson diagonalization with overlap

---- Real-time Memory Report at c_bands before calling an iterative solver
           267 MiB given to the printing process from OS
             0 MiB allocation reported by mallinfo(arena+hblkhd)
         17564 MiB available memory on the node where the printing process lives
------------------
     ethr =  3.98E-03,  avg # of iterations =  1.9

     total cpu time spent up to now is       33.7 secs

     total energy              =   -1747.95604453 Ry
     estimated scf accuracy    <       0.96884878 Ry

     iteration # 20     ecut=    30.00 Ry     beta= 0.70
     Davidson diagonalization with overlap

---- Real-time Memory Report at c_bands before calling an iterative solver
           267 MiB given to the printing process from OS
             0 MiB allocation reported by mallinfo(arena+hblkhd)
         29416 MiB available memory on the node where the printing process lives
------------------
     ethr =  1.79E-03,  avg # of iterations =  1.4

     total cpu time spent up to now is       34.8 secs

     total energy              =   -1746.95076506 Ry
     estimated scf accuracy    <       7.07640235 Ry

     iteration # 21     ecut=    30.00 Ry     beta= 0.70
     Davidson diagonalization with overlap

---- Real-time Memory Report at c_bands before calling an iterative solver
           267 MiB given to the printing process from OS
             0 MiB allocation reported by mallinfo(arena+hblkhd)
         37496 MiB available memory on the node where the printing process lives
------------------
     ethr =  1.79E-03,  avg # of iterations =  2.0

     total cpu time spent up to now is       36.1 secs

     total energy              =   -1748.06696951 Ry
     estimated scf accuracy    <      29.32236917 Ry

     iteration # 22     ecut=    30.00 Ry     beta= 0.70
     Davidson diagonalization with overlap

---- Real-time Memory Report at c_bands before calling an iterative solver
           267 MiB given to the printing process from OS
             0 MiB allocation reported by mallinfo(arena+hblkhd)
         37465 MiB available memory on the node where the printing process lives
------------------
     ethr =  1.79E-03,  avg # of iterations =  1.0

     total cpu time spent up to now is       37.2 secs

     total energy              =   -1747.61451323 Ry
     estimated scf accuracy    <       5.26422605 Ry

     iteration # 23     ecut=    30.00 Ry     beta= 0.70
     Davidson diagonalization with overlap

---- Real-time Memory Report at c_bands before calling an iterative solver
           267 MiB given to the printing process from OS
             0 MiB allocation reported by mallinfo(arena+hblkhd)
         37434 MiB available memory on the node where the printing process lives
------------------
     ethr =  1.79E-03,  avg # of iterations =  2.0

     total cpu time spent up to now is       38.5 secs

     total energy              =   -1747.90935656 Ry
     estimated scf accuracy    <       0.53694228 Ry

     iteration # 24     ecut=    30.00 Ry     beta= 0.70
     Davidson diagonalization with overlap

---- Real-time Memory Report at c_bands before calling an iterative solver
           267 MiB given to the printing process from OS
             0 MiB allocation reported by mallinfo(arena+hblkhd)
         37395 MiB available memory on the node where the printing process lives
------------------
     ethr =  9.94E-04,  avg # of iterations =  1.0

     total cpu time spent up to now is       39.6 secs

     total energy              =   -1747.98457323 Ry
     estimated scf accuracy    <       0.40892399 Ry

     iteration # 25     ecut=    30.00 Ry     beta= 0.70
     Davidson diagonalization with overlap

---- Real-time Memory Report at c_bands before calling an iterative solver
           267 MiB given to the printing process from OS
             0 MiB allocation reported by mallinfo(arena+hblkhd)
         37364 MiB available memory on the node where the printing process lives
------------------
     ethr =  7.57E-04,  avg # of iterations =  1.0

     total cpu time spent up to now is       40.8 secs

     total energy              =   -1747.99146806 Ry
     estimated scf accuracy    <       0.21809894 Ry

     iteration # 26     ecut=    30.00 Ry     beta= 0.70
     Davidson diagonalization with overlap

---- Real-time Memory Report at c_bands before calling an iterative solver
           267 MiB given to the printing process from OS
             0 MiB allocation reported by mallinfo(arena+hblkhd)
         37341 MiB available memory on the node where the printing process lives
------------------
     ethr =  4.04E-04,  avg # of iterations =  1.0

     total cpu time spent up to now is       42.0 secs

     total energy              =   -1747.97688861 Ry
     estimated scf accuracy    <       0.20661200 Ry

     iteration # 27     ecut=    30.00 Ry     beta= 0.70
     Davidson diagonalization with overlap

---- Real-time Memory Report at c_bands before calling an iterative solver
           267 MiB given to the printing process from OS
             0 MiB allocation reported by mallinfo(arena+hblkhd)
         37312 MiB available memory on the node where the printing process lives
------------------
     ethr =  3.83E-04,  avg # of iterations =  1.0

     total cpu time spent up to now is       43.2 secs

     total energy              =   -1748.00894689 Ry
     estimated scf accuracy    <       0.33807253 Ry

     iteration # 28     ecut=    30.00 Ry     beta= 0.70
     Davidson diagonalization with overlap

---- Real-time Memory Report at c_bands before calling an iterative solver
           267 MiB given to the printing process from OS
             0 MiB allocation reported by mallinfo(arena+hblkhd)
         37274 MiB available memory on the node where the printing process lives
------------------
     ethr =  3.83E-04,  avg # of iterations =  1.0

     total cpu time spent up to now is       45.4 secs

     total energy              =   -1747.98576742 Ry
     estimated scf accuracy    <       0.37609775 Ry

     iteration # 29     ecut=    30.00 Ry     beta= 0.70
     Davidson diagonalization with overlap

---- Real-time Memory Report at c_bands before calling an iterative solver
           267 MiB given to the printing process from OS
             0 MiB allocation reported by mallinfo(arena+hblkhd)
         37206 MiB available memory on the node where the printing process lives
------------------
     ethr =  3.83E-04,  avg # of iterations =  1.0

     total cpu time spent up to now is       46.7 secs

     total energy              =   -1747.83774408 Ry
     estimated scf accuracy    <       0.22799072 Ry

     iteration # 30     ecut=    30.00 Ry     beta= 0.70
     Davidson diagonalization with overlap

---- Real-time Memory Report at c_bands before calling an iterative solver
           267 MiB given to the printing process from OS
             0 MiB allocation reported by mallinfo(arena+hblkhd)
         37170 MiB available memory on the node where the printing process lives
------------------
     ethr =  3.83E-04,  avg # of iterations =  2.0

     total cpu time spent up to now is       48.0 secs

     total energy              =   -1745.54021738 Ry
     estimated scf accuracy    <     187.77560390 Ry

     iteration # 31     ecut=    30.00 Ry     beta= 0.70
     Davidson diagonalization with overlap

---- Real-time Memory Report at c_bands before calling an iterative solver
           267 MiB given to the printing process from OS
             0 MiB allocation reported by mallinfo(arena+hblkhd)
         37138 MiB available memory on the node where the printing process lives
------------------
     ethr =  3.83E-04,  avg # of iterations =  2.3

     total cpu time spent up to now is       49.4 secs

     total energy              =   -1747.97491754 Ry
     estimated scf accuracy    <       0.14945352 Ry

     iteration # 32     ecut=    30.00 Ry     beta= 0.70
     Davidson diagonalization with overlap

---- Real-time Memory Report at c_bands before calling an iterative solver
           267 MiB given to the printing process from OS
             0 MiB allocation reported by mallinfo(arena+hblkhd)
         37097 MiB available memory on the node where the printing process lives
------------------
     ethr =  2.77E-04,  avg # of iterations =  1.0

     total cpu time spent up to now is       50.5 secs

     total energy              =   -1747.95930275 Ry
     estimated scf accuracy    <       0.38565411 Ry

     iteration # 33     ecut=    30.00 Ry     beta= 0.70
     Davidson diagonalization with overlap

---- Real-time Memory Report at c_bands before calling an iterative solver
           267 MiB given to the printing process from OS
             0 MiB allocation reported by mallinfo(arena+hblkhd)
         37067 MiB available memory on the node where the printing process lives
------------------
     ethr =  2.77E-04,  avg # of iterations =  1.0

     total cpu time spent up to now is       51.7 secs

     total energy              =   -1747.97509409 Ry
     estimated scf accuracy    <       0.16295979 Ry

     iteration # 34     ecut=    30.00 Ry     beta= 0.70
     Davidson diagonalization with overlap

---- Real-time Memory Report at c_bands before calling an iterative solver
           267 MiB given to the printing process from OS
             0 MiB allocation reported by mallinfo(arena+hblkhd)
         37035 MiB available memory on the node where the printing process lives
------------------
     ethr =  2.77E-04,  avg # of iterations =  1.0

     total cpu time spent up to now is       53.0 secs

     total energy              =   -1747.97324630 Ry
     estimated scf accuracy    <       0.20563172 Ry

     iteration # 35     ecut=    30.00 Ry     beta= 0.70
     Davidson diagonalization with overlap

---- Real-time Memory Report at c_bands before calling an iterative solver
           268 MiB given to the printing process from OS
             0 MiB allocation reported by mallinfo(arena+hblkhd)
         37054 MiB available memory on the node where the printing process lives
------------------
     ethr =  2.77E-04,  avg # of iterations =  1.0

     total cpu time spent up to now is       55.4 secs

     total energy              =   -1747.98609474 Ry
     estimated scf accuracy    <       0.09543985 Ry

     iteration # 36     ecut=    30.00 Ry     beta= 0.70
     Davidson diagonalization with overlap

---- Real-time Memory Report at c_bands before calling an iterative solver
           268 MiB given to the printing process from OS
             0 MiB allocation reported by mallinfo(arena+hblkhd)
         36936 MiB available memory on the node where the printing process lives
------------------
     ethr =  1.77E-04,  avg # of iterations =  1.0

     total cpu time spent up to now is       57.3 secs

     total energy              =   -1747.98734852 Ry
     estimated scf accuracy    <       0.07914048 Ry

     iteration # 37     ecut=    30.00 Ry     beta= 0.70
     Davidson diagonalization with overlap

---- Real-time Memory Report at c_bands before calling an iterative solver
           268 MiB given to the printing process from OS
             0 MiB allocation reported by mallinfo(arena+hblkhd)
         36887 MiB available memory on the node where the printing process lives
------------------
     ethr =  1.47E-04,  avg # of iterations =  1.0

     total cpu time spent up to now is       58.5 secs

     total energy              =   -1747.98646734 Ry
     estimated scf accuracy    <       0.08218498 Ry

     iteration # 38     ecut=    30.00 Ry     beta= 0.70
     Davidson diagonalization with overlap

---- Real-time Memory Report at c_bands before calling an iterative solver
           268 MiB given to the printing process from OS
             0 MiB allocation reported by mallinfo(arena+hblkhd)
         36848 MiB available memory on the node where the printing process lives
------------------
     ethr =  1.47E-04,  avg # of iterations =  1.0

     total cpu time spent up to now is       59.7 secs

     total energy              =   -1747.97921285 Ry
     estimated scf accuracy    <       0.12470330 Ry

     iteration # 39     ecut=    30.00 Ry     beta= 0.70
     Davidson diagonalization with overlap

---- Real-time Memory Report at c_bands before calling an iterative solver
           268 MiB given to the printing process from OS
             0 MiB allocation reported by mallinfo(arena+hblkhd)
         36806 MiB available memory on the node where the printing process lives
------------------
     ethr =  1.47E-04,  avg # of iterations =  1.0

     total cpu time spent up to now is       60.9 secs

     total energy              =   -1747.89071548 Ry
     estimated scf accuracy    <       0.36145158 Ry

     iteration # 40     ecut=    30.00 Ry     beta= 0.70
     Davidson diagonalization with overlap

---- Real-time Memory Report at c_bands before calling an iterative solver
           268 MiB given to the printing process from OS
             0 MiB allocation reported by mallinfo(arena+hblkhd)
         36779 MiB available memory on the node where the printing process lives
------------------
     ethr =  1.47E-04,  avg # of iterations =  2.0

     total cpu time spent up to now is       62.2 secs

     total energy              =   -1745.86554548 Ry
     estimated scf accuracy    <     181.72904582 Ry

     iteration # 41     ecut=    30.00 Ry     beta= 0.70
     Davidson diagonalization with overlap

---- Real-time Memory Report at c_bands before calling an iterative solver
           268 MiB given to the printing process from OS
             0 MiB allocation reported by mallinfo(arena+hblkhd)
         36739 MiB available memory on the node where the printing process lives
------------------
     ethr =  1.47E-04,  avg # of iterations =  2.6

     total cpu time spent up to now is       63.6 secs

     total energy              =   -1747.98695901 Ry
     estimated scf accuracy    <       0.08476460 Ry

     iteration # 42     ecut=    30.00 Ry     beta= 0.70
     Davidson diagonalization with overlap

---- Real-time Memory Report at c_bands before calling an iterative solver
           268 MiB given to the printing process from OS
             0 MiB allocation reported by mallinfo(arena+hblkhd)
         36699 MiB available memory on the node where the printing process lives
------------------
     ethr =  1.47E-04,  avg # of iterations =  1.0

     total cpu time spent up to now is       64.8 secs

     total energy              =   -1747.98505805 Ry
     estimated scf accuracy    <       0.12251171 Ry

     iteration # 43     ecut=    30.00 Ry     beta= 0.70
     Davidson diagonalization with overlap

---- Real-time Memory Report at c_bands before calling an iterative solver
           268 MiB given to the printing process from OS
             0 MiB allocation reported by mallinfo(arena+hblkhd)
         36670 MiB available memory on the node where the printing process lives
------------------
     ethr =  1.47E-04,  avg # of iterations =  1.0

     total cpu time spent up to now is       66.0 secs

     total energy              =   -1747.98320941 Ry
     estimated scf accuracy    <       0.09135618 Ry

     iteration # 44     ecut=    30.00 Ry     beta= 0.70
     Davidson diagonalization with overlap

---- Real-time Memory Report at c_bands before calling an iterative solver
           268 MiB given to the printing process from OS
             0 MiB allocation reported by mallinfo(arena+hblkhd)
         36640 MiB available memory on the node where the printing process lives
------------------
     ethr =  1.47E-04,  avg # of iterations =  1.0

     total cpu time spent up to now is       68.3 secs

     total energy              =   -1747.96693960 Ry
     estimated scf accuracy    <       0.25483310 Ry

     iteration # 45     ecut=    30.00 Ry     beta= 0.70
     Davidson diagonalization with overlap

---- Real-time Memory Report at c_bands before calling an iterative solver
           268 MiB given to the printing process from OS
             0 MiB allocation reported by mallinfo(arena+hblkhd)
         36569 MiB available memory on the node where the printing process lives
------------------
     ethr =  1.47E-04,  avg # of iterations =  1.0

     total cpu time spent up to now is       69.5 secs

     total energy              =   -1747.98964632 Ry
     estimated scf accuracy    <       0.07263218 Ry

     iteration # 46     ecut=    30.00 Ry     beta= 0.70
     Davidson diagonalization with overlap

---- Real-time Memory Report at c_bands before calling an iterative solver
           268 MiB given to the printing process from OS
             0 MiB allocation reported by mallinfo(arena+hblkhd)
         36533 MiB available memory on the node where the printing process lives
------------------
     ethr =  1.35E-04,  avg # of iterations =  1.0

     total cpu time spent up to now is       70.7 secs

     total energy              =   -1747.99157353 Ry
     estimated scf accuracy    <       0.06998127 Ry

     iteration # 47     ecut=    30.00 Ry     beta= 0.70
     Davidson diagonalization with overlap

---- Real-time Memory Report at c_bands before calling an iterative solver
           268 MiB given to the printing process from OS
             0 MiB allocation reported by mallinfo(arena+hblkhd)
         36616 MiB available memory on the node where the printing process lives
------------------
     ethr =  1.30E-04,  avg # of iterations =  1.0

     total cpu time spent up to now is       71.8 secs

     total energy              =   -1747.98821401 Ry
     estimated scf accuracy    <       0.06034325 Ry

     iteration # 48     ecut=    30.00 Ry     beta= 0.70
     Davidson diagonalization with overlap

---- Real-time Memory Report at c_bands before calling an iterative solver
           268 MiB given to the printing process from OS
             0 MiB allocation reported by mallinfo(arena+hblkhd)
         36439 MiB available memory on the node where the printing process lives
------------------
     ethr =  1.12E-04,  avg # of iterations =  1.0

     total cpu time spent up to now is       73.0 secs

     total energy              =   -1747.98133742 Ry
     estimated scf accuracy    <       0.15044284 Ry

     iteration # 49     ecut=    30.00 Ry     beta= 0.70
     Davidson diagonalization with overlap

---- Real-time Memory Report at c_bands before calling an iterative solver
           268 MiB given to the printing process from OS
             0 MiB allocation reported by mallinfo(arena+hblkhd)
         36347 MiB available memory on the node where the printing process lives
------------------
     ethr =  1.12E-04,  avg # of iterations =  1.0

     total cpu time spent up to now is       74.4 secs

     total energy              =   -1747.93894086 Ry
     estimated scf accuracy    <       0.07812648 Ry

     iteration # 50     ecut=    30.00 Ry     beta= 0.70
     Davidson diagonalization with overlap

---- Real-time Memory Report at c_bands before calling an iterative solver
           268 MiB given to the printing process from OS
             0 MiB allocation reported by mallinfo(arena+hblkhd)
         36062 MiB available memory on the node where the printing process lives
------------------
     ethr =  1.12E-04,  avg # of iterations =  2.0

     total cpu time spent up to now is       75.8 secs

     total energy              =   -1746.10493495 Ry
     estimated scf accuracy    <     171.39872284 Ry

     iteration # 51     ecut=    30.00 Ry     beta= 0.70
     Davidson diagonalization with overlap

---- Real-time Memory Report at c_bands before calling an iterative solver
           268 MiB given to the printing process from OS
             0 MiB allocation reported by mallinfo(arena+hblkhd)
         35638 MiB available memory on the node where the printing process lives
------------------
     ethr =  1.12E-04,  avg # of iterations =  2.4

     total cpu time spent up to now is       77.1 secs

     total energy              =   -1747.99470426 Ry
     estimated scf accuracy    <       0.05579950 Ry

     iteration # 52     ecut=    30.00 Ry     beta= 0.70
     Davidson diagonalization with overlap

---- Real-time Memory Report at c_bands before calling an iterative solver
           268 MiB given to the printing process from OS
             0 MiB allocation reported by mallinfo(arena+hblkhd)
         36462 MiB available memory on the node where the printing process lives
------------------
     ethr =  1.03E-04,  avg # of iterations =  1.0

     total cpu time spent up to now is       78.3 secs

     total energy              =   -1747.99462261 Ry
     estimated scf accuracy    <       0.07036659 Ry

     iteration # 53     ecut=    30.00 Ry     beta= 0.70
     Davidson diagonalization with overlap

---- Real-time Memory Report at c_bands before calling an iterative solver
           268 MiB given to the printing process from OS
             0 MiB allocation reported by mallinfo(arena+hblkhd)
         37436 MiB available memory on the node where the printing process lives
------------------
     ethr =  1.03E-04,  avg # of iterations =  1.0

     total cpu time spent up to now is       79.4 secs

     total energy              =   -1747.99563695 Ry
     estimated scf accuracy    <       0.05302363 Ry

     iteration # 54     ecut=    30.00 Ry     beta= 0.70
     Davidson diagonalization with overlap

---- Real-time Memory Report at c_bands before calling an iterative solver
           268 MiB given to the printing process from OS
             0 MiB allocation reported by mallinfo(arena+hblkhd)
         37461 MiB available memory on the node where the printing process lives
------------------
     ethr =  9.82E-05,  avg # of iterations =  1.0

     total cpu time spent up to now is       80.6 secs

     total energy              =   -1747.99554058 Ry
     estimated scf accuracy    <       0.04786940 Ry

     iteration # 55     ecut=    30.00 Ry     beta= 0.70
     Davidson diagonalization with overlap

---- Real-time Memory Report at c_bands before calling an iterative solver
           268 MiB given to the printing process from OS
             0 MiB allocation reported by mallinfo(arena+hblkhd)
         37392 MiB available memory on the node where the printing process lives
------------------
     ethr =  8.86E-05,  avg # of iterations =  1.0

     total cpu time spent up to now is       82.5 secs

     total energy              =   -1747.99717808 Ry
     estimated scf accuracy    <       0.04873597 Ry

     iteration # 56     ecut=    30.00 Ry     beta= 0.70
     Davidson diagonalization with overlap

---- Real-time Memory Report at c_bands before calling an iterative solver
           268 MiB given to the printing process from OS
             0 MiB allocation reported by mallinfo(arena+hblkhd)
         37235 MiB available memory on the node where the printing process lives
------------------
     ethr =  8.86E-05,  avg # of iterations =  1.0

     total cpu time spent up to now is       83.9 secs

     total energy              =   -1747.99729946 Ry
     estimated scf accuracy    <       0.03880674 Ry

     iteration # 57     ecut=    30.00 Ry     beta= 0.70
     Davidson diagonalization with overlap

---- Real-time Memory Report at c_bands before calling an iterative solver
           268 MiB given to the printing process from OS
             0 MiB allocation reported by mallinfo(arena+hblkhd)
         37342 MiB available memory on the node where the printing process lives
------------------
     ethr =  7.19E-05,  avg # of iterations =  1.0

     total cpu time spent up to now is       85.2 secs

     total energy              =   -1747.99693747 Ry
     estimated scf accuracy    <       0.03268408 Ry

     iteration # 58     ecut=    30.00 Ry     beta= 0.70
     Davidson diagonalization with overlap

---- Real-time Memory Report at c_bands before calling an iterative solver
           268 MiB given to the printing process from OS
             0 MiB allocation reported by mallinfo(arena+hblkhd)
         37324 MiB available memory on the node where the printing process lives
------------------
     ethr =  6.05E-05,  avg # of iterations =  1.0

     total cpu time spent up to now is       86.4 secs

     total energy              =   -1747.99719561 Ry
     estimated scf accuracy    <       0.02916357 Ry

     iteration # 59     ecut=    30.00 Ry     beta= 0.70
     Davidson diagonalization with overlap

---- Real-time Memory Report at c_bands before calling an iterative solver
           268 MiB given to the printing process from OS
             0 MiB allocation reported by mallinfo(arena+hblkhd)
         37357 MiB available memory on the node where the printing process lives
------------------
     ethr =  5.40E-05,  avg # of iterations =  1.0

     total cpu time spent up to now is       87.5 secs

     total energy              =   -1747.98058067 Ry
     estimated scf accuracy    <       0.02373091 Ry

     iteration # 60     ecut=    30.00 Ry     beta= 0.70
     Davidson diagonalization with overlap

---- Real-time Memory Report at c_bands before calling an iterative solver
           268 MiB given to the printing process from OS
             0 MiB allocation reported by mallinfo(arena+hblkhd)
         37277 MiB available memory on the node where the printing process lives
------------------
     ethr =  4.39E-05,  avg # of iterations =  2.0

     total cpu time spent up to now is       88.8 secs

     total energy              =   -1747.56580181 Ry
     estimated scf accuracy    <      62.95160980 Ry

     iteration # 61     ecut=    30.00 Ry     beta= 0.70
     Davidson diagonalization with overlap

---- Real-time Memory Report at c_bands before calling an iterative solver
           268 MiB given to the printing process from OS
             0 MiB allocation reported by mallinfo(arena+hblkhd)
         37261 MiB available memory on the node where the printing process lives
------------------
     ethr =  4.39E-05,  avg # of iterations =  2.0

     total cpu time spent up to now is       90.0 secs

     total energy              =   -1747.99752029 Ry
     estimated scf accuracy    <       0.04462172 Ry

     iteration # 62     ecut=    30.00 Ry     beta= 0.70
     Davidson diagonalization with overlap

---- Real-time Memory Report at c_bands before calling an iterative solver
           268 MiB given to the printing process from OS
             0 MiB allocation reported by mallinfo(arena+hblkhd)
         37287 MiB available memory on the node where the printing process lives
------------------
     ethr =  4.39E-05,  avg # of iterations =  1.0

     total cpu time spent up to now is       91.2 secs

     total energy              =   -1747.99761567 Ry
     estimated scf accuracy    <       0.03682818 Ry

     iteration # 63     ecut=    30.00 Ry     beta= 0.70
     Davidson diagonalization with overlap

---- Real-time Memory Report at c_bands before calling an iterative solver
           268 MiB given to the printing process from OS
             0 MiB allocation reported by mallinfo(arena+hblkhd)
         37367 MiB available memory on the node where the printing process lives
------------------
     ethr =  4.39E-05,  avg # of iterations =  1.0

     total cpu time spent up to now is       92.3 secs

     total energy              =   -1747.99706208 Ry
     estimated scf accuracy    <       0.03539551 Ry

     iteration # 64     ecut=    30.00 Ry     beta= 0.70
     Davidson diagonalization with overlap

---- Real-time Memory Report at c_bands before calling an iterative solver
           268 MiB given to the printing process from OS
             0 MiB allocation reported by mallinfo(arena+hblkhd)
         37494 MiB available memory on the node where the printing process lives
------------------
     ethr =  4.39E-05,  avg # of iterations =  1.0

     total cpu time spent up to now is       93.6 secs

     total energy              =   -1747.99691612 Ry
     estimated scf accuracy    <       0.03199587 Ry

     iteration # 65     ecut=    30.00 Ry     beta= 0.70
     Davidson diagonalization with overlap

---- Real-time Memory Report at c_bands before calling an iterative solver
           268 MiB given to the printing process from OS
             0 MiB allocation reported by mallinfo(arena+hblkhd)
         37434 MiB available memory on the node where the printing process lives
------------------
     ethr =  4.39E-05,  avg # of iterations =  1.0

     total cpu time spent up to now is       95.1 secs

     total energy              =   -1747.99698034 Ry
     estimated scf accuracy    <       0.02966406 Ry

     iteration # 66     ecut=    30.00 Ry     beta= 0.70
     Davidson diagonalization with overlap

---- Real-time Memory Report at c_bands before calling an iterative solver
           268 MiB given to the printing process from OS
             0 MiB allocation reported by mallinfo(arena+hblkhd)
         37440 MiB available memory on the node where the printing process lives
------------------
     ethr =  4.39E-05,  avg # of iterations =  1.0

     total cpu time spent up to now is       96.5 secs

     total energy              =   -1747.99670824 Ry
     estimated scf accuracy    <       0.02790850 Ry

     iteration # 67     ecut=    30.00 Ry     beta= 0.70
     Davidson diagonalization with overlap

---- Real-time Memory Report at c_bands before calling an iterative solver
           268 MiB given to the printing process from OS
             0 MiB allocation reported by mallinfo(arena+hblkhd)
         37435 MiB available memory on the node where the printing process lives
------------------
     ethr =  4.39E-05,  avg # of iterations =  1.0

     total cpu time spent up to now is       97.8 secs

     total energy              =   -1747.99672314 Ry
     estimated scf accuracy    <       0.02451317 Ry

     iteration # 68     ecut=    30.00 Ry     beta= 0.70
     Davidson diagonalization with overlap

---- Real-time Memory Report at c_bands before calling an iterative solver
           268 MiB given to the printing process from OS
             0 MiB allocation reported by mallinfo(arena+hblkhd)
         37439 MiB available memory on the node where the printing process lives
------------------
     ethr =  4.39E-05,  avg # of iterations =  1.0

     total cpu time spent up to now is       99.2 secs

     total energy              =   -1747.99637537 Ry
     estimated scf accuracy    <       0.02437760 Ry

     iteration # 69     ecut=    30.00 Ry     beta= 0.70
     Davidson diagonalization with overlap

---- Real-time Memory Report at c_bands before calling an iterative solver
           268 MiB given to the printing process from OS
             0 MiB allocation reported by mallinfo(arena+hblkhd)
         37441 MiB available memory on the node where the printing process lives
------------------
     ethr =  4.39E-05,  avg # of iterations =  1.0

     total cpu time spent up to now is      100.5 secs

     total energy              =   -1747.99304440 Ry
     estimated scf accuracy    <       0.01937807 Ry

     iteration # 70     ecut=    30.00 Ry     beta= 0.70
     Davidson diagonalization with overlap

---- Real-time Memory Report at c_bands before calling an iterative solver
           268 MiB given to the printing process from OS
             0 MiB allocation reported by mallinfo(arena+hblkhd)
         37432 MiB available memory on the node where the printing process lives
------------------
     ethr =  3.59E-05,  avg # of iterations =  1.0

     total cpu time spent up to now is      101.8 secs

     total energy              =   -1747.99291197 Ry
     estimated scf accuracy    <       0.07011035 Ry

     iteration # 71     ecut=    30.00 Ry     beta= 0.70
     Davidson diagonalization with overlap

---- Real-time Memory Report at c_bands before calling an iterative solver
           268 MiB given to the printing process from OS
             0 MiB allocation reported by mallinfo(arena+hblkhd)
         37432 MiB available memory on the node where the printing process lives
------------------
     ethr =  3.59E-05,  avg # of iterations =  1.0

     total cpu time spent up to now is      102.9 secs

     total energy              =   -1747.99538746 Ry
     estimated scf accuracy    <       0.00214218 Ry

     iteration # 72     ecut=    30.00 Ry     beta= 0.70
     Davidson diagonalization with overlap

---- Real-time Memory Report at c_bands before calling an iterative solver
           268 MiB given to the printing process from OS
             0 MiB allocation reported by mallinfo(arena+hblkhd)
         37437 MiB available memory on the node where the printing process lives
------------------
     ethr =  3.97E-06,  avg # of iterations =  1.0

     total cpu time spent up to now is      104.1 secs

     total energy              =   -1747.99533104 Ry
     estimated scf accuracy    <       0.00111933 Ry

     iteration # 73     ecut=    30.00 Ry     beta= 0.70
     Davidson diagonalization with overlap

---- Real-time Memory Report at c_bands before calling an iterative solver
           268 MiB given to the printing process from OS
             0 MiB allocation reported by mallinfo(arena+hblkhd)
         37427 MiB available memory on the node where the printing process lives
------------------
     ethr =  2.07E-06,  avg # of iterations =  1.0

     total cpu time spent up to now is      105.3 secs

     total energy              =   -1747.99533268 Ry
     estimated scf accuracy    <       0.00009430 Ry

     iteration # 74     ecut=    30.00 Ry     beta= 0.70
     Davidson diagonalization with overlap

---- Real-time Memory Report at c_bands before calling an iterative solver
           268 MiB given to the printing process from OS
             0 MiB allocation reported by mallinfo(arena+hblkhd)
         37428 MiB available memory on the node where the printing process lives
------------------
     ethr =  1.75E-07,  avg # of iterations =  1.0

     total cpu time spent up to now is      106.5 secs

     total energy              =   -1747.99534140 Ry
     estimated scf accuracy    <       0.00072226 Ry

     iteration # 75     ecut=    30.00 Ry     beta= 0.70
     Davidson diagonalization with overlap

---- Real-time Memory Report at c_bands before calling an iterative solver
           268 MiB given to the printing process from OS
             0 MiB allocation reported by mallinfo(arena+hblkhd)
         36822 MiB available memory on the node where the printing process lives
------------------
     ethr =  1.75E-07,  avg # of iterations =  1.0

     total cpu time spent up to now is      107.6 secs

     total energy              =   -1747.99535745 Ry
     estimated scf accuracy    <       0.00097207 Ry

     iteration # 76     ecut=    30.00 Ry     beta= 0.70
     Davidson diagonalization with overlap

---- Real-time Memory Report at c_bands before calling an iterative solver
           268 MiB given to the printing process from OS
             0 MiB allocation reported by mallinfo(arena+hblkhd)
         35890 MiB available memory on the node where the printing process lives
------------------
     ethr =  1.75E-07,  avg # of iterations =  1.0

     total cpu time spent up to now is      108.8 secs

     total energy              =   -1747.99537577 Ry
     estimated scf accuracy    <       0.00015220 Ry

     iteration # 77     ecut=    30.00 Ry     beta= 0.70
     Davidson diagonalization with overlap

---- Real-time Memory Report at c_bands before calling an iterative solver
           268 MiB given to the printing process from OS
             0 MiB allocation reported by mallinfo(arena+hblkhd)
         35871 MiB available memory on the node where the printing process lives
------------------
     ethr =  1.75E-07,  avg # of iterations =  1.0

     total cpu time spent up to now is      109.9 secs

     total energy              =   -1747.99537371 Ry
     estimated scf accuracy    <       0.00009841 Ry

     iteration # 78     ecut=    30.00 Ry     beta= 0.70
     Davidson diagonalization with overlap

---- Real-time Memory Report at c_bands before calling an iterative solver
           268 MiB given to the printing process from OS
             0 MiB allocation reported by mallinfo(arena+hblkhd)
         35647 MiB available memory on the node where the printing process lives
------------------
     ethr =  1.75E-07,  avg # of iterations =  1.0

     total cpu time spent up to now is      111.1 secs

     total energy              =   -1747.99536553 Ry
     estimated scf accuracy    <       0.00010134 Ry

     iteration # 79     ecut=    30.00 Ry     beta= 0.70
     Davidson diagonalization with overlap

---- Real-time Memory Report at c_bands before calling an iterative solver
           268 MiB given to the printing process from OS
             0 MiB allocation reported by mallinfo(arena+hblkhd)
         35229 MiB available memory on the node where the printing process lives
------------------
     ethr =  1.75E-07,  avg # of iterations =  1.0

     total cpu time spent up to now is      112.2 secs

     total energy              =   -1747.99537908 Ry
     estimated scf accuracy    <       0.00000141 Ry

     iteration # 80     ecut=    30.00 Ry     beta= 0.70
     Davidson diagonalization with overlap

---- Real-time Memory Report at c_bands before calling an iterative solver
           268 MiB given to the printing process from OS
             0 MiB allocation reported by mallinfo(arena+hblkhd)
         33997 MiB available memory on the node where the printing process lives
------------------
     ethr =  2.60E-09,  avg # of iterations =  1.1

     total cpu time spent up to now is      114.1 secs

     total energy              =   -1747.99537979 Ry
     estimated scf accuracy    <       0.00000397 Ry

     iteration # 81     ecut=    30.00 Ry     beta= 0.70
     Davidson diagonalization with overlap

---- Real-time Memory Report at c_bands before calling an iterative solver
           268 MiB given to the printing process from OS
             0 MiB allocation reported by mallinfo(arena+hblkhd)
         33651 MiB available memory on the node where the printing process lives
------------------
     ethr =  2.60E-09,  avg # of iterations =  1.0

     total cpu time spent up to now is      115.3 secs

     End of self-consistent calculation

          k = 0.0000 0.0000 0.0000 (  2381 PWs)   bands (ev):

   -41.6870 -32.2565 -14.0345 -14.0067 -13.9968 -10.4014 -10.3366 -10.2953
    -1.8148  -0.8387   5.1150   7.3379   7.3396   8.5984   8.6109   8.6213
    10.0205  10.0422  10.0575  10.0747  10.0784  10.1016  10.1183  10.2225
    10.2418  10.3059  10.3919  10.7052  10.7407  10.7583  11.5382  11.5700
    11.5752  11.9433  12.2630  12.2651  12.9417  13.8845  14.0088  14.0180
    15.8130  15.8172  16.9538  17.3525  17.3551  18.8190  20.5832  20.5885
    21.8784  22.1264  22.1305  22.1377  22.1586  22.1697  22.3266  22.8652
    25.7784  25.7796  26.5099  26.5160  26.5497  27.0949  28.4256  28.8564

     occupation numbers 
     1.0000   1.0000   1.0000   1.0000   1.0000   1.0000   1.0000   1.0000
     1.0000   1.0000   1.0000   1.0000   1.0000   1.0000   1.0000   1.0000
     1.0000   1.0000   1.0000   1.0000   1.0000   1.0000   1.0000   1.0000
     1.0000   1.0000   1.0000   0.0000   0.0000   0.0000   0.0000   0.0000
     0.0000   0.0000   0.0000   0.0000   0.0000   0.0000   0.0000   0.0000
     0.0000   0.0000   0.0000   0.0000   0.0000   0.0000   0.0000   0.0000
     0.0000   0.0000   0.0000   0.0000   0.0000   0.0000   0.0000   0.0000
     0.0000   0.0000   0.0000   0.0000   0.0000   0.0000   0.0000   0.0000

          k = 0.0000 0.0000 0.6792 (  2307 PWs)   bands (ev):

   -41.6864 -32.2538 -14.0465 -14.0236 -14.0055 -10.4417 -10.3656 -10.3156
    -1.2250  -0.9099   5.9957   6.2282   6.7244   7.4251   7.6203   7.8811
    10.0131  10.0383  10.0409  10.0462  10.0608  10.0643  10.1049  10.1528
    10.1708  10.1976  10.2586  10.5007  10.5403  10.5727  11.2700  11.9572
    13.0546  13.1435  13.6402  13.8098  13.9996  14.2277  14.3089  15.3671
    15.6081  15.9078  17.5186  17.6448  18.0616  18.3709  18.6631  19.5470
    20.3146  20.3925  21.6953  21.9919  23.8182  24.0501  24.5865  24.7777
    24.8055  24.8679  25.2502  25.6787  26.5867  27.1116  28.3001  28.3854

     occupation numbers 
     1.0000   1.0000   1.0000   1.0000   1.0000   1.0000   1.0000   1.0000
     1.0000   1.0000   1.0000   1.0000   1.0000   1.0000   1.0000   1.0000
     1.0000   1.0000   1.0000   1.0000   1.0000   1.0000   1.0000   1.0000
     1.0000   1.0000   1.0000   0.0000   0.0000   0.0000   0.0000   0.0000
     0.0000   0.0000   0.0000   0.0000   0.0000   0.0000   0.0000   0.0000
     0.0000   0.0000   0.0000   0.0000   0.0000   0.0000   0.0000   0.0000
     0.0000   0.0000   0.0000   0.0000   0.0000   0.0000   0.0000   0.0000
     0.0000   0.0000   0.0000   0.0000   0.0000   0.0000   0.0000   0.0000

          k = 0.0000 0.6049-0.3090 (  2307 PWs)   bands (ev):

   -41.6864 -32.2538 -14.0398 -14.0249 -14.0108 -10.4150 -10.3743 -10.3340
    -1.2247  -0.9093   5.9960   6.2290   6.7252   7.4229   7.6228   7.8741
    10.0099  10.0331  10.0397  10.0526  10.0573  10.0788  10.1007  10.1583
    10.1745  10.2080  10.2705  10.4558  10.5056  10.6150  11.2700  11.9635
    13.0569  13.1452  13.6449  13.8007  14.0035  14.2243  14.3094  15.3654
    15.6047  15.9097  17.5199  17.6467  18.0660  18.3722  18.6656  19.5446
    20.3112  20.3940  21.6944  21.9897  23.8140  24.0466  24.5894  24.7714
    24.8085  24.8714  25.2562  25.6787  26.5870  27.1118  28.2965  28.3913

     occupation numbers 
     1.0000   1.0000   1.0000   1.0000   1.0000   1.0000   1.0000   1.0000
     1.0000   1.0000   1.0000   1.0000   1.0000   1.0000   1.0000   1.0000
     1.0000   1.0000   1.0000   1.0000   1.0000   1.0000   1.0000   1.0000
     1.0000   1.0000   1.0000   0.0000   0.0000   0.0000   0.0000   0.0000
     0.0000   0.0000   0.0000   0.0000   0.0000   0.0000   0.0000   0.0000
     0.0000   0.0000   0.0000   0.0000   0.0000   0.0000   0.0000   0.0000
     0.0000   0.0000   0.0000   0.0000   0.0000   0.0000   0.0000   0.0000
     0.0000   0.0000   0.0000   0.0000   0.0000   0.0000   0.0000   0.0000

          k = 0.0000 0.6049 0.3703 (  2327 PWs)   bands (ev):

   -41.6864 -32.2538 -14.0380 -14.0251 -14.0127 -10.4049 -10.3750 -10.3430
    -1.1168  -1.0277   5.7917   6.2432   7.1668   7.5580   7.5746   7.7153
     9.9949  10.0220  10.0399  10.0510  10.0611  10.0788  10.0923  10.1430
    10.1804  10.1887  10.2733  10.4173  10.5067  10.6047  10.8711  12.1639
    13.0378  13.0483  13.1813  13.7710  14.6431  14.6636  14.9278  15.0493
    15.2880  15.3695  17.5411  17.8221  17.9593  18.0369  19.3220  19.5078
    20.5860  21.5705  21.7158  21.7501  22.1976  23.1470  24.0484  24.7533
    24.8745  25.6751  26.1091  26.3001  26.6794  26.9642  26.9689  27.9126

     occupation numbers 
     1.0000   1.0000   1.0000   1.0000   1.0000   1.0000   1.0000   1.0000
     1.0000   1.0000   1.0000   1.0000   1.0000   1.0000   1.0000   1.0000
     1.0000   1.0000   1.0000   1.0000   1.0000   1.0000   1.0000   1.0000
     1.0000   1.0000   1.0000   0.0000   0.0000   0.0000   0.0000   0.0000
     0.0000   0.0000   0.0000   0.0000   0.0000   0.0000   0.0000   0.0000
     0.0000   0.0000   0.0000   0.0000   0.0000   0.0000   0.0000   0.0000
     0.0000   0.0000   0.0000   0.0000   0.0000   0.0000   0.0000   0.0000
     0.0000   0.0000   0.0000   0.0000   0.0000   0.0000   0.0000   0.0000

          k = 0.0000 0.6049-0.9882 (  2315 PWs)   bands (ev):

   -41.6861 -32.2525 -14.0426 -14.0323 -14.0195 -10.4292 -10.3832 -10.3544
    -0.9111  -0.9104   5.9446   6.0967   6.7221   6.8824   7.2660   7.4450
    10.0186  10.0283  10.0291  10.0433  10.0548  10.0705  10.0865  10.1374
    10.1575  10.1909  10.2385  10.4841  10.5072  10.6115  11.9115  12.4663
    12.6871  13.4967  13.8662  14.0222  14.0446  14.7166  14.7191  15.4124
    15.6664  16.2284  17.6309  17.6433  18.1487  18.2957  18.4467  19.5313
    20.2947  20.6793  21.9662  22.1484  23.6771  24.1047  24.5137  24.7755
    24.8687  25.2641  25.7296  26.2031  26.6053  26.7007  27.1485  27.5490

     occupation numbers 
     1.0000   1.0000   1.0000   1.0000   1.0000   1.0000   1.0000   1.0000
     1.0000   1.0000   1.0000   1.0000   1.0000   1.0000   1.0000   1.0000
     1.0000   1.0000   1.0000   1.0000   1.0000   1.0000   1.0000   1.0000
     1.0000   1.0000   1.0000   0.0000   0.0000   0.0000   0.0000   0.0000
     0.0000   0.0000   0.0000   0.0000   0.0000   0.0000   0.0000   0.0000
     0.0000   0.0000   0.0000   0.0000   0.0000   0.0000   0.0000   0.0000
     0.0000   0.0000   0.0000   0.0000   0.0000   0.0000   0.0000   0.0000
     0.0000   0.0000   0.0000   0.0000   0.0000   0.0000   0.0000   0.0000

          k = 0.3333-0.5047-0.3090 (  2307 PWs)   bands (ev):

   -41.6864 -32.2538 -14.0379 -14.0250 -14.0127 -10.4053 -10.3750 -10.3431
    -1.2245  -0.9092   5.9963   6.2290   6.7251   7.4225   7.6235   7.8732
    10.0073  10.0359  10.0404  10.0520  10.0605  10.0800  10.0970  10.1509
    10.1721  10.2032  10.2705  10.4650  10.5084  10.6215  11.2663  11.9636
    13.0582  13.1450  13.6464  13.7982  14.0043  14.2230  14.3088  15.3641
    15.6045  15.9108  17.5228  17.6454  18.0667  18.3739  18.6665  19.5430
    20.3086  20.3928  21.6971  21.9891  23.8120  24.0468  24.5895  24.7677
    24.8092  24.8748  25.2552  25.6793  26.5865  27.1128  28.2955  28.3914

     occupation numbers 
     1.0000   1.0000   1.0000   1.0000   1.0000   1.0000   1.0000   1.0000
     1.0000   1.0000   1.0000   1.0000   1.0000   1.0000   1.0000   1.0000
     1.0000   1.0000   1.0000   1.0000   1.0000   1.0000   1.0000   1.0000
     1.0000   1.0000   1.0000   0.0000   0.0000   0.0000   0.0000   0.0000
     0.0000   0.0000   0.0000   0.0000   0.0000   0.0000   0.0000   0.0000
     0.0000   0.0000   0.0000   0.0000   0.0000   0.0000   0.0000   0.0000
     0.0000   0.0000   0.0000   0.0000   0.0000   0.0000   0.0000   0.0000
     0.0000   0.0000   0.0000   0.0000   0.0000   0.0000   0.0000   0.0000

          k = 0.3333-0.5047 0.3703 (  2327 PWs)   bands (ev):

   -41.6864 -32.2538 -14.0399 -14.0250 -14.0108 -10.4146 -10.3743 -10.3339
    -1.1170  -1.0278   5.7915   6.2432   7.1665   7.5584   7.5748   7.7162
     9.9969  10.0208  10.0397  10.0507  10.0574  10.0776  10.0968  10.1436
    10.1821  10.1831  10.2683  10.4272  10.5047  10.6173  10.8570  12.1642
    13.0376  13.0488  13.1811  13.7732  14.6438  14.6601  14.9288  15.0472
    15.2902  15.3693  17.5409  17.8216  17.9589  18.0376  19.3233  19.5067
    20.5851  21.5697  21.7174  21.7502  22.1987  23.1481  24.0479  24.7537
    24.8737  25.6746  26.1091  26.3019  26.6750  26.9643  26.9703  27.9110

     occupation numbers 
     1.0000   1.0000   1.0000   1.0000   1.0000   1.0000   1.0000   1.0000
     1.0000   1.0000   1.0000   1.0000   1.0000   1.0000   1.0000   1.0000
     1.0000   1.0000   1.0000   1.0000   1.0000   1.0000   1.0000   1.0000
     1.0000   1.0000   1.0000   0.0000   0.0000   0.0000   0.0000   0.0000
     0.0000   0.0000   0.0000   0.0000   0.0000   0.0000   0.0000   0.0000
     0.0000   0.0000   0.0000   0.0000   0.0000   0.0000   0.0000   0.0000
     0.0000   0.0000   0.0000   0.0000   0.0000   0.0000   0.0000   0.0000
     0.0000   0.0000   0.0000   0.0000   0.0000   0.0000   0.0000   0.0000

          k = 0.3333-0.5047-0.9882 (  2315 PWs)   bands (ev):

   -41.6861 -32.2525 -14.0426 -14.0323 -14.0195 -10.4292 -10.3832 -10.3544
    -0.9111  -0.9105   5.9445   6.0966   6.7224   6.8824   7.2665   7.4446
    10.0220  10.0250  10.0293  10.0412  10.0549  10.0721  10.0867  10.1408
    10.1516  10.1870  10.2398  10.4849  10.5107  10.6126  11.9123  12.4643
    12.6876  13.4955  13.8650  14.0223  14.0456  14.7170  14.7217  15.4127
    15.6658  16.2276  17.6297  17.6444  18.1491  18.2956  18.4448  19.5317
    20.2955  20.6794  21.9655  22.1501  23.6756  24.1038  24.5139  24.7752
    24.8676  25.2659  25.7290  26.2036  26.6060  26.7046  27.1476  27.5507

     occupation numbers 
     1.0000   1.0000   1.0000   1.0000   1.0000   1.0000   1.0000   1.0000
     1.0000   1.0000   1.0000   1.0000   1.0000   1.0000   1.0000   1.0000
     1.0000   1.0000   1.0000   1.0000   1.0000   1.0000   1.0000   1.0000
     1.0000   1.0000   1.0000   0.0000   0.0000   0.0000   0.0000   0.0000
     0.0000   0.0000   0.0000   0.0000   0.0000   0.0000   0.0000   0.0000
     0.0000   0.0000   0.0000   0.0000   0.0000   0.0000   0.0000   0.0000
     0.0000   0.0000   0.0000   0.0000   0.0000   0.0000   0.0000   0.0000
     0.0000   0.0000   0.0000   0.0000   0.0000   0.0000   0.0000   0.0000

          k = 0.3333 0.1001-0.6179 (  2327 PWs)   bands (ev):

   -41.6864 -32.2538 -14.0466 -14.0236 -14.0055 -10.4415 -10.3653 -10.3156
    -1.1179  -1.0277   5.7903   6.2424   7.1646   7.5603   7.5757   7.7229
     9.9923  10.0337  10.0398  10.0439  10.0598  10.0660  10.1065  10.1242
    10.1638  10.1713  10.2621  10.5089  10.5639  10.5724  10.8074  12.1634
    13.0413  13.0445  13.1799  13.7752  14.6488  14.6572  14.9292  15.0452
    15.2947  15.3707  17.5400  17.8215  17.9574  18.0345  19.3260  19.5007
    20.5819  21.5678  21.7204  21.7526  22.2010  23.1468  24.0466  24.7466
    24.8709  25.6718  26.1092  26.3050  26.6802  26.9680  26.9697  27.9205

     occupation numbers 
     1.0000   1.0000   1.0000   1.0000   1.0000   1.0000   1.0000   1.0000
     1.0000   1.0000   1.0000   1.0000   1.0000   1.0000   1.0000   1.0000
     1.0000   1.0000   1.0000   1.0000   1.0000   1.0000   1.0000   1.0000
     1.0000   1.0000   1.0000   0.0000   0.0000   0.0000   0.0000   0.0000
     0.0000   0.0000   0.0000   0.0000   0.0000   0.0000   0.0000   0.0000
     0.0000   0.0000   0.0000   0.0000   0.0000   0.0000   0.0000   0.0000
     0.0000   0.0000   0.0000   0.0000   0.0000   0.0000   0.0000   0.0000
     0.0000   0.0000   0.0000   0.0000   0.0000   0.0000   0.0000   0.0000

          k = 0.3333 0.1001 0.0613 (  2340 PWs)   bands (ev):

   -41.6870 -32.2565 -14.0342 -14.0067 -13.9968 -10.4030 -10.3366 -10.2953
    -1.6023  -1.1207   5.7923   7.4057   7.5820   7.5845   8.2078   8.2157
    10.0054  10.0409  10.0568  10.0787  10.0891  10.0963  10.1040  10.1770
    10.2064  10.2391  10.2668  10.5351  10.6009  10.6275  11.7230  11.9899
    11.9991  12.2092  13.1006  13.1077  13.2966  13.2972  13.5354  14.9361
    15.2659  15.2666  17.4615  17.7900  17.9277  17.9354  19.3389  20.1661
    20.1763  20.5462  21.7741  21.7786  22.6704  22.6768  23.7346  24.8222
    25.6600  26.4585  26.4625  26.9832  26.9881  27.9010  27.9118  28.3797

     occupation numbers 
     1.0000   1.0000   1.0000   1.0000   1.0000   1.0000   1.0000   1.0000
     1.0000   1.0000   1.0000   1.0000   1.0000   1.0000   1.0000   1.0000
     1.0000   1.0000   1.0000   1.0000   1.0000   1.0000   1.0000   1.0000
     1.0000   1.0000   1.0000   0.0000   0.0000   0.0000   0.0000   0.0000
     0.0000   0.0000   0.0000   0.0000   0.0000   0.0000   0.0000   0.0000
     0.0000   0.0000   0.0000   0.0000   0.0000   0.0000   0.0000   0.0000
     0.0000   0.0000   0.0000   0.0000   0.0000   0.0000   0.0000   0.0000
     0.0000   0.0000   0.0000   0.0000   0.0000   0.0000   0.0000   0.0000

          k = 0.3333 0.1001-1.2971 (  2330 PWs)   bands (ev):

   -41.6864 -32.2538 -14.0466 -14.0235 -14.0055 -10.4413 -10.3659 -10.3156
    -1.1801  -0.9523   5.6000   6.1759   7.2608   7.3872   7.9127   7.9383
     9.9987  10.0327  10.0394  10.0429  10.0579  10.0622  10.1131  10.1560
    10.1645  10.1905  10.2698  10.3099  10.5015  10.5951  10.6234  12.5734
    12.9402  12.9972  13.1967  13.7488  14.2291  14.4876  14.5890  14.6554
    15.5018  16.9268  17.3549  17.7025  18.2983  18.7414  18.8049  18.8301
    20.2373  20.6385  21.3144  22.6739  23.1231  23.7028  24.4100  24.7193
    24.8302  24.8753  25.3138  25.7794  26.4923  27.4576  27.5068  27.8247

     occupation numbers 
     1.0000   1.0000   1.0000   1.0000   1.0000   1.0000   1.0000   1.0000
     1.0000   1.0000   1.0000   1.0000   1.0000   1.0000   1.0000   1.0000
     1.0000   1.0000   1.0000   1.0000   1.0000   1.0000   1.0000   1.0000
     1.0000   1.0000   1.0000   0.0000   0.0000   0.0000   0.0000   0.0000
     0.0000   0.0000   0.0000   0.0000   0.0000   0.0000   0.0000   0.0000
     0.0000   0.0000   0.0000   0.0000   0.0000   0.0000   0.0000   0.0000
     0.0000   0.0000   0.0000   0.0000   0.0000   0.0000   0.0000   0.0000
     0.0000   0.0000   0.0000   0.0000   0.0000   0.0000   0.0000   0.0000

          k = 0.3333-1.1096-0.0000 (  2315 PWs)   bands (ev):

   -41.6861 -32.2525 -14.0427 -14.0323 -14.0195 -10.4290 -10.3834 -10.3544
    -0.9111  -0.9104   5.9446   6.0965   6.7223   6.8832   7.2678   7.4419
    10.0237  10.0284  10.0321  10.0350  10.0574  10.0688  10.0850  10.1521
    10.1544  10.2037  10.2249  10.4818  10.4952  10.6116  11.9180  12.4622
    12.6927  13.4916  13.8648  14.0186  14.0493  14.7205  14.7220  15.4117
    15.6639  16.2261  17.6331  17.6438  18.1524  18.2933  18.4438  19.5298
    20.2912  20.6794  21.9640  22.1558  23.6725  24.1045  24.5122  24.7779
    24.8710  25.2643  25.7292  26.2068  26.6059  26.7121  27.1488  27.5506

     occupation numbers 
     1.0000   1.0000   1.0000   1.0000   1.0000   1.0000   1.0000   1.0000
     1.0000   1.0000   1.0000   1.0000   1.0000   1.0000   1.0000   1.0000
     1.0000   1.0000   1.0000   1.0000   1.0000   1.0000   1.0000   1.0000
     1.0000   1.0000   1.0000   0.0000   0.0000   0.0000   0.0000   0.0000
     0.0000   0.0000   0.0000   0.0000   0.0000   0.0000   0.0000   0.0000
     0.0000   0.0000   0.0000   0.0000   0.0000   0.0000   0.0000   0.0000
     0.0000   0.0000   0.0000   0.0000   0.0000   0.0000   0.0000   0.0000
     0.0000   0.0000   0.0000   0.0000   0.0000   0.0000   0.0000   0.0000

          k = 0.3333-1.1096 0.6792 (  2330 PWs)   bands (ev):

   -41.6864 -32.2539 -14.0399 -14.0249 -14.0108 -10.4146 -10.3746 -10.3340
    -1.1801  -0.9513   5.6001   6.1762   7.2607   7.3854   7.9205   7.9303
     9.9978  10.0304  10.0383  10.0531  10.0600  10.0712  10.0933  10.1340
    10.1700  10.2165  10.2502  10.3150  10.4982  10.5782  10.6518  12.5744
    12.9403  12.9981  13.1918  13.7514  14.2301  14.4916  14.5835  14.6598
    15.5018  16.9244  17.3545  17.7065  18.2961  18.7421  18.8059  18.8285
    20.2371  20.6360  21.3185  22.6773  23.1236  23.7024  24.4111  24.7181
    24.8246  24.8803  25.3104  25.7778  26.4936  27.4588  27.5050  27.8246

     occupation numbers 
     1.0000   1.0000   1.0000   1.0000   1.0000   1.0000   1.0000   1.0000
     1.0000   1.0000   1.0000   1.0000   1.0000   1.0000   1.0000   1.0000
     1.0000   1.0000   1.0000   1.0000   1.0000   1.0000   1.0000   1.0000
     1.0000   1.0000   1.0000   0.0000   0.0000   0.0000   0.0000   0.0000
     0.0000   0.0000   0.0000   0.0000   0.0000   0.0000   0.0000   0.0000
     0.0000   0.0000   0.0000   0.0000   0.0000   0.0000   0.0000   0.0000
     0.0000   0.0000   0.0000   0.0000   0.0000   0.0000   0.0000   0.0000
     0.0000   0.0000   0.0000   0.0000   0.0000   0.0000   0.0000   0.0000

          k = 0.3333-1.1096-0.6792 (  2330 PWs)   bands (ev):

   -41.6864 -32.2539 -14.0380 -14.0250 -14.0127 -10.4050 -10.3752 -10.3431
    -1.1801  -0.9511   5.6002   6.1762   7.2606   7.3851   7.9218   7.9292
     9.9980  10.0324  10.0396  10.0518  10.0638  10.0699  10.0892  10.1236
    10.1692  10.2237  10.2422  10.3158  10.5044  10.5823  10.6534  12.5743
    12.9398  12.9965  13.1907  13.7515  14.2332  14.4921  14.5823  14.6607
    15.5024  16.9232  17.3527  17.7063  18.2960  18.7433  18.8071  18.8294
    20.2368  20.6348  21.3171  22.6783  23.1216  23.7025  24.4129  24.7187
    24.8227  24.8800  25.3105  25.7792  26.4953  27.4596  27.5049  27.8232

     occupation numbers 
     1.0000   1.0000   1.0000   1.0000   1.0000   1.0000   1.0000   1.0000
     1.0000   1.0000   1.0000   1.0000   1.0000   1.0000   1.0000   1.0000
     1.0000   1.0000   1.0000   1.0000   1.0000   1.0000   1.0000   1.0000
     1.0000   1.0000   1.0000   0.0000   0.0000   0.0000   0.0000   0.0000
     0.0000   0.0000   0.0000   0.0000   0.0000   0.0000   0.0000   0.0000
     0.0000   0.0000   0.0000   0.0000   0.0000   0.0000   0.0000   0.0000
     0.0000   0.0000   0.0000   0.0000   0.0000   0.0000   0.0000   0.0000
     0.0000   0.0000   0.0000   0.0000   0.0000   0.0000   0.0000   0.0000

     highest occupied, lowest unoccupied level (ev):    10.3919   10.3099

!    total energy              =   -1747.99537965 Ry
     estimated scf accuracy    <       0.00000099 Ry

     The total energy is the sum of the following terms:
     one-electron contribution =    -569.06139267 Ry
     hartree contribution      =     277.70367863 Ry
     xc contribution           =     -89.91510344 Ry
     ewald contribution        =    -416.82061274 Ry
     one-center paw contrib.   =    -949.90194943 Ry
      -> PAW hartree energy AE =     450.84358501 Ry
      -> PAW hartree energy PS =    -387.33767145 Ry
      -> PAW xc energy AE      =    -584.90676430 Ry
      -> PAW xc energy PS      =      37.23774813 Ry
      -> total E_H with PAW    =     341.20959220 Ry
      -> total E_XC with PAW   =    -637.58411961 Ry

     convergence has been achieved in  81 iterations

     Writing all to output data dir calculations_bands/myprefix.save/
 
     init_run     :      9.59s CPU      3.13s WALL (       1 calls)
     electrons    :    409.02s CPU    111.63s WALL (       1 calls)

     Called by init_run:
     wfcinit      :      1.49s CPU      0.41s WALL (       1 calls)
     wfcinit:atom :      0.01s CPU      0.00s WALL (       7 calls)
     wfcinit:wfcr :      1.43s CPU      0.37s WALL (       7 calls)
     potinit      :      2.85s CPU      0.75s WALL (       1 calls)
     hinit0       :      3.80s CPU      1.56s WALL (       1 calls)

     Called by electrons:
     c_bands      :    209.56s CPU     55.22s WALL (      81 calls)
     sum_band     :     69.17s CPU     20.52s WALL (      81 calls)
     v_of_rho     :      6.67s CPU      1.75s WALL (      82 calls)
     v_h          :      0.40s CPU      0.10s WALL (      82 calls)
     v_xc         :      6.26s CPU      1.64s WALL (      82 calls)
     newd         :     44.29s CPU     13.10s WALL (      82 calls)
     PAW_pot      :     77.69s CPU     20.59s WALL (      82 calls)
     mix_rho      :      1.29s CPU      0.34s WALL (      81 calls)

     Called by c_bands:
     init_us_2    :      1.04s CPU      0.30s WALL (    1141 calls)
     init_us_2:cp :      1.00s CPU      0.29s WALL (    1141 calls)
     cegterg      :    186.00s CPU     48.53s WALL (     567 calls)

     Called by sum_band:
     sum_band:wei :      0.09s CPU      0.02s WALL (      81 calls)
     sum_band:loo :     37.01s CPU      9.60s WALL (      81 calls)
     sum_band:buf :      0.24s CPU      0.06s WALL (     567 calls)
     sum_band:ini :      0.48s CPU      0.12s WALL (     567 calls)
     sum_band:cal :      0.80s CPU      0.20s WALL (     567 calls)
     sum_band:bec :      0.14s CPU      0.03s WALL (     567 calls)
     addusdens    :     23.85s CPU      8.45s WALL (      81 calls)
     addusd:skk   :      0.03s CPU      0.01s WALL (     243 calls)
     addusd:dgemm :      2.17s CPU      2.48s WALL (     243 calls)
     addusd:qvan2 :     15.30s CPU      3.87s WALL (     243 calls)

     Called by *egterg:
     cdiaghg      :     23.26s CPU      6.13s WALL (    1368 calls)
     cegterg:over :      3.19s CPU      0.86s WALL (     801 calls)
     cegterg:upda :      1.56s CPU      0.41s WALL (     801 calls)
     cegterg:last :      1.61s CPU      0.42s WALL (     726 calls)
     cdiaghg:chol :      1.73s CPU      0.45s WALL (    1368 calls)
     cdiaghg:inve :      0.30s CPU      0.08s WALL (    1368 calls)
     cdiaghg:para :      3.82s CPU      1.02s WALL (    2736 calls)
     h_psi        :    153.76s CPU     39.95s WALL (    1375 calls)
     s_psi        :      0.93s CPU      0.24s WALL (    1375 calls)
     g_psi        :      0.12s CPU      0.03s WALL (     801 calls)

     Called by h_psi:
     h_psi:calbec :      2.08s CPU      0.55s WALL (    1375 calls)
     vloc_psi     :    150.15s CPU     39.00s WALL (    1375 calls)
     add_vuspsi   :      1.26s CPU      0.34s WALL (    1375 calls)

     General routines
     calbec       :      2.82s CPU      0.74s WALL (    1942 calls)
     fft          :      5.38s CPU      1.58s WALL (    1064 calls)
     ffts         :      1.02s CPU      0.27s WALL (     163 calls)
     fftw         :    163.95s CPU     42.62s WALL (  190390 calls)
     interpolate  :      1.38s CPU      0.37s WALL (      82 calls)
 
     Parallel routines

     PAW routines
     PAW_pot      :     77.69s CPU     20.59s WALL (      82 calls)
     PAW_symme    :      0.37s CPU      0.10s WALL (     163 calls)
 
     PWSCF        :   7m 1.65s CPU   1m57.82s WALL

 
   This run was terminated on:   0: 1:14   6Jun2023            

=------------------------------------------------------------------------------=
   JOB DONE.
=------------------------------------------------------------------------------=
