
     Program PWSCF v.7.0 starts on  7Jun2023 at  5:10: 5 

     This program is part of the open-source Quantum ESPRESSO suite
     for quantum simulation of materials; please cite
         "P. Giannozzi et al., J. Phys.:Condens. Matter 21 395502 (2009);
         "P. Giannozzi et al., J. Phys.:Condens. Matter 29 465901 (2017);
         "P. Giannozzi et al., J. Chem. Phys. 152 154105 (2020);
          URL http://www.quantum-espresso.org", 
     in publications or presentations arising from this work. More details at
     http://www.quantum-espresso.org/quote

     Parallel version (MPI & OpenMP), running on      32 processor cores
     Number of MPI processes:                 8
     Threads/MPI process:                     4

     MPI processes distributed on     1 nodes
     K-points division:     npool     =       2
     R & G space division:  proc/nbgrp/npool/nimage =       4
     53044 MiB available memory on the printing compute node when the environment starts
 
     Reading input from espresso_1690.pwi
Warning: card &CELL ignored
Warning: card / ignored

     Current dimensions of program PWSCF are:
     Max number of different atomic species (ntypx) = 10
     Max number of k-points (npk) =  40000
     Max angular momentum in pseudopotentials (lmaxx) =  4
     Message from routine setup:
     using ibrav=0 with symmetry is DISCOURAGED, use correct ibrav instead

     Subspace diagonalization in iterative solution of the eigenvalue problem:
     one sub-group per band group will be used
     scalapack distributed-memory algorithm (size of sub-group:  2*  2 procs)

 
     Parallelization info
     --------------------
     sticks:   dense  smooth     PW     G-vecs:    dense   smooth      PW
     Min         470     233     68                20696     7307    1120
     Max         471     235     69                20699     7310    1121
     Sum        1881     937    273                82791    29231    4481
 
     Using Slab Decomposition
 


     bravais-lattice index     =            0
     lattice parameter (alat)  =      10.0038  a.u.
     unit-cell volume          =    1318.2107 (a.u.)^3
     number of atoms/cell      =            6
     number of atomic types    =            3
     number of electrons       =        68.00
     number of Kohn-Sham states=           64
     kinetic-energy cutoff     =      30.0000  Ry
     charge density cutoff     =     240.0000  Ry
     scf convergence threshold =      1.0E-06
     mixing beta               =       0.7000
     number of iterations used =            8  plain     mixing
     Exchange-correlation=  SLA  PW   PBX  PBC
                           (   1   4   3   4   0   0   0)

     celldm(1)=  10.003845  celldm(2)=   0.000000  celldm(3)=   0.000000
     celldm(4)=   0.000000  celldm(5)=   0.000000  celldm(6)=   0.000000

     crystal axes: (cart. coord. in units of alat)
               a(1) = (   1.000000   0.000000   0.000000 )  
               a(2) = (  -0.188780   0.982019   0.000000 )  
               a(3) = (   0.000000   0.000000   1.340800 )  

     reciprocal axes: (cart. coord. in units 2 pi/alat)
               b(1) = (  1.000000  0.192237  0.000000 )  
               b(2) = (  0.000000  1.018310  0.000000 )  
               b(3) = (  0.000000  0.000000  0.745823 )  


     PseudoPot. # 1 for Rb read from file:
     /home/pragov/projects/rrg-bengioy-ad/pragov/crystal_structure_design/SSSP/Rb_ONCV_PBE-1.0.oncvpsp.upf
     MD5 check sum: 55a5172d6bfbce6759a58e35d43f6aa9
     Pseudo is Norm-conserving, Zval =  9.0
     Generated using ONCVPSP code by D. R. Hamann
     Using radial grid of 2308 points,  6 beta functions with: 
                l(1) =   0
                l(2) =   0
                l(3) =   1
                l(4) =   1
                l(5) =   2
                l(6) =   2

     PseudoPot. # 2 for Au read from file:
     /home/pragov/projects/rrg-bengioy-ad/pragov/crystal_structure_design/SSSP/Au_ONCV_PBE-1.0.oncvpsp.upf
     MD5 check sum: d14007822ba0e19f0206237467fc06c2
     Pseudo is Norm-conserving, Zval = 19.0
     Generated using ONCVPSP code by D. R. Hamann
     Using radial grid of 1278 points,  8 beta functions with: 
                l(1) =   0
                l(2) =   0
                l(3) =   1
                l(4) =   1
                l(5) =   2
                l(6) =   2
                l(7) =   3
                l(8) =   3

     PseudoPot. # 3 for S  read from file:
     /home/pragov/projects/rrg-bengioy-ad/pragov/crystal_structure_design/SSSP/s_pbe_v1.4.uspp.F.UPF
     MD5 check sum: 88d86576ff6df21479756cfb9bdac1df
     Pseudo is Ultrasoft + core correction, Zval =  6.0
     Generated by new atomic code, or converted to UPF format
     Using radial grid of  907 points,  6 beta functions with: 
                l(1) =   0
                l(2) =   0
                l(3) =   1
                l(4) =   1
                l(5) =   2
                l(6) =   2
     Q(r) pseudized with  8 coefficients,  rinner =    1.300   1.300   1.300
                                                       1.300   1.300

     atomic species   valence    mass     pseudopotential
        Rb             9.00    85.46780     Rb( 1.00)
        Au            19.00   196.96657     Au( 1.00)
        S              6.00    32.06000     S ( 1.00)

      4 Sym. Ops., with inversion, found ( 2 have fractional translation)


                                    s                        frac. trans.

      isym =  1     identity                                     

 cryst.   s( 1) = (     1          0          0      )
                  (     0          1          0      )
                  (     0          0          1      )

 cart.    s( 1) = (  1.0000000 -0.0000000  0.0000000 )
                  (  0.0000000  1.0000000  0.0000000 )
                  (  0.0000000  0.0000000  1.0000000 )


      isym =  2     180 deg rotation - cart. axis [0,0,1]        

 cryst.   s( 2) = (    -1          0          0      )    f =(  0.0000000 )
                  (     0         -1          0      )       (  0.0000000 )
                  (     0          0          1      )       (  0.5000000 )

 cart.    s( 2) = ( -1.0000000  0.0000000  0.0000000 )    f =(  0.0000000 )
                  (  0.0000000 -1.0000000  0.0000000 )       (  0.0000000 )
                  (  0.0000000  0.0000000  1.0000000 )       (  0.6703999 )


      isym =  3     inversion                                    

 cryst.   s( 3) = (    -1          0          0      )
                  (     0         -1          0      )
                  (     0          0         -1      )

 cart.    s( 3) = ( -1.0000000  0.0000000  0.0000000 )
                  (  0.0000000 -1.0000000  0.0000000 )
                  (  0.0000000  0.0000000 -1.0000000 )


      isym =  4     inv. 180 deg rotation - cart. axis [0,0,1]   

 cryst.   s( 4) = (     1          0          0      )    f =(  0.0000000 )
                  (     0          1          0      )       (  0.0000000 )
                  (     0          0         -1      )       ( -0.5000000 )

 cart.    s( 4) = (  1.0000000 -0.0000000  0.0000000 )    f =(  0.0000000 )
                  (  0.0000000  1.0000000  0.0000000 )       (  0.0000000 )
                  (  0.0000000  0.0000000 -1.0000000 )       ( -0.6703999 )


   Cartesian axes

     site n.     atom                  positions (alat units)
         1           Rb  tau(   1) = (   0.5535548   0.3687964   0.3352000  )
         2           Rb  tau(   2) = (   0.2576651   0.6132230   1.0055999  )
         3           Au  tau(   3) = (   0.0000000   0.0000000   0.0000000  )
         4           Au  tau(   4) = (   0.0000000   0.0000000   0.6703999  )
         5           S   tau(   5) = (   0.0326706   0.7990849   0.3352000  )
         6           S   tau(   6) = (   0.7785493   0.1829345   1.0055999  )

   Crystallographic axes

     site n.     atom                  positions (cryst. coord.)
         1           Rb  tau(   1) = (  0.6244510  0.3755490  0.2500000  )
         2           Rb  tau(   2) = (  0.3755490  0.6244510  0.7500000  )
         3           Au  tau(   3) = (  0.0000000  0.0000000  0.0000000  )
         4           Au  tau(   4) = (  0.0000000  0.0000000  0.5000000  )
         5           S   tau(   5) = (  0.1862840  0.8137160  0.2500000  )
         6           S   tau(   6) = (  0.8137160  0.1862840  0.7500000  )

     number of k points=    10
                       cart. coord. in units 2pi/alat
        k(    1) = (   0.0000000   0.0000000   0.0000000), wk =   0.0740741
        k(    2) = (   0.0000000   0.0000000   0.2486078), wk =   0.1481481
        k(    3) = (   0.0000000   0.3394366   0.0000000), wk =   0.1481481
        k(    4) = (   0.0000000   0.3394366   0.2486078), wk =   0.2962963
        k(    5) = (   0.3333333   0.0640789   0.0000000), wk =   0.1481481
        k(    6) = (   0.3333333   0.0640789   0.2486078), wk =   0.2962963
        k(    7) = (   0.3333333   0.4035155   0.0000000), wk =   0.1481481
        k(    8) = (   0.3333333   0.4035155   0.2486078), wk =   0.2962963
        k(    9) = (   0.3333333  -0.2753577   0.0000000), wk =   0.1481481
        k(   10) = (   0.3333333  -0.2753577   0.2486078), wk =   0.2962963

                       cryst. coord.
        k(    1) = (   0.0000000   0.0000000   0.0000000), wk =   0.0740741
        k(    2) = (   0.0000000   0.0000000   0.3333333), wk =   0.1481481
        k(    3) = (   0.0000000   0.3333333   0.0000000), wk =   0.1481481
        k(    4) = (   0.0000000   0.3333333   0.3333333), wk =   0.2962963
        k(    5) = (   0.3333333   0.0000000   0.0000000), wk =   0.1481481
        k(    6) = (   0.3333333   0.0000000   0.3333333), wk =   0.2962963
        k(    7) = (   0.3333333   0.3333333   0.0000000), wk =   0.1481481
        k(    8) = (   0.3333333   0.3333333   0.3333333), wk =   0.2962963
        k(    9) = (   0.3333333  -0.3333333   0.0000000), wk =   0.1481481
        k(   10) = (   0.3333333  -0.3333333   0.3333333), wk =   0.2962963

     Dense  grid:    82791 G-vectors     FFT dimensions: (  50,  50,  72)

     Smooth grid:    29231 G-vectors     FFT dimensions: (  36,  36,  48)

     Dynamical RAM for                 wfc:       0.89 MB

     Dynamical RAM for     wfc (w. buffer):       5.36 MB

     Dynamical RAM for           str. fact:       0.95 MB

     Dynamical RAM for           local pot:       0.00 MB

     Dynamical RAM for          nlocal pot:       1.90 MB

     Dynamical RAM for                qrad:       8.96 MB

     Dynamical RAM for          rho,v,vnew:       1.98 MB

     Dynamical RAM for               rhoin:       0.66 MB

     Dynamical RAM for            rho*nmix:       5.05 MB

     Dynamical RAM for           G-vectors:       1.24 MB

     Dynamical RAM for          h,s,v(r/c):       0.19 MB

     Dynamical RAM for          <psi|beta>:       0.13 MB

     Dynamical RAM for                 psi:       1.79 MB

     Dynamical RAM for                hpsi:       1.79 MB

     Dynamical RAM for                spsi:       1.79 MB

     Dynamical RAM for      wfcinit/wfcrot:       1.88 MB

     Dynamical RAM for           addusdens:      31.74 MB

     Estimated static dynamical RAM per process >      24.01 MB

     Estimated max dynamical RAM per process >      60.81 MB

     Estimated total dynamical RAM >     466.25 MB

     Initial potential from superposition of free atoms

     starting charge      67.9502, renormalised to      68.0000
     Starting wfcs are   38 randomized atomic wfcs +   26 random wfcs

     total cpu time spent up to now is        2.5 secs

     Self-consistent Calculation

     iteration #  1     ecut=    30.00 Ry     beta= 0.70
     Davidson diagonalization with overlap

---- Real-time Memory Report at c_bands before calling an iterative solver
           173 MiB given to the printing process from OS
             0 MiB allocation reported by mallinfo(arena+hblkhd)
         52762 MiB available memory on the node where the printing process lives
------------------
     ethr =  1.00E-02,  avg # of iterations =  7.9

     Threshold (ethr) on eigenvalues was too large:
     Diagonalizing with lowered threshold

     Davidson diagonalization with overlap

---- Real-time Memory Report at c_bands before calling an iterative solver
           215 MiB given to the printing process from OS
             0 MiB allocation reported by mallinfo(arena+hblkhd)
         52831 MiB available memory on the node where the printing process lives
------------------
     ethr =  2.75E-04,  avg # of iterations =  2.0

     total cpu time spent up to now is        4.9 secs

     total energy              =    -695.40793643 Ry
     estimated scf accuracy    <       0.18494549 Ry

     iteration #  2     ecut=    30.00 Ry     beta= 0.70
     Davidson diagonalization with overlap

---- Real-time Memory Report at c_bands before calling an iterative solver
           219 MiB given to the printing process from OS
             0 MiB allocation reported by mallinfo(arena+hblkhd)
         52778 MiB available memory on the node where the printing process lives
------------------
     ethr =  2.72E-04,  avg # of iterations =  4.4

     total cpu time spent up to now is        5.6 secs

     total energy              =    -695.44461047 Ry
     estimated scf accuracy    <       0.06601856 Ry

     iteration #  3     ecut=    30.00 Ry     beta= 0.70
     Davidson diagonalization with overlap

---- Real-time Memory Report at c_bands before calling an iterative solver
           225 MiB given to the printing process from OS
             0 MiB allocation reported by mallinfo(arena+hblkhd)
         52722 MiB available memory on the node where the printing process lives
------------------
     ethr =  9.71E-05,  avg # of iterations =  3.2

     total cpu time spent up to now is        6.2 secs

     total energy              =    -695.46033023 Ry
     estimated scf accuracy    <       0.00340059 Ry

     iteration #  4     ecut=    30.00 Ry     beta= 0.70
     Davidson diagonalization with overlap

---- Real-time Memory Report at c_bands before calling an iterative solver
           226 MiB given to the printing process from OS
             0 MiB allocation reported by mallinfo(arena+hblkhd)
         52621 MiB available memory on the node where the printing process lives
------------------
     ethr =  5.00E-06,  avg # of iterations =  9.2

     total cpu time spent up to now is        7.0 secs

     total energy              =    -695.46091978 Ry
     estimated scf accuracy    <       0.00172016 Ry

     iteration #  5     ecut=    30.00 Ry     beta= 0.70
     Davidson diagonalization with overlap

---- Real-time Memory Report at c_bands before calling an iterative solver
           228 MiB given to the printing process from OS
             0 MiB allocation reported by mallinfo(arena+hblkhd)
         52459 MiB available memory on the node where the printing process lives
------------------
     ethr =  2.53E-06,  avg # of iterations =  2.0

     total cpu time spent up to now is        7.6 secs

     total energy              =    -695.46129661 Ry
     estimated scf accuracy    <       0.00001624 Ry

     iteration #  6     ecut=    30.00 Ry     beta= 0.70
     Davidson diagonalization with overlap

---- Real-time Memory Report at c_bands before calling an iterative solver
           228 MiB given to the printing process from OS
             0 MiB allocation reported by mallinfo(arena+hblkhd)
         52285 MiB available memory on the node where the printing process lives
------------------
     ethr =  2.39E-08,  avg # of iterations =  2.0

     total cpu time spent up to now is        8.1 secs

     End of self-consistent calculation

          k = 0.0000 0.0000 0.0000 (  3645 PWs)   bands (ev):

   -99.8565 -99.8564 -51.1714 -51.1656 -50.7690 -50.7645 -50.7197 -50.7184
   -21.0367 -21.0141  -6.9483  -6.1151  -5.3816  -5.1710  -5.0870  -5.0847
    -5.0702  -5.0601  -0.2967   0.7547   1.4846   2.1025   2.4607   2.5450
     2.6699   2.7629   2.9506   3.0217   3.3445   3.5377   3.6519   4.0617
     4.2138   5.5850   7.7918   7.9304   8.4748  10.0417  10.2841  11.1620
    11.6308  11.6715  11.7893  12.1670  12.1772  12.2497  12.4883  13.8585
    13.9193  14.1040  14.8647  15.5749  15.9997  16.3862  16.5599  16.5933
    16.7629  17.0690  17.2421  17.2691  18.0283  18.1474  18.7888  19.5470

     occupation numbers 
     1.0000   1.0000   1.0000   1.0000   1.0000   1.0000   1.0000   1.0000
     1.0000   1.0000   1.0000   1.0000   1.0000   1.0000   1.0000   1.0000
     1.0000   1.0000   1.0000   1.0000   1.0000   1.0000   1.0000   1.0000
     1.0000   1.0000   1.0000   1.0000   1.0000   1.0000   1.0000   1.0000
     1.0000   1.0000   0.0000   0.0000   0.0000   0.0000   0.0000   0.0000
     0.0000   0.0000   0.0000   0.0000   0.0000   0.0000   0.0000   0.0000
     0.0000   0.0000   0.0000   0.0000   0.0000   0.0000   0.0000   0.0000
     0.0000   0.0000   0.0000   0.0000   0.0000   0.0000   0.0000   0.0000

          k = 0.0000 0.0000 0.2486 (  3660 PWs)   bands (ev):

   -99.8565 -99.8564 -51.1712 -51.1673 -50.7690 -50.7659 -50.7200 -50.7185
   -21.0310 -21.0197  -6.7729  -6.3691  -5.2923  -5.2113  -5.1028  -5.0888
    -5.0675  -5.0625   0.1876   0.9122   1.6575   1.6623   1.9390   2.1213
     2.7358   2.7428   2.8815   2.9026   2.9373   3.3524   4.3390   4.4232
     4.6926   5.3424   8.3893   8.6022   8.7575   9.2020   9.5848  10.5789
    11.1489  11.1554  12.2083  12.2088  12.3310  12.4150  13.4193  14.0977
    14.1131  14.3416  14.3748  15.0158  15.6938  15.9348  16.6693  16.7290
    16.8737  17.1848  17.6730  17.8989  18.0351  18.7524  19.1108  19.4381

     occupation numbers 
     1.0000   1.0000   1.0000   1.0000   1.0000   1.0000   1.0000   1.0000
     1.0000   1.0000   1.0000   1.0000   1.0000   1.0000   1.0000   1.0000
     1.0000   1.0000   1.0000   1.0000   1.0000   1.0000   1.0000   1.0000
     1.0000   1.0000   1.0000   1.0000   1.0000   1.0000   1.0000   1.0000
     1.0000   1.0000   0.0000   0.0000   0.0000   0.0000   0.0000   0.0000
     0.0000   0.0000   0.0000   0.0000   0.0000   0.0000   0.0000   0.0000
     0.0000   0.0000   0.0000   0.0000   0.0000   0.0000   0.0000   0.0000
     0.0000   0.0000   0.0000   0.0000   0.0000   0.0000   0.0000   0.0000

          k = 0.0000 0.3394 0.0000 (  3658 PWs)   bands (ev):

   -99.8565 -99.8564 -51.1715 -51.1663 -50.7687 -50.7654 -50.7205 -50.7190
   -21.0353 -21.0141  -6.9965  -6.2103  -5.3575  -5.1709  -5.1100  -5.1013
    -4.9941  -4.9108  -0.2872   0.7580   1.3871   2.2174   2.4884   2.5642
     2.7096   2.7458   2.9372   3.0278   3.2037   3.2646   3.5587   3.8433
     4.0899   5.5448   8.1591   8.6098   9.3899   9.4018  10.0726  11.1638
    11.1844  11.6697  12.1707  12.8976  12.9085  13.1584  13.2193  13.2734
    13.6737  13.9145  14.4311  14.7416  15.0919  15.4885  16.0060  16.4034
    16.4736  16.9262  17.6930  17.9180  18.1765  18.2330  19.0699  19.5880

     occupation numbers 
     1.0000   1.0000   1.0000   1.0000   1.0000   1.0000   1.0000   1.0000
     1.0000   1.0000   1.0000   1.0000   1.0000   1.0000   1.0000   1.0000
     1.0000   1.0000   1.0000   1.0000   1.0000   1.0000   1.0000   1.0000
     1.0000   1.0000   1.0000   1.0000   1.0000   1.0000   1.0000   1.0000
     1.0000   1.0000   0.0000   0.0000   0.0000   0.0000   0.0000   0.0000
     0.0000   0.0000   0.0000   0.0000   0.0000   0.0000   0.0000   0.0000
     0.0000   0.0000   0.0000   0.0000   0.0000   0.0000   0.0000   0.0000
     0.0000   0.0000   0.0000   0.0000   0.0000   0.0000   0.0000   0.0000

          k = 0.0000 0.3394 0.2486 (  3659 PWs)   bands (ev):

   -99.8565 -99.8564 -51.1706 -51.1668 -50.7682 -50.7657 -50.7202 -50.7195
   -21.0300 -21.0194  -6.8283  -6.4427  -5.2977  -5.2160  -5.1068  -5.0890
    -4.9779  -4.9363   0.1675   0.8835   1.5611   1.6610   1.9434   2.0637
     2.7276   2.7835   2.8706   2.9260   3.0348   3.2910   4.2868   4.3715
     4.4121   5.1954   8.3228   8.7877   9.2664   9.4926   9.8963  10.5954
    11.1760  11.4727  12.4194  12.9131  12.9933  13.0661  13.3538  13.5330
    13.7713  13.8207  14.0997  14.9374  15.4140  15.5364  15.7752  16.3529
    16.7237  17.2334  17.3710  17.6534  17.9187  18.3962  19.1975  19.4972

     occupation numbers 
     1.0000   1.0000   1.0000   1.0000   1.0000   1.0000   1.0000   1.0000
     1.0000   1.0000   1.0000   1.0000   1.0000   1.0000   1.0000   1.0000
     1.0000   1.0000   1.0000   1.0000   1.0000   1.0000   1.0000   1.0000
     1.0000   1.0000   1.0000   1.0000   1.0000   1.0000   1.0000   1.0000
     1.0000   1.0000   0.0000   0.0000   0.0000   0.0000   0.0000   0.0000
     0.0000   0.0000   0.0000   0.0000   0.0000   0.0000   0.0000   0.0000
     0.0000   0.0000   0.0000   0.0000   0.0000   0.0000   0.0000   0.0000
     0.0000   0.0000   0.0000   0.0000   0.0000   0.0000   0.0000   0.0000

          k = 0.3333 0.0641 0.0000 (  3658 PWs)   bands (ev):

   -99.8565 -99.8564 -51.1715 -51.1663 -50.7687 -50.7654 -50.7205 -50.7190
   -21.0353 -21.0141  -6.9965  -6.2103  -5.3575  -5.1709  -5.1100  -5.1013
    -4.9941  -4.9108  -0.2872   0.7580   1.3871   2.2174   2.4884   2.5642
     2.7096   2.7458   2.9372   3.0278   3.2037   3.2646   3.5587   3.8433
     4.0899   5.5448   8.1591   8.6098   9.3899   9.4018  10.0726  11.1638
    11.1844  11.6697  12.1707  12.8976  12.9085  13.1584  13.2193  13.2734
    13.6737  13.9145  14.4311  14.7416  15.0919  15.4885  16.0060  16.4034
    16.4736  16.9262  17.6930  17.9180  18.1765  18.2330  19.0699  19.5882

     occupation numbers 
     1.0000   1.0000   1.0000   1.0000   1.0000   1.0000   1.0000   1.0000
     1.0000   1.0000   1.0000   1.0000   1.0000   1.0000   1.0000   1.0000
     1.0000   1.0000   1.0000   1.0000   1.0000   1.0000   1.0000   1.0000
     1.0000   1.0000   1.0000   1.0000   1.0000   1.0000   1.0000   1.0000
     1.0000   1.0000   0.0000   0.0000   0.0000   0.0000   0.0000   0.0000
     0.0000   0.0000   0.0000   0.0000   0.0000   0.0000   0.0000   0.0000
     0.0000   0.0000   0.0000   0.0000   0.0000   0.0000   0.0000   0.0000
     0.0000   0.0000   0.0000   0.0000   0.0000   0.0000   0.0000   0.0000

          k = 0.3333 0.0641 0.2486 (  3659 PWs)   bands (ev):

   -99.8565 -99.8564 -51.1706 -51.1668 -50.7682 -50.7657 -50.7202 -50.7195
   -21.0300 -21.0194  -6.8283  -6.4427  -5.2977  -5.2160  -5.1068  -5.0890
    -4.9779  -4.9363   0.1675   0.8835   1.5611   1.6610   1.9434   2.0637
     2.7276   2.7835   2.8706   2.9260   3.0348   3.2910   4.2868   4.3715
     4.4121   5.1954   8.3228   8.7877   9.2664   9.4926   9.8963  10.5953
    11.1760  11.4727  12.4194  12.9131  12.9933  13.0661  13.3538  13.5330
    13.7713  13.8207  14.0997  14.9374  15.4140  15.5364  15.7752  16.3529
    16.7237  17.2334  17.3710  17.6534  17.9187  18.3962  19.1975  19.4972

     occupation numbers 
     1.0000   1.0000   1.0000   1.0000   1.0000   1.0000   1.0000   1.0000
     1.0000   1.0000   1.0000   1.0000   1.0000   1.0000   1.0000   1.0000
     1.0000   1.0000   1.0000   1.0000   1.0000   1.0000   1.0000   1.0000
     1.0000   1.0000   1.0000   1.0000   1.0000   1.0000   1.0000   1.0000
     1.0000   1.0000   0.0000   0.0000   0.0000   0.0000   0.0000   0.0000
     0.0000   0.0000   0.0000   0.0000   0.0000   0.0000   0.0000   0.0000
     0.0000   0.0000   0.0000   0.0000   0.0000   0.0000   0.0000   0.0000
     0.0000   0.0000   0.0000   0.0000   0.0000   0.0000   0.0000   0.0000

          k = 0.3333 0.4035 0.0000 (  3677 PWs)   bands (ev):

   -99.8565 -99.8564 -51.1728 -51.1667 -50.7696 -50.7660 -50.7208 -50.7194
   -21.0342 -21.0140  -6.9645  -6.2417  -5.3443  -5.2077  -5.1202  -5.1067
    -5.0170  -4.8933  -0.2606   0.7496   1.3939   2.2640   2.5135   2.5758
     2.7480   2.7504   2.9598   2.9879   3.1858   3.3921   3.4320   3.6378
     4.1445   5.5324   8.4391   8.5472   8.7117   9.5503  10.1381  10.9759
    11.3269  11.9806  12.6893  12.8876  13.0428  13.1526  13.2918  13.6420
    14.0934  14.2002  14.7209  14.8377  15.3213  15.3531  15.8995  15.9752
    16.1284  17.3197  17.3406  17.3880  17.7408  18.3912  18.4860  18.7389

     occupation numbers 
     1.0000   1.0000   1.0000   1.0000   1.0000   1.0000   1.0000   1.0000
     1.0000   1.0000   1.0000   1.0000   1.0000   1.0000   1.0000   1.0000
     1.0000   1.0000   1.0000   1.0000   1.0000   1.0000   1.0000   1.0000
     1.0000   1.0000   1.0000   1.0000   1.0000   1.0000   1.0000   1.0000
     1.0000   1.0000   0.0000   0.0000   0.0000   0.0000   0.0000   0.0000
     0.0000   0.0000   0.0000   0.0000   0.0000   0.0000   0.0000   0.0000
     0.0000   0.0000   0.0000   0.0000   0.0000   0.0000   0.0000   0.0000
     0.0000   0.0000   0.0000   0.0000   0.0000   0.0000   0.0000   0.0000

          k = 0.3333 0.4035 0.2486 (  3659 PWs)   bands (ev):

   -99.8565 -99.8564 -51.1705 -51.1677 -50.7682 -50.7665 -50.7185 -50.7184
   -21.0291 -21.0190  -6.8029  -6.4466  -5.2926  -5.2494  -5.1236  -5.0976
    -4.9937  -4.9360   0.1827   0.8749   1.5873   1.6392   1.9637   2.0793
     2.7169   2.8369   2.8911   2.9401   3.1491   3.3658   4.1104   4.3117
     4.3909   5.1374   8.2897   8.7558   9.2386   9.2497   9.6306  10.5536
    11.9103  11.9945  12.5650  12.7443  13.0217  13.1761  13.4520  13.6946
    14.1279  14.4009  14.4987  14.7596  15.2858  15.5497  15.8779  16.1186
    16.5759  16.6216  17.4845  17.6067  18.1640  18.2936  18.3948  19.1769

     occupation numbers 
     1.0000   1.0000   1.0000   1.0000   1.0000   1.0000   1.0000   1.0000
     1.0000   1.0000   1.0000   1.0000   1.0000   1.0000   1.0000   1.0000
     1.0000   1.0000   1.0000   1.0000   1.0000   1.0000   1.0000   1.0000
     1.0000   1.0000   1.0000   1.0000   1.0000   1.0000   1.0000   1.0000
     1.0000   1.0000   0.0000   0.0000   0.0000   0.0000   0.0000   0.0000
     0.0000   0.0000   0.0000   0.0000   0.0000   0.0000   0.0000   0.0000
     0.0000   0.0000   0.0000   0.0000   0.0000   0.0000   0.0000   0.0000
     0.0000   0.0000   0.0000   0.0000   0.0000   0.0000   0.0000   0.0000

          k = 0.3333-0.2754 0.0000 (  3654 PWs)   bands (ev):

   -99.8565 -99.8564 -51.1711 -51.1661 -50.7679 -50.7655 -50.7197 -50.7180
   -21.0342 -21.0141  -6.9281  -6.1390  -5.3428  -5.1866  -5.1184  -5.1106
    -5.1012  -5.0571  -0.2584   0.7637   1.5111   2.3086   2.5096   2.5756
     2.6854   2.7665   2.9716   3.0354   3.1883   3.1897   3.5082   3.8484
     4.1938   5.6874   8.5641   8.6021   9.2938   9.4549   9.9156  10.2117
    11.3074  11.7111  12.0928  12.1581  12.3909  12.6628  13.6024  13.7454
    14.1573  14.2981  14.4255  15.4715  15.8921  16.2185  16.3791  16.4622
    16.6531  16.8910  16.9739  17.5541  17.6473  18.0823  18.3279  18.7890

     occupation numbers 
     1.0000   1.0000   1.0000   1.0000   1.0000   1.0000   1.0000   1.0000
     1.0000   1.0000   1.0000   1.0000   1.0000   1.0000   1.0000   1.0000
     1.0000   1.0000   1.0000   1.0000   1.0000   1.0000   1.0000   1.0000
     1.0000   1.0000   1.0000   1.0000   1.0000   1.0000   1.0000   1.0000
     1.0000   1.0000   0.0000   0.0000   0.0000   0.0000   0.0000   0.0000
     0.0000   0.0000   0.0000   0.0000   0.0000   0.0000   0.0000   0.0000
     0.0000   0.0000   0.0000   0.0000   0.0000   0.0000   0.0000   0.0000
     0.0000   0.0000   0.0000   0.0000   0.0000   0.0000   0.0000   0.0000

          k = 0.3333-0.2754 0.2486 (  3646 PWs)   bands (ev):

   -99.8565 -99.8564 -51.1698 -51.1668 -50.7674 -50.7655 -50.7187 -50.7182
   -21.0292 -21.0191  -6.7588  -6.3717  -5.2953  -5.2242  -5.1068  -5.1031
    -5.0925  -5.0725   0.1737   0.8712   1.6469   1.6854   1.9677   2.1485
     2.7138   2.8287   2.8785   2.9421   3.1284   3.3256   4.2041   4.3918
     4.4709   5.2365   8.2623   8.9455   9.0061   9.6751   9.8724  10.6040
    10.9165  11.6769  12.2809  12.2989  12.5268  12.7724  13.2365  13.2814
    13.9871  14.2723  15.0666  15.0914  15.3933  15.7408  16.3201  16.4113
    16.9226  16.9410  17.2126  17.5720  18.2771  18.3795  19.1007  19.2509

     occupation numbers 
     1.0000   1.0000   1.0000   1.0000   1.0000   1.0000   1.0000   1.0000
     1.0000   1.0000   1.0000   1.0000   1.0000   1.0000   1.0000   1.0000
     1.0000   1.0000   1.0000   1.0000   1.0000   1.0000   1.0000   1.0000
     1.0000   1.0000   1.0000   1.0000   1.0000   1.0000   1.0000   1.0000
     1.0000   1.0000   0.0000   0.0000   0.0000   0.0000   0.0000   0.0000
     0.0000   0.0000   0.0000   0.0000   0.0000   0.0000   0.0000   0.0000
     0.0000   0.0000   0.0000   0.0000   0.0000   0.0000   0.0000   0.0000
     0.0000   0.0000   0.0000   0.0000   0.0000   0.0000   0.0000   0.0000

     highest occupied, lowest unoccupied level (ev):     5.6874    7.7918

!    total energy              =    -695.46130028 Ry
     estimated scf accuracy    <       0.00000067 Ry

     The total energy is the sum of the following terms:
     one-electron contribution =    -472.53493357 Ry
     hartree contribution      =     244.97963748 Ry
     xc contribution           =     -82.46800353 Ry
     ewald contribution        =    -385.43800067 Ry

     convergence has been achieved in   6 iterations

     Writing all to output data dir calculations_bands/myprefix.save/
 
     init_run     :      5.58s CPU      2.17s WALL (       1 calls)
     electrons    :     20.15s CPU      5.56s WALL (       1 calls)

     Called by init_run:
     wfcinit      :      1.26s CPU      0.38s WALL (       1 calls)
     wfcinit:atom :      0.00s CPU      0.00s WALL (       5 calls)
     wfcinit:wfcr :      1.23s CPU      0.37s WALL (       5 calls)
     potinit      :      1.51s CPU      0.53s WALL (       1 calls)
     hinit0       :      2.36s CPU      1.10s WALL (       1 calls)

     Called by electrons:
     c_bands      :     16.04s CPU      4.40s WALL (       7 calls)
     sum_band     :      2.71s CPU      0.75s WALL (       7 calls)
     v_of_rho     :      0.46s CPU      0.13s WALL (       7 calls)
     v_h          :      0.03s CPU      0.01s WALL (       7 calls)
     v_xc         :      0.42s CPU      0.12s WALL (       7 calls)
     newd         :      1.22s CPU      0.36s WALL (       7 calls)
     mix_rho      :      0.08s CPU      0.02s WALL (       7 calls)

     Called by c_bands:
     init_us_2    :      0.09s CPU      0.03s WALL (      75 calls)
     init_us_2:cp :      0.09s CPU      0.02s WALL (      75 calls)
     cegterg      :     13.89s CPU      3.81s WALL (      35 calls)

     Called by sum_band:
     sum_band:wei :      0.01s CPU      0.00s WALL (       7 calls)
     sum_band:loo :      1.77s CPU      0.46s WALL (       7 calls)
     sum_band:buf :      0.02s CPU      0.01s WALL (      35 calls)
     sum_band:ini :      0.04s CPU      0.01s WALL (      35 calls)
     sum_band:cal :      0.11s CPU      0.03s WALL (      35 calls)
     sum_band:bec :      0.01s CPU      0.00s WALL (      35 calls)
     addusdens    :      0.57s CPU      0.19s WALL (       7 calls)
     addusd:skk   :      0.00s CPU      0.00s WALL (       7 calls)
     addusd:dgemm :      0.05s CPU      0.05s WALL (       7 calls)
     addusd:qvan2 :      0.27s CPU      0.07s WALL (       7 calls)

     Called by *egterg:
     cdiaghg      :      2.97s CPU      0.81s WALL (     181 calls)
     cegterg:over :      0.83s CPU      0.23s WALL (     151 calls)
     cegterg:upda :      0.35s CPU      0.10s WALL (     151 calls)
     cegterg:last :      0.51s CPU      0.14s WALL (      75 calls)
     cdiaghg:chol :      0.21s CPU      0.06s WALL (     181 calls)
     cdiaghg:inve :      0.04s CPU      0.01s WALL (     181 calls)
     cdiaghg:para :      0.53s CPU      0.14s WALL (     362 calls)
     h_psi        :      9.68s CPU      2.68s WALL (     191 calls)
     s_psi        :      0.16s CPU      0.04s WALL (     191 calls)
     g_psi        :      0.02s CPU      0.00s WALL (     151 calls)

     Called by h_psi:
     h_psi:calbec :      0.44s CPU      0.12s WALL (     191 calls)
     vloc_psi     :      8.95s CPU      2.48s WALL (     191 calls)
     add_vuspsi   :      0.24s CPU      0.07s WALL (     191 calls)

     General routines
     calbec       :      0.55s CPU      0.15s WALL (     226 calls)
     fft          :      1.73s CPU      0.56s WALL (      90 calls)
     ffts         :      0.94s CPU      0.32s WALL (      14 calls)
     fftw         :      9.29s CPU      2.55s WALL (   14164 calls)
     interpolate  :      0.96s CPU      0.32s WALL (       7 calls)
 
     Parallel routines
 
     PWSCF        :     27.31s CPU      8.53s WALL

 
   This run was terminated on:   5:10:13   7Jun2023            

=------------------------------------------------------------------------------=
   JOB DONE.
=------------------------------------------------------------------------------=
