
     Program PWSCF v.7.0 starts on  5Jun2023 at 18:45:29 

     This program is part of the open-source Quantum ESPRESSO suite
     for quantum simulation of materials; please cite
         "P. Giannozzi et al., J. Phys.:Condens. Matter 21 395502 (2009);
         "P. Giannozzi et al., J. Phys.:Condens. Matter 29 465901 (2017);
         "P. Giannozzi et al., J. Chem. Phys. 152 154105 (2020);
          URL http://www.quantum-espresso.org", 
     in publications or presentations arising from this work. More details at
     http://www.quantum-espresso.org/quote

     Parallel version (MPI & OpenMP), running on      32 processor cores
     Number of MPI processes:                 8
     Threads/MPI process:                     4

     MPI processes distributed on     1 nodes
     K-points division:     npool     =       2
     R & G space division:  proc/nbgrp/npool/nimage =       4
     96581 MiB available memory on the printing compute node when the environment starts
 
     Reading input from espresso_11118.pwi
Warning: card &CELL ignored
Warning: card / ignored

     Current dimensions of program PWSCF are:
     Max number of different atomic species (ntypx) = 10
     Max number of k-points (npk) =  40000
     Max angular momentum in pseudopotentials (lmaxx) =  4
     Message from routine setup:
     using ibrav=0 with symmetry is DISCOURAGED, use correct ibrav instead

     Subspace diagonalization in iterative solution of the eigenvalue problem:
     one sub-group per band group will be used
     scalapack distributed-memory algorithm (size of sub-group:  2*  2 procs)

 
     Parallelization info
     --------------------
     sticks:   dense  smooth     PW     G-vecs:    dense   smooth      PW
     Min         348     171     49                16772     5917     953
     Max         349     172     50                16775     5922     958
     Sum        1393     685    199                67093    23679    3825
 
     Using Slab Decomposition
 


     bravais-lattice index     =            0
     lattice parameter (alat)  =       9.1537  a.u.
     unit-cell volume          =    1068.8879 (a.u.)^3
     number of atoms/cell      =            6
     number of atomic types    =            3
     number of electrons       =       116.00
     number of Kohn-Sham states=           64
     kinetic-energy cutoff     =      30.0000  Ry
     charge density cutoff     =     240.0000  Ry
     scf convergence threshold =      1.0E-06
     mixing beta               =       0.7000
     number of iterations used =            8  plain     mixing
     Exchange-correlation= PBE
                           (   1   4   3   4   0   0   0)

     celldm(1)=   9.153716  celldm(2)=   0.000000  celldm(3)=   0.000000
     celldm(4)=   0.000000  celldm(5)=   0.000000  celldm(6)=   0.000000

     crystal axes: (cart. coord. in units of alat)
               a(1) = (   1.000000   0.000000   0.000000 )  
               a(2) = (  -0.500000   0.866025   0.000000 )  
               a(3) = (   0.000000   0.000000   1.609197 )  

     reciprocal axes: (cart. coord. in units 2 pi/alat)
               b(1) = (  1.000000  0.577350  0.000000 )  
               b(2) = (  0.000000  1.154700  0.000000 )  
               b(3) = (  0.000000  0.000000  0.621428 )  


     PseudoPot. # 1 for Yb read from file:
     /home/pragov/projects/rrg-bengioy-ad/pragov/crystal_structure_design/SSSP/Yb.GGA-PBE-paw-v1.0.UPF
     MD5 check sum: 43b6465ad8021f06e3edb42ae292e187
     Pseudo is Projector augmented-wave + core cor, Zval = 24.0
     Generated using ATOMPAW code
     Shape of augmentation charge: BESSEL
     Using radial grid of 1117 points,  8 beta functions with: 
                l(1) =   0
                l(2) =   0
                l(3) =   1
                l(4) =   1
                l(5) =   2
                l(6) =   2
                l(7) =   3
                l(8) =   3
     Q(r) pseudized with 0 coefficients 


     PseudoPot. # 2 for Bi read from file:
     /home/pragov/projects/rrg-bengioy-ad/pragov/crystal_structure_design/SSSP/Bi_pbe_v1.uspp.F.UPF
     MD5 check sum: cceb9f28ec65b6d7ff33140f5b0b1758
     Pseudo is Ultrasoft + core correction, Zval = 15.0
     Generated by new atomic code, or converted to UPF format
     Using radial grid of  899 points,  6 beta functions with: 
                l(1) =   0
                l(2) =   0
                l(3) =   1
                l(4) =   1
                l(5) =   2
                l(6) =   2
     Q(r) pseudized with  6 coefficients,  rinner =    1.000   1.000   1.000
                                                       1.000   1.000

     PseudoPot. # 3 for Au read from file:
     /home/pragov/projects/rrg-bengioy-ad/pragov/crystal_structure_design/SSSP/Au_ONCV_PBE-1.0.oncvpsp.upf
     MD5 check sum: d14007822ba0e19f0206237467fc06c2
     Pseudo is Norm-conserving, Zval = 19.0
     Generated using ONCVPSP code by D. R. Hamann
     Using radial grid of 1278 points,  8 beta functions with: 
                l(1) =   0
                l(2) =   0
                l(3) =   1
                l(4) =   1
                l(5) =   2
                l(6) =   2
                l(7) =   3
                l(8) =   3

     atomic species   valence    mass     pseudopotential
        Yb            24.00   173.05400     Yb( 1.00)
        Bi            15.00   208.98040     Bi( 1.00)
        Au            19.00   196.96657     Au( 1.00)

     12 Sym. Ops. (no inversion) found ( 6 have fractional translation)


                                    s                        frac. trans.

      isym =  1     identity                                     

 cryst.   s( 1) = (     1          0          0      )
                  (     0          1          0      )
                  (     0          0          1      )

 cart.    s( 1) = (  1.0000000  0.0000000  0.0000000 )
                  (  0.0000000  1.0000000  0.0000000 )
                  (  0.0000000  0.0000000  1.0000000 )


      isym =  2     180 deg rotation - cart. axis [0,0,1]        

 cryst.   s( 2) = (    -1          0          0      )    f =(  0.0000000 )
                  (     0         -1          0      )       (  0.0000000 )
                  (     0          0          1      )       (  0.5000000 )

 cart.    s( 2) = ( -1.0000000 -0.0000000  0.0000000 )    f =(  0.0000000 )
                  (  0.0000000 -1.0000000  0.0000000 )       (  0.0000000 )
                  (  0.0000000  0.0000000  1.0000000 )       (  0.8045986 )


      isym =  3      60 deg rotation - cryst. axis [0,0,1]       

 cryst.   s( 3) = (     1          1          0      )    f =(  0.0000000 )
                  (    -1          0          0      )       (  0.0000000 )
                  (     0          0          1      )       (  0.5000000 )

 cart.    s( 3) = (  0.5000001 -0.8660254  0.0000000 )    f =(  0.0000000 )
                  (  0.8660254  0.4999999  0.0000000 )       (  0.0000000 )
                  (  0.0000000  0.0000000  1.0000000 )       (  0.8045986 )


      isym =  4      60 deg rotation - cryst. axis [0,0,-1]      

 cryst.   s( 4) = (     0         -1          0      )    f =(  0.0000000 )
                  (     1          1          0      )       (  0.0000000 )
                  (     0          0          1      )       (  0.5000000 )

 cart.    s( 4) = (  0.4999999  0.8660254  0.0000000 )    f =(  0.0000000 )
                  ( -0.8660254  0.5000001  0.0000000 )       (  0.0000000 )
                  (  0.0000000  0.0000000  1.0000000 )       (  0.8045986 )


      isym =  5     120 deg rotation - cryst. axis [0,0,1]       

 cryst.   s( 5) = (     0          1          0      )
                  (    -1         -1          0      )
                  (     0          0          1      )

 cart.    s( 5) = ( -0.4999999 -0.8660254  0.0000000 )
                  (  0.8660254 -0.5000001  0.0000000 )
                  (  0.0000000  0.0000000  1.0000000 )


      isym =  6     120 deg rotation - cryst. axis [0,0,-1]      

 cryst.   s( 6) = (    -1         -1          0      )
                  (     1          0          0      )
                  (     0          0          1      )

 cart.    s( 6) = ( -0.5000001  0.8660254  0.0000000 )
                  ( -0.8660254 -0.4999999  0.0000000 )
                  (  0.0000000  0.0000000  1.0000000 )


      isym =  7     inv. 180 deg rotation - cart. axis [0,1,0]   

 cryst.   s( 7) = (     1          0          0      )    f =(  0.0000000 )
                  (    -1         -1          0      )       (  0.0000000 )
                  (     0          0          1      )       (  0.5000000 )

 cart.    s( 7) = (  1.0000000 -0.0000001  0.0000000 )    f =(  0.0000000 )
                  (  0.0000000 -1.0000000  0.0000000 )       (  0.0000000 )
                  (  0.0000000  0.0000000  1.0000000 )       (  0.8045986 )


      isym =  8     inv. 180 deg rotation - cart. axis [1,0,0]   

 cryst.   s( 8) = (    -1          0          0      )
                  (     1          1          0      )
                  (     0          0          1      )

 cart.    s( 8) = ( -1.0000000  0.0000001  0.0000000 )
                  (  0.0000000  1.0000000  0.0000000 )
                  (  0.0000000  0.0000000  1.0000000 )


      isym =  9     inv. 180 deg rotation - cryst. axis [1,-1,0] 

 cryst.   s( 9) = (     0          1          0      )    f =(  0.0000000 )
                  (     1          0          0      )       (  0.0000000 )
                  (     0          0          1      )       (  0.5000000 )

 cart.    s( 9) = ( -0.4999999  0.8660254  0.0000000 )    f =(  0.0000000 )
                  (  0.8660254  0.4999999  0.0000000 )       (  0.0000000 )
                  (  0.0000000  0.0000000  1.0000000 )       (  0.8045986 )


      isym = 10     inv. 180 deg rotation - cryst. axis [2,1,0]  

 cryst.   s(10) = (    -1         -1          0      )    f =(  0.0000000 )
                  (     0          1          0      )       (  0.0000000 )
                  (     0          0          1      )       (  0.5000000 )

 cart.    s(10) = ( -0.5000001 -0.8660253  0.0000000 )    f =(  0.0000000 )
                  ( -0.8660254  0.5000001  0.0000000 )       (  0.0000000 )
                  (  0.0000000  0.0000000  1.0000000 )       (  0.8045986 )


      isym = 11     inv. 180 deg rotation - cryst. axis [0,1,0]  

 cryst.   s(11) = (     1          1          0      )
                  (     0         -1          0      )
                  (     0          0          1      )

 cart.    s(11) = (  0.5000001  0.8660253  0.0000000 )
                  (  0.8660254 -0.5000001  0.0000000 )
                  (  0.0000000  0.0000000  1.0000000 )


      isym = 12     inv. 180 deg rotation - cryst. axis [1,1,0]  

 cryst.   s(12) = (     0         -1          0      )
                  (    -1          0          0      )
                  (     0          0          1      )

 cart.    s(12) = (  0.4999999 -0.8660254  0.0000000 )
                  ( -0.8660254 -0.4999999  0.0000000 )
                  (  0.0000000  0.0000000  1.0000000 )


   Cartesian axes

     site n.     atom                  positions (alat units)
         1           Yb  tau(   1) = (   0.0000000   0.0000000   0.4195837  )
         2           Yb  tau(   2) = (   0.0000000   0.0000000   1.2241823  )
         3           Bi  tau(   3) = (  -0.0000005   0.5773506   0.0616837  )
         4           Bi  tau(   4) = (   0.5000005   0.2886749   0.8662824  )
         5           Au  tau(   5) = (  -0.0000005   0.5773506   0.6950557  )
         6           Au  tau(   6) = (   0.5000005   0.2886749   1.4996543  )

   Crystallographic axes

     site n.     atom                  positions (cryst. coord.)
         1           Yb  tau(   1) = (  0.0000000  0.0000000  0.2607410  )
         2           Yb  tau(   2) = (  0.0000000  0.0000000  0.7607410  )
         3           Bi  tau(   3) = (  0.3333330  0.6666670  0.0383320  )
         4           Bi  tau(   4) = (  0.6666670  0.3333330  0.5383320  )
         5           Au  tau(   5) = (  0.3333330  0.6666670  0.4319270  )
         6           Au  tau(   6) = (  0.6666670  0.3333330  0.9319270  )

     number of k points=     6
                       cart. coord. in units 2pi/alat
        k(    1) = (   0.0000000   0.0000000   0.0000000), wk =   0.0740741
        k(    2) = (   0.0000000   0.0000000   0.2071426), wk =   0.1481481
        k(    3) = (   0.0000000   0.3849002   0.0000000), wk =   0.4444444
        k(    4) = (   0.0000000   0.3849002   0.2071426), wk =   0.8888889
        k(    5) = (   0.3333333   0.5773502   0.0000000), wk =   0.1481481
        k(    6) = (   0.3333333   0.5773502   0.2071426), wk =   0.2962963

                       cryst. coord.
        k(    1) = (   0.0000000   0.0000000   0.0000000), wk =   0.0740741
        k(    2) = (   0.0000000   0.0000000   0.3333333), wk =   0.1481481
        k(    3) = (   0.0000000   0.3333333   0.0000000), wk =   0.4444444
        k(    4) = (   0.0000000   0.3333333   0.3333333), wk =   0.8888889
        k(    5) = (   0.3333333   0.3333333   0.0000000), wk =   0.1481481
        k(    6) = (   0.3333333   0.3333333   0.3333333), wk =   0.2962963

     Dense  grid:    67093 G-vectors     FFT dimensions: (  45,  45,  80)

     Smooth grid:    23679 G-vectors     FFT dimensions: (  32,  32,  54)

     Dynamical RAM for                 wfc:       0.72 MB

     Dynamical RAM for     wfc (w. buffer):       2.89 MB

     Dynamical RAM for           str. fact:       0.77 MB

     Dynamical RAM for           local pot:       0.00 MB

     Dynamical RAM for          nlocal pot:       1.85 MB

     Dynamical RAM for                qrad:       8.96 MB

     Dynamical RAM for          rho,v,vnew:       1.69 MB

     Dynamical RAM for               rhoin:       0.56 MB

     Dynamical RAM for            rho*nmix:       4.10 MB

     Dynamical RAM for           G-vectors:       1.01 MB

     Dynamical RAM for          h,s,v(r/c):       0.19 MB

     Dynamical RAM for          <psi|beta>:       0.16 MB

     Dynamical RAM for                 psi:       1.45 MB

     Dynamical RAM for                hpsi:       1.45 MB

     Dynamical RAM for                spsi:       1.45 MB

     Dynamical RAM for      wfcinit/wfcrot:       2.55 MB

     Dynamical RAM for           addusdens:      71.41 MB

     Estimated static dynamical RAM per process >      20.31 MB

     Estimated max dynamical RAM per process >      95.81 MB

     Estimated total dynamical RAM >     750.13 MB

     Check: negative core charge=   -0.000004

     Initial potential from superposition of free atoms

     starting charge     113.9917, renormalised to     116.0000

     negative rho (up, down):  8.978E-02 0.000E+00
     Starting wfcs are  102 randomized atomic wfcs
     Checking if some PAW data can be deallocated... 
       PAW data deallocated on    4 nodes for type:  1

     total cpu time spent up to now is        2.7 secs

     Self-consistent Calculation

     iteration #  1     ecut=    30.00 Ry     beta= 0.70
     Davidson diagonalization with overlap

---- Real-time Memory Report at c_bands before calling an iterative solver
           232 MiB given to the printing process from OS
             0 MiB allocation reported by mallinfo(arena+hblkhd)
         96143 MiB available memory on the node where the printing process lives
------------------
     ethr =  1.00E-02,  avg # of iterations =  3.0

     Threshold (ethr) on eigenvalues was too large:
     Diagonalizing with lowered threshold

     Davidson diagonalization with overlap

---- Real-time Memory Report at c_bands before calling an iterative solver
           244 MiB given to the printing process from OS
             0 MiB allocation reported by mallinfo(arena+hblkhd)
         96073 MiB available memory on the node where the printing process lives
------------------
     ethr =  5.31E-04,  avg # of iterations =  3.8

     negative rho (up, down):  9.170E-02 0.000E+00

     total cpu time spent up to now is        3.8 secs

     total energy              =   -2941.76718526 Ry
     estimated scf accuracy    <       0.74793953 Ry

     iteration #  2     ecut=    30.00 Ry     beta= 0.70
     Davidson diagonalization with overlap

---- Real-time Memory Report at c_bands before calling an iterative solver
           261 MiB given to the printing process from OS
             0 MiB allocation reported by mallinfo(arena+hblkhd)
         95997 MiB available memory on the node where the printing process lives
------------------
     ethr =  6.45E-04,  avg # of iterations =  2.7

     negative rho (up, down):  9.174E-02 0.000E+00

     total cpu time spent up to now is        4.7 secs

     total energy              =   -2941.76646820 Ry
     estimated scf accuracy    <       0.81146048 Ry

     iteration #  3     ecut=    30.00 Ry     beta= 0.70
     Davidson diagonalization with overlap

---- Real-time Memory Report at c_bands before calling an iterative solver
           270 MiB given to the printing process from OS
             0 MiB allocation reported by mallinfo(arena+hblkhd)
         95955 MiB available memory on the node where the printing process lives
------------------
     ethr =  6.45E-04,  avg # of iterations =  3.5

     negative rho (up, down):  9.183E-02 0.000E+00

     total cpu time spent up to now is        5.5 secs

     total energy              =   -2941.82688547 Ry
     estimated scf accuracy    <       8.07168255 Ry

     iteration #  4     ecut=    30.00 Ry     beta= 0.70
     Davidson diagonalization with overlap

---- Real-time Memory Report at c_bands before calling an iterative solver
           271 MiB given to the printing process from OS
             0 MiB allocation reported by mallinfo(arena+hblkhd)
         95945 MiB available memory on the node where the printing process lives
------------------
     ethr =  6.45E-04,  avg # of iterations =  1.8

     negative rho (up, down):  9.290E-02 0.000E+00

     total cpu time spent up to now is        6.2 secs

     total energy              =   -2942.01020508 Ry
     estimated scf accuracy    <       0.39228209 Ry

     iteration #  5     ecut=    30.00 Ry     beta= 0.70
     Davidson diagonalization with overlap

---- Real-time Memory Report at c_bands before calling an iterative solver
           271 MiB given to the printing process from OS
             0 MiB allocation reported by mallinfo(arena+hblkhd)
         95949 MiB available memory on the node where the printing process lives
------------------
     ethr =  3.38E-04,  avg # of iterations =  2.5

     negative rho (up, down):  9.307E-02 0.000E+00

     total cpu time spent up to now is        6.9 secs

     total energy              =   -2942.08067413 Ry
     estimated scf accuracy    <       0.03248707 Ry

     iteration #  6     ecut=    30.00 Ry     beta= 0.70
     Davidson diagonalization with overlap

---- Real-time Memory Report at c_bands before calling an iterative solver
           271 MiB given to the printing process from OS
             0 MiB allocation reported by mallinfo(arena+hblkhd)
         95947 MiB available memory on the node where the printing process lives
------------------
     ethr =  2.80E-05,  avg # of iterations =  5.7

     negative rho (up, down):  9.329E-02 0.000E+00

     total cpu time spent up to now is        7.7 secs

     total energy              =   -2942.08165633 Ry
     estimated scf accuracy    <       0.05496689 Ry

     iteration #  7     ecut=    30.00 Ry     beta= 0.70
     Davidson diagonalization with overlap

---- Real-time Memory Report at c_bands before calling an iterative solver
           271 MiB given to the printing process from OS
             0 MiB allocation reported by mallinfo(arena+hblkhd)
         95947 MiB available memory on the node where the printing process lives
------------------
     ethr =  2.80E-05,  avg # of iterations =  1.0

     negative rho (up, down):  9.345E-02 0.000E+00

     total cpu time spent up to now is        8.6 secs

     total energy              =   -2942.07822766 Ry
     estimated scf accuracy    <       0.03993140 Ry

     iteration #  8     ecut=    30.00 Ry     beta= 0.70
     Davidson diagonalization with overlap

---- Real-time Memory Report at c_bands before calling an iterative solver
           271 MiB given to the printing process from OS
             0 MiB allocation reported by mallinfo(arena+hblkhd)
         95948 MiB available memory on the node where the printing process lives
------------------
     ethr =  2.80E-05,  avg # of iterations =  1.5

     negative rho (up, down):  9.344E-02 0.000E+00

     total cpu time spent up to now is        9.2 secs

     total energy              =   -2942.07912537 Ry
     estimated scf accuracy    <       0.01027954 Ry

     iteration #  9     ecut=    30.00 Ry     beta= 0.70
     Davidson diagonalization with overlap

---- Real-time Memory Report at c_bands before calling an iterative solver
           271 MiB given to the printing process from OS
             0 MiB allocation reported by mallinfo(arena+hblkhd)
         95947 MiB available memory on the node where the printing process lives
------------------
     ethr =  8.86E-06,  avg # of iterations =  1.8

     negative rho (up, down):  9.338E-02 0.000E+00

     total cpu time spent up to now is        9.9 secs

     total energy              =   -2942.07871387 Ry
     estimated scf accuracy    <       0.00615478 Ry

     iteration # 10     ecut=    30.00 Ry     beta= 0.70
     Davidson diagonalization with overlap

---- Real-time Memory Report at c_bands before calling an iterative solver
           271 MiB given to the printing process from OS
             0 MiB allocation reported by mallinfo(arena+hblkhd)
         95946 MiB available memory on the node where the printing process lives
------------------
     ethr =  5.31E-06,  avg # of iterations =  7.5

     negative rho (up, down):  9.336E-02 0.000E+00

     total cpu time spent up to now is       10.7 secs

     total energy              =   -2942.07784220 Ry
     estimated scf accuracy    <       0.00630252 Ry

     iteration # 11     ecut=    30.00 Ry     beta= 0.70
     Davidson diagonalization with overlap

---- Real-time Memory Report at c_bands before calling an iterative solver
           271 MiB given to the printing process from OS
             0 MiB allocation reported by mallinfo(arena+hblkhd)
         95946 MiB available memory on the node where the printing process lives
------------------
     ethr =  5.31E-06,  avg # of iterations =  1.2

     negative rho (up, down):  9.334E-02 0.000E+00

     total cpu time spent up to now is       11.4 secs

     total energy              =   -2942.07779458 Ry
     estimated scf accuracy    <       0.00126858 Ry

     iteration # 12     ecut=    30.00 Ry     beta= 0.70
     Davidson diagonalization with overlap

---- Real-time Memory Report at c_bands before calling an iterative solver
           271 MiB given to the printing process from OS
             0 MiB allocation reported by mallinfo(arena+hblkhd)
         95948 MiB available memory on the node where the printing process lives
------------------
     ethr =  1.09E-06,  avg # of iterations =  1.7

     negative rho (up, down):  9.336E-02 0.000E+00

     total cpu time spent up to now is       12.1 secs

     total energy              =   -2942.07769849 Ry
     estimated scf accuracy    <       0.00051462 Ry

     iteration # 13     ecut=    30.00 Ry     beta= 0.70
     Davidson diagonalization with overlap

---- Real-time Memory Report at c_bands before calling an iterative solver
           271 MiB given to the printing process from OS
             0 MiB allocation reported by mallinfo(arena+hblkhd)
         95947 MiB available memory on the node where the printing process lives
------------------
     ethr =  4.44E-07,  avg # of iterations =  2.8

     negative rho (up, down):  9.336E-02 0.000E+00

     total cpu time spent up to now is       12.9 secs

     total energy              =   -2942.07779024 Ry
     estimated scf accuracy    <       0.00009164 Ry

     iteration # 14     ecut=    30.00 Ry     beta= 0.70
     Davidson diagonalization with overlap

---- Real-time Memory Report at c_bands before calling an iterative solver
           271 MiB given to the printing process from OS
             0 MiB allocation reported by mallinfo(arena+hblkhd)
         95947 MiB available memory on the node where the printing process lives
------------------
     ethr =  7.90E-08,  avg # of iterations =  3.8

     negative rho (up, down):  9.337E-02 0.000E+00

     total cpu time spent up to now is       13.8 secs

     total energy              =   -2942.07779472 Ry
     estimated scf accuracy    <       0.00001735 Ry

     iteration # 15     ecut=    30.00 Ry     beta= 0.70
     Davidson diagonalization with overlap

---- Real-time Memory Report at c_bands before calling an iterative solver
           271 MiB given to the printing process from OS
             0 MiB allocation reported by mallinfo(arena+hblkhd)
         95947 MiB available memory on the node where the printing process lives
------------------
     ethr =  1.50E-08,  avg # of iterations =  2.5

     negative rho (up, down):  9.337E-02 0.000E+00

     total cpu time spent up to now is       14.5 secs

     total energy              =   -2942.07779837 Ry
     estimated scf accuracy    <       0.00000476 Ry

     iteration # 16     ecut=    30.00 Ry     beta= 0.70
     Davidson diagonalization with overlap

---- Real-time Memory Report at c_bands before calling an iterative solver
           271 MiB given to the printing process from OS
             0 MiB allocation reported by mallinfo(arena+hblkhd)
         95950 MiB available memory on the node where the printing process lives
------------------
     ethr =  4.11E-09,  avg # of iterations =  2.7

     negative rho (up, down):  9.338E-02 0.000E+00

     total cpu time spent up to now is       15.2 secs

     End of self-consistent calculation

          k = 0.0000 0.0000 0.0000 (  2923 PWs)   bands (ev):

   -92.5482 -92.5481 -43.5931 -43.5931 -43.5907 -43.5907 -43.4921 -43.4892
   -37.6433 -37.6406 -10.0461  -9.9486  -9.9485  -9.9374  -9.9373  -9.9290
    -8.3788  -8.3788  -8.3720  -8.3720  -8.3685  -8.3669  -8.3551  -8.3550
    -8.3536  -8.3536   2.4217   3.1732   8.8413   9.0784   9.0784   9.1273
     9.1273   9.3946   9.7496   9.7496   9.9036   9.9036  10.2396  12.5889
    13.1081  13.1081  13.6669  13.8146  13.8147  13.9286  13.9939  13.9970
    13.9970  14.0350  14.0350  14.0459  14.0472  14.0472  14.1016  14.1040
    14.3711  14.9849  15.1736  15.1736  15.2889  15.8879  15.8880  16.5445

     occupation numbers 
     1.0000   1.0000   1.0000   1.0000   1.0000   1.0000   1.0000   1.0000
     1.0000   1.0000   1.0000   1.0000   1.0000   1.0000   1.0000   1.0000
     1.0000   1.0000   1.0000   1.0000   1.0000   1.0000   1.0000   1.0000
     1.0000   1.0000   1.0000   1.0000   1.0000   1.0000   1.0000   1.0000
     1.0000   1.0000   1.0000   1.0000   1.0000   1.0000   1.0000   1.0000
     1.0000   1.0000   1.0000   1.0000   1.0000   1.0000   1.0000   1.0000
     1.0000   1.0000   1.0000   1.0000   1.0000   1.0000   1.0000   1.0000
     1.0000   1.0000   0.0000   0.0000   0.0000   0.0000   0.0000   0.0000

          k = 0.0000 0.0000 0.2071 (  2924 PWs)   bands (ev):

   -92.5482 -92.5481 -43.5908 -43.5908 -43.5904 -43.5904 -43.4940 -43.4932
   -37.6426 -37.6413 -10.0172  -9.9587  -9.9458  -9.9457  -9.9402  -9.9401
    -8.3766  -8.3766  -8.3730  -8.3730  -8.3681  -8.3672  -8.3554  -8.3554
    -8.3545  -8.3545   2.5894   2.9623   8.9262   9.0966   9.0967   9.1224
     9.1225   9.2057   9.7795   9.7796   9.8569   9.8569  10.8150  11.9247
    13.3784  13.3785  13.7498  13.7498  13.8204  14.0046  14.0063  14.0067
    14.0067  14.0305  14.0305  14.0942  14.0956  14.0956  14.1026  14.1034
    14.3670  14.4883  14.5526  14.5526  16.1166  16.1167  16.5440  16.6116

     occupation numbers 
     1.0000   1.0000   1.0000   1.0000   1.0000   1.0000   1.0000   1.0000
     1.0000   1.0000   1.0000   1.0000   1.0000   1.0000   1.0000   1.0000
     1.0000   1.0000   1.0000   1.0000   1.0000   1.0000   1.0000   1.0000
     1.0000   1.0000   1.0000   1.0000   1.0000   1.0000   1.0000   1.0000
     1.0000   1.0000   1.0000   1.0000   1.0000   1.0000   1.0000   1.0000
     1.0000   1.0000   1.0000   1.0000   1.0000   1.0000   1.0000   1.0000
     1.0000   1.0000   1.0000   1.0000   1.0000   1.0000   1.0000   1.0000
     1.0000   1.0000   0.0000   0.0000   0.0000   0.0000   0.0000   0.0000

          k = 0.0000 0.3849 0.0000 (  2982 PWs)   bands (ev):

   -92.5482 -92.5482 -43.5965 -43.5947 -43.5933 -43.5918 -43.4963 -43.4929
   -37.6431 -37.6405 -10.0439  -9.9582  -9.9481  -9.9442  -9.9425  -9.9314
    -8.3816  -8.3768  -8.3764  -8.3710  -8.3676  -8.3664  -8.3554  -8.3545
    -8.3536  -8.3529   2.9427   3.2634   8.5509   8.9988   9.2603   9.3752
     9.3960   9.5341   9.6936   9.7986   9.8813   9.8920  10.2229  10.7798
    11.3265  12.4952  12.9653  13.0615  13.9775  13.9986  14.0092  14.0235
    14.0262  14.0357  14.0425  14.0442  14.0566  14.0617  14.0762  14.0932
    14.1214  14.1334  14.6475  14.9648  16.6866  17.0149  17.1871  17.6373

     occupation numbers 
     1.0000   1.0000   1.0000   1.0000   1.0000   1.0000   1.0000   1.0000
     1.0000   1.0000   1.0000   1.0000   1.0000   1.0000   1.0000   1.0000
     1.0000   1.0000   1.0000   1.0000   1.0000   1.0000   1.0000   1.0000
     1.0000   1.0000   1.0000   1.0000   1.0000   1.0000   1.0000   1.0000
     1.0000   1.0000   1.0000   1.0000   1.0000   1.0000   1.0000   1.0000
     1.0000   1.0000   1.0000   1.0000   1.0000   1.0000   1.0000   1.0000
     1.0000   1.0000   1.0000   1.0000   1.0000   1.0000   1.0000   1.0000
     1.0000   1.0000   0.0000   0.0000   0.0000   0.0000   0.0000   0.0000

          k = 0.0000 0.3849 0.2071 (  2973 PWs)   bands (ev):

   -92.5482 -92.5482 -43.5947 -43.5940 -43.5931 -43.5928 -43.4947 -43.4934
   -37.6425 -37.6412 -10.0163  -9.9615  -9.9538  -9.9467  -9.9467  -9.9439
    -8.3804  -8.3778  -8.3756  -8.3727  -8.3669  -8.3662  -8.3554  -8.3550
    -8.3534  -8.3528   3.0247   3.1856   8.5439   8.7141   9.2883   9.3598
     9.4122   9.4739   9.7894   9.8133   9.8736   9.9338  10.2908  10.6486
    11.9796  12.6234  12.8574  13.2366  13.9240  13.9903  14.0099  14.0167
    14.0250  14.0293  14.0427  14.0497  14.0621  14.0638  14.0920  14.1074
    14.1276  14.1291  14.4392  15.3084  15.7771  16.6568  17.1797  17.5139

     occupation numbers 
     1.0000   1.0000   1.0000   1.0000   1.0000   1.0000   1.0000   1.0000
     1.0000   1.0000   1.0000   1.0000   1.0000   1.0000   1.0000   1.0000
     1.0000   1.0000   1.0000   1.0000   1.0000   1.0000   1.0000   1.0000
     1.0000   1.0000   1.0000   1.0000   1.0000   1.0000   1.0000   1.0000
     1.0000   1.0000   1.0000   1.0000   1.0000   1.0000   1.0000   1.0000
     1.0000   1.0000   1.0000   1.0000   1.0000   1.0000   1.0000   1.0000
     1.0000   1.0000   1.0000   1.0000   1.0000   1.0000   1.0000   1.0000
     1.0000   1.0000   0.0000   0.0000   0.0000   0.0000   0.0000   0.0000

          k = 0.3333 0.5774 0.0000 (  2970 PWs)   bands (ev):

   -92.5482 -92.5482 -43.5950 -43.5943 -43.5943 -43.5936 -43.4928 -43.4928
   -37.6430 -37.6404 -10.0432  -9.9550  -9.9549  -9.9461  -9.9461  -9.9336
    -8.3824  -8.3769  -8.3769  -8.3753  -8.3660  -8.3660  -8.3541  -8.3536
    -8.3536  -8.3522   3.2767   3.2767   9.0135   9.0136   9.1914   9.4555
     9.5099   9.5099   9.6531   9.7395   9.8470   9.8470  10.2088  10.2088
    10.3450  12.3881  12.3881  12.3982  13.9865  13.9865  13.9983  14.0269
    14.0269  14.0360  14.0360  14.0476  14.0560  14.0560  14.0884  14.0996
    14.1012  14.1094  15.9548  15.9549  16.0543  16.4715  17.3323  17.3330

     occupation numbers 
     1.0000   1.0000   1.0000   1.0000   1.0000   1.0000   1.0000   1.0000
     1.0000   1.0000   1.0000   1.0000   1.0000   1.0000   1.0000   1.0000
     1.0000   1.0000   1.0000   1.0000   1.0000   1.0000   1.0000   1.0000
     1.0000   1.0000   1.0000   1.0000   1.0000   1.0000   1.0000   1.0000
     1.0000   1.0000   1.0000   1.0000   1.0000   1.0000   1.0000   1.0000
     1.0000   1.0000   1.0000   1.0000   1.0000   1.0000   1.0000   1.0000
     1.0000   1.0000   1.0000   1.0000   1.0000   1.0000   1.0000   1.0000
     1.0000   1.0000   0.0000   0.0000   0.0000   0.0000   0.0000   0.0000

          k = 0.3333 0.5774 0.2071 (  2982 PWs)   bands (ev):

   -92.5482 -92.5482 -43.5955 -43.5945 -43.5945 -43.5936 -43.4937 -43.4937
   -37.6424 -37.6411 -10.0161  -9.9613  -9.9544  -9.9544  -9.9467  -9.9466
    -8.3802  -8.3767  -8.3767  -8.3766  -8.3661  -8.3661  -8.3542  -8.3536
    -8.3536  -8.3531   3.2819   3.2819   8.9054   8.9055   9.2422   9.3708
     9.4360   9.4360   9.6297   9.7082   9.9426   9.9426  10.1856  10.1856
    10.7829  11.7421  12.7730  12.7731  13.9905  13.9905  14.0022  14.0216
    14.0216  14.0281  14.0401  14.0401  14.0579  14.0579  14.0915  14.0969
    14.1059  14.1100  15.7028  15.7028  16.8558  16.8607  17.2086  17.2086

     occupation numbers 
     1.0000   1.0000   1.0000   1.0000   1.0000   1.0000   1.0000   1.0000
     1.0000   1.0000   1.0000   1.0000   1.0000   1.0000   1.0000   1.0000
     1.0000   1.0000   1.0000   1.0000   1.0000   1.0000   1.0000   1.0000
     1.0000   1.0000   1.0000   1.0000   1.0000   1.0000   1.0000   1.0000
     1.0000   1.0000   1.0000   1.0000   1.0000   1.0000   1.0000   1.0000
     1.0000   1.0000   1.0000   1.0000   1.0000   1.0000   1.0000   1.0000
     1.0000   1.0000   1.0000   1.0000   1.0000   1.0000   1.0000   1.0000
     1.0000   1.0000   0.0000   0.0000   0.0000   0.0000   0.0000   0.0000

     highest occupied, lowest unoccupied level (ev):    14.9849   14.4392

!    total energy              =   -2942.07779878 Ry
     estimated scf accuracy    <       0.00000003 Ry

     The total energy is the sum of the following terms:
     one-electron contribution =   -1094.46251445 Ry
     hartree contribution      =     535.58702087 Ry
     xc contribution           =    -256.39046644 Ry
     ewald contribution        =   -1158.42041903 Ry
     one-center paw contrib.   =    -968.39141973 Ry
      -> PAW hartree energy AE =     450.34369776 Ry
      -> PAW hartree energy PS =    -386.87684902 Ry
      -> PAW xc energy AE      =    -584.87337694 Ry
      -> PAW xc energy PS      =      37.21081837 Ry
      -> total E_H with PAW    =     599.05386961 Ry
      -> total E_XC with PAW   =    -804.05302500 Ry

     convergence has been achieved in  16 iterations

     Writing all to output data dir calculations_bands/myprefix.save/
 
     init_run     :      7.84s CPU      2.35s WALL (       1 calls)
     electrons    :     45.92s CPU     12.56s WALL (       1 calls)

     Called by init_run:
     wfcinit      :      1.00s CPU      0.31s WALL (       1 calls)
     wfcinit:atom :      0.01s CPU      0.00s WALL (       3 calls)
     wfcinit:wfcr :      0.96s CPU      0.29s WALL (       3 calls)
     potinit      :      2.62s CPU      0.69s WALL (       1 calls)
     hinit0       :      2.70s CPU      0.80s WALL (       1 calls)

     Called by electrons:
     c_bands      :     15.01s CPU      3.91s WALL (      17 calls)
     sum_band     :      7.42s CPU      2.27s WALL (      17 calls)
     v_of_rho     :      0.73s CPU      0.19s WALL (      17 calls)
     v_h          :      0.05s CPU      0.01s WALL (      17 calls)
     v_xc         :      0.68s CPU      0.18s WALL (      17 calls)
     newd         :      7.24s CPU      2.13s WALL (      17 calls)
     PAW_pot      :     16.47s CPU      4.31s WALL (      17 calls)
     mix_rho      :      0.22s CPU      0.06s WALL (      17 calls)

     Called by c_bands:
     init_us_2    :      0.12s CPU      0.04s WALL (     105 calls)
     init_us_2:cp :      0.12s CPU      0.04s WALL (     105 calls)
     cegterg      :     11.31s CPU      2.95s WALL (      51 calls)

     Called by sum_band:
     sum_band:wei :      0.01s CPU      0.00s WALL (      17 calls)
     sum_band:loo :      1.72s CPU      0.45s WALL (      17 calls)
     sum_band:buf :      0.03s CPU      0.01s WALL (      51 calls)
     sum_band:ini :      0.06s CPU      0.02s WALL (      51 calls)
     sum_band:cal :      0.14s CPU      0.03s WALL (      51 calls)
     sum_band:bec :      0.01s CPU      0.00s WALL (      51 calls)
     addusdens    :      4.65s CPU      1.54s WALL (      17 calls)
     addusd:skk   :      0.00s CPU      0.00s WALL (      34 calls)
     addusd:dgemm :      0.41s CPU      0.40s WALL (      34 calls)
     addusd:qvan2 :      2.33s CPU      0.59s WALL (      34 calls)

     Called by *egterg:
     cdiaghg      :      3.02s CPU      0.79s WALL (     189 calls)
     cegterg:over :      0.41s CPU      0.11s WALL (     141 calls)
     cegterg:upda :      0.20s CPU      0.05s WALL (     141 calls)
     cegterg:last :      0.35s CPU      0.09s WALL (      90 calls)
     cdiaghg:chol :      0.20s CPU      0.05s WALL (     189 calls)
     cdiaghg:inve :      0.04s CPU      0.01s WALL (     189 calls)
     cdiaghg:para :      0.39s CPU      0.10s WALL (     378 calls)
     h_psi        :      7.72s CPU      2.05s WALL (     195 calls)
     s_psi        :      0.18s CPU      0.05s WALL (     195 calls)
     g_psi        :      0.02s CPU      0.00s WALL (     141 calls)

     Called by h_psi:
     h_psi:calbec :      0.38s CPU      0.10s WALL (     195 calls)
     vloc_psi     :      7.06s CPU      1.87s WALL (     195 calls)
     add_vuspsi   :      0.24s CPU      0.06s WALL (     195 calls)

     General routines
     calbec       :      0.51s CPU      0.14s WALL (     246 calls)
     fft          :      1.30s CPU      0.34s WALL (     220 calls)
     ffts         :      0.73s CPU      0.19s WALL (      34 calls)
     fftw         :      7.16s CPU      1.89s WALL (   18334 calls)
     interpolate  :      0.79s CPU      0.21s WALL (      17 calls)
 
     Parallel routines

     PAW routines
     PAW_pot      :     16.47s CPU      4.31s WALL (      17 calls)
     PAW_symme    :      0.31s CPU      0.08s WALL (      34 calls)
 
     PWSCF        :     54.85s CPU     15.59s WALL

 
   This run was terminated on:  18:45:44   5Jun2023            

=------------------------------------------------------------------------------=
   JOB DONE.
=------------------------------------------------------------------------------=
