
     Program PWSCF v.7.0 starts on 23Jun2023 at  4:17:27 

     This program is part of the open-source Quantum ESPRESSO suite
     for quantum simulation of materials; please cite
         "P. Giannozzi et al., J. Phys.:Condens. Matter 21 395502 (2009);
         "P. Giannozzi et al., J. Phys.:Condens. Matter 29 465901 (2017);
         "P. Giannozzi et al., J. Chem. Phys. 152 154105 (2020);
          URL http://www.quantum-espresso.org", 
     in publications or presentations arising from this work. More details at
     http://www.quantum-espresso.org/quote

     Parallel version (MPI & OpenMP), running on      32 processor cores
     Number of MPI processes:                 8
     Threads/MPI process:                     4

     MPI processes distributed on     1 nodes
     K-points division:     npool     =       2
     R & G space division:  proc/nbgrp/npool/nimage =       4
     96461 MiB available memory on the printing compute node when the environment starts
 
     Reading input from espresso_2134.pwi
Warning: card &CELL ignored
Warning: card / ignored

     Current dimensions of program PWSCF are:
     Max number of different atomic species (ntypx) = 10
     Max number of k-points (npk) =  40000
     Max angular momentum in pseudopotentials (lmaxx) =  4
     file O.pbe-n-kjpaw_psl.0.1.UPF: wavefunction(s)  2P renormalized

     Subspace diagonalization in iterative solution of the eigenvalue problem:
     one sub-group per band group will be used
     scalapack distributed-memory algorithm (size of sub-group:  2*  2 procs)

 
     Parallelization info
     --------------------
     sticks:   dense  smooth     PW     G-vecs:    dense   smooth      PW
     Min         415     207     60                18922     6682    1050
     Max         416     208     61                18924     6685    1053
     Sum        1661     829    243                75691    26733    4207
 
     Using Slab Decomposition
 


     bravais-lattice index     =            0
     lattice parameter (alat)  =       9.5075  a.u.
     unit-cell volume          =    1205.5883 (a.u.)^3
     number of atoms/cell      =           20
     number of atomic types    =            4
     number of electrons       =       142.00
     number of Kohn-Sham states=           90
     kinetic-energy cutoff     =      30.0000  Ry
     charge density cutoff     =     240.0000  Ry
     scf convergence threshold =      1.0E-06
     mixing beta               =       0.7000
     number of iterations used =            8  plain     mixing
     Exchange-correlation= SLA  PW   PBX  PBC
                           (   1   4   3   4   0   0   0)

     celldm(1)=   9.507537  celldm(2)=   0.000000  celldm(3)=   0.000000
     celldm(4)=   0.000000  celldm(5)=   0.000000  celldm(6)=   0.000000

     crystal axes: (cart. coord. in units of alat)
               a(1) = (   1.000000   0.000000   0.000000 )  
               a(2) = (   0.330552   0.962828   0.000000 )  
               a(3) = (   0.492521   0.007212   1.456955 )  

     reciprocal axes: (cart. coord. in units 2 pi/alat)
               b(1) = (  1.000000 -0.343313 -0.336349 )  
               b(2) = (  0.000000  1.038607 -0.005141 )  
               b(3) = (  0.000000  0.000000  0.686363 )  


     PseudoPot. # 1 for Li read from file:
     /home/pragov/projects/rrg-bengioy-ad/pragov/crystal_structure_design/SSSP/li_pbe_v1.4.uspp.F.UPF
     MD5 check sum: e912e257baa3777c20ea3d68f190483c
     Pseudo is Ultrasoft, Zval =  3.0
     Generated by new atomic code, or converted to UPF format
     Using radial grid of  751 points,  5 beta functions with: 
                l(1) =   0
                l(2) =   0
                l(3) =   0
                l(4) =   1
                l(5) =   1
     Q(r) pseudized with 10 coefficients,  rinner =    1.150   1.150   1.150


     PseudoPot. # 2 for Mn read from file:
     /home/pragov/projects/rrg-bengioy-ad/pragov/crystal_structure_design/SSSP/mn_pbe_v1.5.uspp.F.UPF
     MD5 check sum: 82ef2b46521d7a7d9e736dc3972e4928
     Pseudo is Ultrasoft + core correction, Zval = 15.0
     Generated by new atomic code, or converted to UPF format
     Using radial grid of  859 points,  6 beta functions with: 
                l(1) =   0
                l(2) =   0
                l(3) =   1
                l(4) =   1
                l(5) =   2
                l(6) =   2
     Q(r) pseudized with  8 coefficients,  rinner =    0.950   0.950   0.950
                                                       0.950   0.950

     PseudoPot. # 3 for Co read from file:
     /home/pragov/projects/rrg-bengioy-ad/pragov/crystal_structure_design/SSSP/Co_pbe_v1.2.uspp.F.UPF
     MD5 check sum: 5f91765df6ddd3222702df6e7b74a16d
     Pseudo is Ultrasoft + core correction, Zval = 17.0
     Generated by new atomic code, or converted to UPF format
     Using radial grid of  863 points,  6 beta functions with: 
                l(1) =   0
                l(2) =   0
                l(3) =   1
                l(4) =   1
                l(5) =   2
                l(6) =   2
     Q(r) pseudized with  8 coefficients,  rinner =    1.200   1.200   1.200
                                                       1.200   1.200

     PseudoPot. # 4 for O  read from file:
     /home/pragov/projects/rrg-bengioy-ad/pragov/crystal_structure_design/SSSP/O.pbe-n-kjpaw_psl.0.1.UPF
     MD5 check sum: 0234752ac141de4415c5fc33072bef88
     Pseudo is Projector augmented-wave + core cor, Zval =  6.0
     Generated using "atomic" code by A. Dal Corso  v.5.0.99 svn rev. 10869
     Shape of augmentation charge: BESSEL
     Using radial grid of 1095 points,  4 beta functions with: 
                l(1) =   0
                l(2) =   0
                l(3) =   1
                l(4) =   1
     Q(r) pseudized with 0 coefficients 


     atomic species   valence    mass     pseudopotential
        Li             3.00     6.94000     Li( 1.00)
        Mn            15.00    54.93804     Mn( 1.00)
        Co            17.00    58.93319     Co( 1.00)
        O              6.00    15.99900     O ( 1.00)

     No symmetry found


                                    s                        frac. trans.

      isym =  1     identity                                     

 cryst.   s( 1) = (     1          0          0      )
                  (     0          1          0      )
                  (     0          0          1      )

 cart.    s( 1) = (  1.0000000  0.0000000  0.0000000 )
                  (  0.0000000  1.0000000 -0.0000000 )
                  (  0.0000000  0.0000000  1.0000000 )


   Cartesian axes

     site n.     atom                  positions (alat units)
         1           Li  tau(   1) = (   0.6590639   0.4897051   1.1477657  )
         2           Li  tau(   2) = (   1.1618239   0.4848515   0.8649678  )
         3           Li  tau(   3) = (   0.6568037   0.4833361   0.5955900  )
         4           Li  tau(   4) = (   1.1635665   0.4842924   0.2986262  )
         5           Li  tau(   5) = (   0.6688379   0.4810383   0.0022539  )
         6           Li  tau(   6) = (   0.4936892   0.0077953   0.8749246  )
         7           Mn  tau(   7) = (   0.8239363   0.9683769   1.4521016  )
         8           Mn  tau(   8) = (   1.3245556   0.9675924   1.1598059  )
         9           Co  tau(   9) = (   1.0078553   0.0125765   0.5926571  )
        10           Co  tau(  10) = (   0.8357602   0.9554587   0.3121511  )
        11           O   tau(  11) = (   1.5006437   0.7569031   1.4417704  )
        12           O   tau(  12) = (   1.0033192   0.7555463   1.1859714  )
        13           O   tau(  13) = (   1.4685727   0.7419359   0.8907399  )
        14           O   tau(  14) = (   0.9957125   0.7437314   0.5651236  )
        15           O   tau(  15) = (   0.4845676   0.7462483   0.2797950  )
        16           O   tau(  16) = (   0.8489323   0.2282543   0.8877881  )
        17           O   tau(  17) = (   0.3179006   0.2298235   0.5691594  )
        18           O   tau(  18) = (   0.8382249   0.2217555   0.2716623  )
        19           O   tau(  19) = (   0.8196584   0.2121114   1.4491076  )
        20           O   tau(  20) = (   1.3151025   0.2176995   1.1845421  )

   Crystallographic axes

     site n.     atom                  positions (cryst. coord.)
         1           Li  tau(   1) = (  0.1048920  0.5027100  0.7877840  )
         2           Li  tau(   2) = (  0.7044370  0.4991230  0.5936820  )
         3           Li  tau(   3) = (  0.2905420  0.4989340  0.4087910  )
         4           Li  tau(   4) = (  0.8968600  0.5014540  0.2049660  )
         5           Li  tau(   5) = (  0.5029330  0.4995980  0.0015470  )
         6           Li  tau(   6) = (  0.1967330  0.0035980  0.6005160  )
         7           Mn  tau(   7) = (  0.0030670  0.9982970  0.9966690  )
         8           Mn  tau(   8) = (  0.6022690  0.9989850  0.7960480  )
         9           Co  tau(   9) = (  0.8041980  0.0100150  0.4067780  )
        10           Co  tau(  10) = (  0.4027470  0.9907410  0.2142490  )
        11           O   tau(  11) = (  0.7558510  0.7787120  0.9895780  )
        12           O   tau(  12) = (  0.3450300  0.7786180  0.8140070  )
        13           O   tau(  13) = (  0.9142570  0.7660000  0.6113710  )
        14           O   tau(  14) = (  0.5503010  0.7695390  0.3878800  )
        15           O   tau(  15) = (  0.1342620  0.7736200  0.1920410  )
        16           O   tau(  16) = (  0.4719630  0.2325020  0.6093450  )
        17           O   tau(  17) = (  0.0475630  0.2357700  0.3906500  )
        18           O   tau(  18) = (  0.6707200  0.2289200  0.1864590  )
        19           O   tau(  19) = (  0.2594320  0.2128500  0.9946140  )
        20           O   tau(  20) = (  0.8419440  0.2200140  0.8130260  )

     number of k points=    14
                       cart. coord. in units 2pi/alat
        k(    1) = (   0.0000000   0.0000000   0.0000000), wk =   0.0740741
        k(    2) = (   0.0000000   0.0000000   0.2287877), wk =   0.1481481
        k(    3) = (   0.0000000   0.3462022  -0.0017138), wk =   0.1481481
        k(    4) = (   0.0000000   0.3462022   0.2270739), wk =   0.1481481
        k(    5) = (   0.0000000   0.3462022  -0.2305015), wk =   0.1481481
        k(    6) = (   0.3333333  -0.1144377  -0.1121163), wk =   0.1481481
        k(    7) = (   0.3333333  -0.1144377   0.1166714), wk =   0.1481481
        k(    8) = (   0.3333333  -0.1144377  -0.3409040), wk =   0.1481481
        k(    9) = (   0.3333333   0.2317645  -0.1138301), wk =   0.1481481
        k(   10) = (   0.3333333   0.2317645   0.1149576), wk =   0.1481481
        k(   11) = (   0.3333333   0.2317645  -0.3426178), wk =   0.1481481
        k(   12) = (   0.3333333  -0.4606400  -0.1104025), wk =   0.1481481
        k(   13) = (   0.3333333  -0.4606400   0.1183852), wk =   0.1481481
        k(   14) = (   0.3333333  -0.4606400  -0.3391902), wk =   0.1481481

                       cryst. coord.
        k(    1) = (   0.0000000   0.0000000   0.0000000), wk =   0.0740741
        k(    2) = (   0.0000000   0.0000000   0.3333333), wk =   0.1481481
        k(    3) = (   0.0000000   0.3333333  -0.0000000), wk =   0.1481481
        k(    4) = (   0.0000000   0.3333333   0.3333333), wk =   0.1481481
        k(    5) = (   0.0000000   0.3333333  -0.3333333), wk =   0.1481481
        k(    6) = (   0.3333333   0.0000000  -0.0000000), wk =   0.1481481
        k(    7) = (   0.3333333   0.0000000   0.3333333), wk =   0.1481481
        k(    8) = (   0.3333333   0.0000000  -0.3333333), wk =   0.1481481
        k(    9) = (   0.3333333   0.3333333  -0.0000000), wk =   0.1481481
        k(   10) = (   0.3333333   0.3333333   0.3333333), wk =   0.1481481
        k(   11) = (   0.3333333   0.3333333  -0.3333333), wk =   0.1481481
        k(   12) = (   0.3333333  -0.3333333  -0.0000000), wk =   0.1481481
        k(   13) = (   0.3333333  -0.3333333   0.3333333), wk =   0.1481481
        k(   14) = (   0.3333333  -0.3333333  -0.3333333), wk =   0.1481481

     Dense  grid:    75691 G-vectors     FFT dimensions: (  48,  48,  75)

     Smooth grid:    26733 G-vectors     FFT dimensions: (  36,  36,  54)

     Dynamical RAM for                 wfc:       1.15 MB

     Dynamical RAM for     wfc (w. buffer):       9.18 MB

     Dynamical RAM for           str. fact:       1.15 MB

     Dynamical RAM for           local pot:       0.00 MB

     Dynamical RAM for          nlocal pot:       2.63 MB

     Dynamical RAM for                qrad:       4.98 MB

     Dynamical RAM for          rho,v,vnew:       1.87 MB

     Dynamical RAM for               rhoin:       0.62 MB

     Dynamical RAM for            rho*nmix:       4.62 MB

     Dynamical RAM for           G-vectors:       1.13 MB

     Dynamical RAM for          h,s,v(r/c):       0.37 MB

     Dynamical RAM for          <psi|beta>:       0.28 MB

     Dynamical RAM for                 psi:       2.30 MB

     Dynamical RAM for                hpsi:       2.30 MB

     Dynamical RAM for                spsi:       2.30 MB

     Dynamical RAM for      wfcinit/wfcrot:       3.45 MB

     Dynamical RAM for           addusdens:      28.44 MB

     Estimated static dynamical RAM per process >      24.68 MB

     Estimated max dynamical RAM per process >      57.74 MB

     Estimated total dynamical RAM >     443.45 MB

     Check: negative core charge=   -0.000025

     Initial potential from superposition of free atoms

     starting charge     136.2953, renormalised to     142.0000
     Starting wfcs are  122 randomized atomic wfcs
     Checking if some PAW data can be deallocated... 
       PAW data deallocated on    3 nodes for type:  4

     total cpu time spent up to now is        4.1 secs

     Self-consistent Calculation

     iteration #  1     ecut=    30.00 Ry     beta= 0.70
     Davidson diagonalization with overlap

---- Real-time Memory Report at c_bands before calling an iterative solver
           173 MiB given to the printing process from OS
             0 MiB allocation reported by mallinfo(arena+hblkhd)
         95813 MiB available memory on the node where the printing process lives
------------------
     ethr =  1.00E-02,  avg # of iterations =  2.6

     total cpu time spent up to now is        5.5 secs

     total energy              =   -1478.78380900 Ry
     estimated scf accuracy    <      59.08939761 Ry

     iteration #  2     ecut=    30.00 Ry     beta= 0.70
     Davidson diagonalization with overlap

---- Real-time Memory Report at c_bands before calling an iterative solver
           211 MiB given to the printing process from OS
             0 MiB allocation reported by mallinfo(arena+hblkhd)
         95581 MiB available memory on the node where the printing process lives
------------------
     ethr =  1.00E-02,  avg # of iterations =  4.0

     total cpu time spent up to now is        7.3 secs

     total energy              =   -1495.89663111 Ry
     estimated scf accuracy    <     408.39960783 Ry

     iteration #  3     ecut=    30.00 Ry     beta= 0.70
     Davidson diagonalization with overlap

---- Real-time Memory Report at c_bands before calling an iterative solver
           225 MiB given to the printing process from OS
             0 MiB allocation reported by mallinfo(arena+hblkhd)
         95407 MiB available memory on the node where the printing process lives
------------------
     ethr =  1.00E-02,  avg # of iterations =  6.1

     total cpu time spent up to now is        9.5 secs

     total energy              =   -1519.76589707 Ry
     estimated scf accuracy    <      94.27421717 Ry

     iteration #  4     ecut=    30.00 Ry     beta= 0.70
     Davidson diagonalization with overlap

---- Real-time Memory Report at c_bands before calling an iterative solver
           230 MiB given to the printing process from OS
             0 MiB allocation reported by mallinfo(arena+hblkhd)
         95367 MiB available memory on the node where the printing process lives
------------------
     ethr =  1.00E-02,  avg # of iterations =  2.4

     total cpu time spent up to now is       10.9 secs

     total energy              =   -1523.14344519 Ry
     estimated scf accuracy    <      32.37861066 Ry

     iteration #  5     ecut=    30.00 Ry     beta= 0.70
     Davidson diagonalization with overlap

---- Real-time Memory Report at c_bands before calling an iterative solver
           230 MiB given to the printing process from OS
             0 MiB allocation reported by mallinfo(arena+hblkhd)
         95368 MiB available memory on the node where the printing process lives
------------------
     ethr =  1.00E-02,  avg # of iterations =  1.0

     total cpu time spent up to now is       11.9 secs

     total energy              =   -1522.90674101 Ry
     estimated scf accuracy    <      21.36916394 Ry

     iteration #  6     ecut=    30.00 Ry     beta= 0.70
     Davidson diagonalization with overlap

---- Real-time Memory Report at c_bands before calling an iterative solver
           230 MiB given to the printing process from OS
             0 MiB allocation reported by mallinfo(arena+hblkhd)
         95371 MiB available memory on the node where the printing process lives
------------------
     ethr =  1.00E-02,  avg # of iterations =  1.0

     total cpu time spent up to now is       12.9 secs

     total energy              =   -1522.71103661 Ry
     estimated scf accuracy    <       9.71391370 Ry

     iteration #  7     ecut=    30.00 Ry     beta= 0.70
     Davidson diagonalization with overlap

---- Real-time Memory Report at c_bands before calling an iterative solver
           230 MiB given to the printing process from OS
             0 MiB allocation reported by mallinfo(arena+hblkhd)
         95376 MiB available memory on the node where the printing process lives
------------------
     ethr =  6.84E-03,  avg # of iterations =  1.0

     total cpu time spent up to now is       14.0 secs

     total energy              =   -1522.96897205 Ry
     estimated scf accuracy    <       3.31030143 Ry

     iteration #  8     ecut=    30.00 Ry     beta= 0.70
     Davidson diagonalization with overlap

---- Real-time Memory Report at c_bands before calling an iterative solver
           230 MiB given to the printing process from OS
             0 MiB allocation reported by mallinfo(arena+hblkhd)
         95379 MiB available memory on the node where the printing process lives
------------------
     ethr =  2.33E-03,  avg # of iterations =  1.1

     total cpu time spent up to now is       15.0 secs

     total energy              =   -1523.13188416 Ry
     estimated scf accuracy    <       6.41145802 Ry

     iteration #  9     ecut=    30.00 Ry     beta= 0.70
     Davidson diagonalization with overlap

---- Real-time Memory Report at c_bands before calling an iterative solver
           230 MiB given to the printing process from OS
             0 MiB allocation reported by mallinfo(arena+hblkhd)
         95377 MiB available memory on the node where the printing process lives
------------------
     ethr =  2.33E-03,  avg # of iterations =  1.0

     total cpu time spent up to now is       16.0 secs

     total energy              =   -1523.17277854 Ry
     estimated scf accuracy    <       1.85426718 Ry

     iteration # 10     ecut=    30.00 Ry     beta= 0.70
     Davidson diagonalization with overlap

---- Real-time Memory Report at c_bands before calling an iterative solver
           230 MiB given to the printing process from OS
             0 MiB allocation reported by mallinfo(arena+hblkhd)
         95376 MiB available memory on the node where the printing process lives
------------------
     ethr =  1.31E-03,  avg # of iterations =  1.0

     total cpu time spent up to now is       17.0 secs

     total energy              =   -1522.93328717 Ry
     estimated scf accuracy    <       1.54644921 Ry

     iteration # 11     ecut=    30.00 Ry     beta= 0.70
     Davidson diagonalization with overlap

---- Real-time Memory Report at c_bands before calling an iterative solver
           230 MiB given to the printing process from OS
             0 MiB allocation reported by mallinfo(arena+hblkhd)
         95378 MiB available memory on the node where the printing process lives
------------------
     ethr =  1.09E-03,  avg # of iterations =  1.2

     total cpu time spent up to now is       18.1 secs

     total energy              =   -1522.79776244 Ry
     estimated scf accuracy    <      14.86489524 Ry

     iteration # 12     ecut=    30.00 Ry     beta= 0.70
     Davidson diagonalization with overlap

---- Real-time Memory Report at c_bands before calling an iterative solver
           230 MiB given to the printing process from OS
             0 MiB allocation reported by mallinfo(arena+hblkhd)
         95377 MiB available memory on the node where the printing process lives
------------------
     ethr =  1.09E-03,  avg # of iterations =  1.1

     total cpu time spent up to now is       19.1 secs

     total energy              =   -1522.93522014 Ry
     estimated scf accuracy    <       3.23537463 Ry

     iteration # 13     ecut=    30.00 Ry     beta= 0.70
     Davidson diagonalization with overlap

---- Real-time Memory Report at c_bands before calling an iterative solver
           230 MiB given to the printing process from OS
             0 MiB allocation reported by mallinfo(arena+hblkhd)
         95378 MiB available memory on the node where the printing process lives
------------------
     ethr =  1.09E-03,  avg # of iterations =  1.1

     total cpu time spent up to now is       20.3 secs

     total energy              =   -1523.03752537 Ry
     estimated scf accuracy    <       4.33122491 Ry

     iteration # 14     ecut=    30.00 Ry     beta= 0.70
     Davidson diagonalization with overlap

---- Real-time Memory Report at c_bands before calling an iterative solver
           230 MiB given to the printing process from OS
             0 MiB allocation reported by mallinfo(arena+hblkhd)
         95379 MiB available memory on the node where the printing process lives
------------------
     ethr =  1.09E-03,  avg # of iterations =  1.0

     total cpu time spent up to now is       21.2 secs

     total energy              =   -1523.02926794 Ry
     estimated scf accuracy    <       0.83705000 Ry

     iteration # 15     ecut=    30.00 Ry     beta= 0.70
     Davidson diagonalization with overlap

---- Real-time Memory Report at c_bands before calling an iterative solver
           230 MiB given to the printing process from OS
             0 MiB allocation reported by mallinfo(arena+hblkhd)
         95377 MiB available memory on the node where the printing process lives
------------------
     ethr =  5.89E-04,  avg # of iterations =  1.4

     total cpu time spent up to now is       22.3 secs

     total energy              =   -1523.03158971 Ry
     estimated scf accuracy    <       0.17173290 Ry

     iteration # 16     ecut=    30.00 Ry     beta= 0.70
     Davidson diagonalization with overlap

---- Real-time Memory Report at c_bands before calling an iterative solver
           230 MiB given to the printing process from OS
             0 MiB allocation reported by mallinfo(arena+hblkhd)
         95379 MiB available memory on the node where the printing process lives
------------------
     ethr =  1.21E-04,  avg # of iterations =  3.8

     total cpu time spent up to now is       23.5 secs

     total energy              =   -1523.03363651 Ry
     estimated scf accuracy    <       0.50386999 Ry

     iteration # 17     ecut=    30.00 Ry     beta= 0.70
     Davidson diagonalization with overlap

---- Real-time Memory Report at c_bands before calling an iterative solver
           230 MiB given to the printing process from OS
             0 MiB allocation reported by mallinfo(arena+hblkhd)
         95377 MiB available memory on the node where the printing process lives
------------------
     ethr =  1.21E-04,  avg # of iterations =  1.1

     total cpu time spent up to now is       24.5 secs

     total energy              =   -1523.04251288 Ry
     estimated scf accuracy    <       0.09570295 Ry

     iteration # 18     ecut=    30.00 Ry     beta= 0.70
     Davidson diagonalization with overlap

---- Real-time Memory Report at c_bands before calling an iterative solver
           230 MiB given to the printing process from OS
             0 MiB allocation reported by mallinfo(arena+hblkhd)
         95380 MiB available memory on the node where the printing process lives
------------------
     ethr =  6.74E-05,  avg # of iterations =  1.2

     total cpu time spent up to now is       25.6 secs

     total energy              =   -1523.04243421 Ry
     estimated scf accuracy    <       0.05213485 Ry

     iteration # 19     ecut=    30.00 Ry     beta= 0.70
     Davidson diagonalization with overlap

---- Real-time Memory Report at c_bands before calling an iterative solver
           230 MiB given to the printing process from OS
             0 MiB allocation reported by mallinfo(arena+hblkhd)
         95381 MiB available memory on the node where the printing process lives
------------------
     ethr =  3.67E-05,  avg # of iterations =  2.8

     total cpu time spent up to now is       26.7 secs

     total energy              =   -1523.04276283 Ry
     estimated scf accuracy    <       0.01333842 Ry

     iteration # 20     ecut=    30.00 Ry     beta= 0.70
     Davidson diagonalization with overlap

---- Real-time Memory Report at c_bands before calling an iterative solver
           230 MiB given to the printing process from OS
             0 MiB allocation reported by mallinfo(arena+hblkhd)
         95377 MiB available memory on the node where the printing process lives
------------------
     ethr =  9.39E-06,  avg # of iterations =  4.6

     total cpu time spent up to now is       28.0 secs

     total energy              =   -1523.04242849 Ry
     estimated scf accuracy    <       0.01256132 Ry

     iteration # 21     ecut=    30.00 Ry     beta= 0.70
     Davidson diagonalization with overlap

---- Real-time Memory Report at c_bands before calling an iterative solver
           230 MiB given to the printing process from OS
             0 MiB allocation reported by mallinfo(arena+hblkhd)
         95377 MiB available memory on the node where the printing process lives
------------------
     ethr =  8.85E-06,  avg # of iterations =  1.6

     total cpu time spent up to now is       29.1 secs

     total energy              =   -1523.04150001 Ry
     estimated scf accuracy    <       0.02077879 Ry

     iteration # 22     ecut=    30.00 Ry     beta= 0.70
     Davidson diagonalization with overlap

---- Real-time Memory Report at c_bands before calling an iterative solver
           230 MiB given to the printing process from OS
             0 MiB allocation reported by mallinfo(arena+hblkhd)
         95380 MiB available memory on the node where the printing process lives
------------------
     ethr =  8.85E-06,  avg # of iterations =  1.1

     total cpu time spent up to now is       30.1 secs

     total energy              =   -1523.04204938 Ry
     estimated scf accuracy    <       0.05767986 Ry

     iteration # 23     ecut=    30.00 Ry     beta= 0.70
     Davidson diagonalization with overlap

---- Real-time Memory Report at c_bands before calling an iterative solver
           230 MiB given to the printing process from OS
             0 MiB allocation reported by mallinfo(arena+hblkhd)
         95377 MiB available memory on the node where the printing process lives
------------------
     ethr =  8.85E-06,  avg # of iterations =  1.2

     total cpu time spent up to now is       31.1 secs

     total energy              =   -1523.04256589 Ry
     estimated scf accuracy    <       0.00762754 Ry

     iteration # 24     ecut=    30.00 Ry     beta= 0.70
     Davidson diagonalization with overlap

---- Real-time Memory Report at c_bands before calling an iterative solver
           230 MiB given to the printing process from OS
             0 MiB allocation reported by mallinfo(arena+hblkhd)
         95380 MiB available memory on the node where the printing process lives
------------------
     ethr =  5.37E-06,  avg # of iterations =  1.1

     total cpu time spent up to now is       32.2 secs

     total energy              =   -1523.04265084 Ry
     estimated scf accuracy    <       0.00073569 Ry

     iteration # 25     ecut=    30.00 Ry     beta= 0.70
     Davidson diagonalization with overlap

---- Real-time Memory Report at c_bands before calling an iterative solver
           230 MiB given to the printing process from OS
             0 MiB allocation reported by mallinfo(arena+hblkhd)
         95380 MiB available memory on the node where the printing process lives
------------------
     ethr =  5.18E-07,  avg # of iterations =  3.2

     total cpu time spent up to now is       33.6 secs

     total energy              =   -1523.04270160 Ry
     estimated scf accuracy    <       0.00174974 Ry

     iteration # 26     ecut=    30.00 Ry     beta= 0.70
     Davidson diagonalization with overlap

---- Real-time Memory Report at c_bands before calling an iterative solver
           230 MiB given to the printing process from OS
             0 MiB allocation reported by mallinfo(arena+hblkhd)
         95380 MiB available memory on the node where the printing process lives
------------------
     ethr =  5.18E-07,  avg # of iterations =  1.1

     total cpu time spent up to now is       34.5 secs

     total energy              =   -1523.04272350 Ry
     estimated scf accuracy    <       0.00094415 Ry

     iteration # 27     ecut=    30.00 Ry     beta= 0.70
     Davidson diagonalization with overlap

---- Real-time Memory Report at c_bands before calling an iterative solver
           230 MiB given to the printing process from OS
             0 MiB allocation reported by mallinfo(arena+hblkhd)
         95382 MiB available memory on the node where the printing process lives
------------------
     ethr =  5.18E-07,  avg # of iterations =  1.1

     total cpu time spent up to now is       35.5 secs

     total energy              =   -1523.04273247 Ry
     estimated scf accuracy    <       0.00088171 Ry

     iteration # 28     ecut=    30.00 Ry     beta= 0.70
     Davidson diagonalization with overlap

---- Real-time Memory Report at c_bands before calling an iterative solver
           230 MiB given to the printing process from OS
             0 MiB allocation reported by mallinfo(arena+hblkhd)
         95381 MiB available memory on the node where the printing process lives
------------------
     ethr =  5.18E-07,  avg # of iterations =  1.1

     total cpu time spent up to now is       36.4 secs

     total energy              =   -1523.04274127 Ry
     estimated scf accuracy    <       0.00010606 Ry

     iteration # 29     ecut=    30.00 Ry     beta= 0.70
     Davidson diagonalization with overlap

---- Real-time Memory Report at c_bands before calling an iterative solver
           230 MiB given to the printing process from OS
             0 MiB allocation reported by mallinfo(arena+hblkhd)
         95382 MiB available memory on the node where the printing process lives
------------------
     ethr =  7.47E-08,  avg # of iterations =  1.0

     total cpu time spent up to now is       37.5 secs

     total energy              =   -1523.04274141 Ry
     estimated scf accuracy    <       0.00002511 Ry

     iteration # 30     ecut=    30.00 Ry     beta= 0.70
     Davidson diagonalization with overlap

---- Real-time Memory Report at c_bands before calling an iterative solver
           230 MiB given to the printing process from OS
             0 MiB allocation reported by mallinfo(arena+hblkhd)
         95443 MiB available memory on the node where the printing process lives
------------------
     ethr =  1.77E-08,  avg # of iterations =  1.1

     total cpu time spent up to now is       38.4 secs

     total energy              =   -1523.04274175 Ry
     estimated scf accuracy    <       0.00000500 Ry

     iteration # 31     ecut=    30.00 Ry     beta= 0.70
     Davidson diagonalization with overlap

---- Real-time Memory Report at c_bands before calling an iterative solver
           230 MiB given to the printing process from OS
             0 MiB allocation reported by mallinfo(arena+hblkhd)
         95460 MiB available memory on the node where the printing process lives
------------------
     ethr =  3.52E-09,  avg # of iterations =  2.0

     total cpu time spent up to now is       39.6 secs

     total energy              =   -1523.04272939 Ry
     estimated scf accuracy    <       0.00035879 Ry

     iteration # 32     ecut=    30.00 Ry     beta= 0.70
     Davidson diagonalization with overlap

---- Real-time Memory Report at c_bands before calling an iterative solver
           230 MiB given to the printing process from OS
             0 MiB allocation reported by mallinfo(arena+hblkhd)
         95462 MiB available memory on the node where the printing process lives
------------------
     ethr =  3.52E-09,  avg # of iterations =  2.0

     total cpu time spent up to now is       40.7 secs

     total energy              =   -1523.04274020 Ry
     estimated scf accuracy    <       0.00008612 Ry

     iteration # 33     ecut=    30.00 Ry     beta= 0.70
     Davidson diagonalization with overlap

---- Real-time Memory Report at c_bands before calling an iterative solver
           230 MiB given to the printing process from OS
             0 MiB allocation reported by mallinfo(arena+hblkhd)
         95463 MiB available memory on the node where the printing process lives
------------------
     ethr =  3.52E-09,  avg # of iterations =  2.0

     total cpu time spent up to now is       41.7 secs

     total energy              =   -1523.04274310 Ry
     estimated scf accuracy    <       0.00000333 Ry

     iteration # 34     ecut=    30.00 Ry     beta= 0.70
     Davidson diagonalization with overlap

---- Real-time Memory Report at c_bands before calling an iterative solver
           230 MiB given to the printing process from OS
             0 MiB allocation reported by mallinfo(arena+hblkhd)
         95462 MiB available memory on the node where the printing process lives
------------------
     ethr =  2.34E-09,  avg # of iterations =  1.0

     total cpu time spent up to now is       42.6 secs

     total energy              =   -1523.04274298 Ry
     estimated scf accuracy    <       0.00001607 Ry

     iteration # 35     ecut=    30.00 Ry     beta= 0.70
     Davidson diagonalization with overlap

---- Real-time Memory Report at c_bands before calling an iterative solver
           230 MiB given to the printing process from OS
             0 MiB allocation reported by mallinfo(arena+hblkhd)
         95465 MiB available memory on the node where the printing process lives
------------------
     ethr =  2.34E-09,  avg # of iterations =  1.0

     total cpu time spent up to now is       43.6 secs

     End of self-consistent calculation

          k = 0.0000 0.0000 0.0000 (  3343 PWs)   bands (ev):

   -87.1562 -87.0437 -71.8872 -71.7439 -50.4327 -50.4045 -50.3306 -50.3067
   -50.2808 -50.2320 -40.6939 -40.5828 -40.5412 -40.5385 -40.4330 -40.3428
   -36.4958 -36.4786 -36.2547 -35.9860 -35.8830 -35.6545 -11.1253 -10.2069
   -10.0326  -9.9208  -9.8755  -9.7628  -9.6589  -9.5750  -9.3792  -9.2024
     1.9347   2.0831   2.6728   2.6985   2.8214   2.9466   3.0359   3.1049
     3.2416   3.2672   3.4323   3.6531   3.7777   3.8062   3.8839   4.1950
     4.3127   4.3743   4.5619   4.5989   4.7121   5.1698   5.2191   5.2985
     5.6290   5.9129   6.1006   6.3100   6.3404   6.3826   7.1780   7.4160
     7.5527   7.7484   7.7700   7.8302   8.0434   8.0699   8.3322   8.3450
     8.3995   8.4706   9.1208   9.2579   9.5951   9.6731  10.5176  10.5392
    10.7565  10.8388  13.4355  15.6059  16.1717  16.2054  16.4581  16.8407
    18.7840  18.8925

     occupation numbers 
     1.0000   1.0000   1.0000   1.0000   1.0000   1.0000   1.0000   1.0000
     1.0000   1.0000   1.0000   1.0000   1.0000   1.0000   1.0000   1.0000
     1.0000   1.0000   1.0000   1.0000   1.0000   1.0000   1.0000   1.0000
     1.0000   1.0000   1.0000   1.0000   1.0000   1.0000   1.0000   1.0000
     1.0000   1.0000   1.0000   1.0000   1.0000   1.0000   1.0000   1.0000
     1.0000   1.0000   1.0000   1.0000   1.0000   1.0000   1.0000   1.0000
     1.0000   1.0000   1.0000   1.0000   1.0000   1.0000   1.0000   1.0000
     1.0000   1.0000   1.0000   1.0000   1.0000   1.0000   1.0000   1.0000
     1.0000   1.0000   1.0000   1.0000   1.0000   1.0000   1.0000   0.0000
     0.0000   0.0000   0.0000   0.0000   0.0000   0.0000   0.0000   0.0000
     0.0000   0.0000   0.0000   0.0000   0.0000   0.0000   0.0000   0.0000
     0.0000   0.0000

          k = 0.0000 0.0000 0.2288 (  3363 PWs)   bands (ev):

   -87.1564 -87.0440 -71.8874 -71.7441 -50.4353 -50.4047 -50.3316 -50.3082
   -50.2828 -50.2334 -40.6957 -40.5836 -40.5426 -40.5404 -40.4352 -40.3448
   -36.4960 -36.4790 -36.2550 -35.9863 -35.8834 -35.6548 -11.0738 -10.4210
    -9.9677  -9.8777  -9.8520  -9.7046  -9.6589  -9.5732  -9.4019  -9.2054
     1.8737   2.1418   2.6029   2.6429   2.7791   2.8573   3.0020   3.0668
     3.1766   3.2641   3.5068   3.6710   3.7529   3.9651   4.0781   4.1976
     4.2527   4.4928   4.5753   4.6698   4.8962   5.0432   5.1706   5.2879
     5.6827   5.7830   5.9162   6.1447   6.3291   6.4613   7.1820   7.3990
     7.5753   7.7375   7.7880   7.8235   7.9725   8.0882   8.3401   8.3504
     8.4451   8.4575   9.1084   9.2465   9.6012   9.6321  10.5399  10.5957
    10.7373  10.7588  13.9038  15.1394  15.5575  16.2145  17.0490  17.5937
    17.9598  18.3069

     occupation numbers 
     1.0000   1.0000   1.0000   1.0000   1.0000   1.0000   1.0000   1.0000
     1.0000   1.0000   1.0000   1.0000   1.0000   1.0000   1.0000   1.0000
     1.0000   1.0000   1.0000   1.0000   1.0000   1.0000   1.0000   1.0000
     1.0000   1.0000   1.0000   1.0000   1.0000   1.0000   1.0000   1.0000
     1.0000   1.0000   1.0000   1.0000   1.0000   1.0000   1.0000   1.0000
     1.0000   1.0000   1.0000   1.0000   1.0000   1.0000   1.0000   1.0000
     1.0000   1.0000   1.0000   1.0000   1.0000   1.0000   1.0000   1.0000
     1.0000   1.0000   1.0000   1.0000   1.0000   1.0000   1.0000   1.0000
     1.0000   1.0000   1.0000   1.0000   1.0000   1.0000   1.0000   0.0000
     0.0000   0.0000   0.0000   0.0000   0.0000   0.0000   0.0000   0.0000
     0.0000   0.0000   0.0000   0.0000   0.0000   0.0000   0.0000   0.0000
     0.0000   0.0000

          k = 0.0000 0.3462-0.0017 (  3344 PWs)   bands (ev):

   -87.1562 -87.0437 -71.8873 -71.7439 -50.4342 -50.4037 -50.3307 -50.3063
   -50.2805 -50.2329 -40.6933 -40.5840 -40.5417 -40.5376 -40.4345 -40.3423
   -36.4956 -36.4786 -36.2546 -35.9860 -35.8831 -35.6547 -11.0270 -10.1465
   -10.0201  -9.9442  -9.8950  -9.7866  -9.7453  -9.5833  -9.4087  -9.2486
     2.0829   2.5209   2.5887   2.7187   2.8359   2.9261   2.9724   3.0164
     3.0920   3.4403   3.4663   3.7512   3.8421   4.0028   4.1270   4.1846
     4.3965   4.4338   4.5550   4.5993   4.7220   4.8773   5.0157   5.2848
     5.5371   5.6987   5.8842   6.0219   6.2885   6.3199   7.2026   7.4532
     7.5606   7.7087   7.7649   7.7885   8.0780   8.1240   8.2867   8.3675
     8.4025   8.4767   9.0639   9.2202   9.4849   9.6007  10.4358  10.4931
    10.6616  10.8146  14.3002  15.6990  16.6411  16.7392  17.1860  17.4725
    18.2080  18.4121

     occupation numbers 
     1.0000   1.0000   1.0000   1.0000   1.0000   1.0000   1.0000   1.0000
     1.0000   1.0000   1.0000   1.0000   1.0000   1.0000   1.0000   1.0000
     1.0000   1.0000   1.0000   1.0000   1.0000   1.0000   1.0000   1.0000
     1.0000   1.0000   1.0000   1.0000   1.0000   1.0000   1.0000   1.0000
     1.0000   1.0000   1.0000   1.0000   1.0000   1.0000   1.0000   1.0000
     1.0000   1.0000   1.0000   1.0000   1.0000   1.0000   1.0000   1.0000
     1.0000   1.0000   1.0000   1.0000   1.0000   1.0000   1.0000   1.0000
     1.0000   1.0000   1.0000   1.0000   1.0000   1.0000   1.0000   1.0000
     1.0000   1.0000   1.0000   1.0000   1.0000   1.0000   1.0000   0.0000
     0.0000   0.0000   0.0000   0.0000   0.0000   0.0000   0.0000   0.0000
     0.0000   0.0000   0.0000   0.0000   0.0000   0.0000   0.0000   0.0000
     0.0000   0.0000

          k = 0.0000 0.3462 0.2271 (  3348 PWs)   bands (ev):

   -87.1563 -87.0438 -71.8873 -71.7439 -50.4345 -50.4033 -50.3308 -50.3073
   -50.2810 -50.2323 -40.6936 -40.5838 -40.5411 -40.5388 -40.4341 -40.3429
   -36.4955 -36.4789 -36.2547 -35.9860 -35.8831 -35.6547 -10.9762 -10.3311
   -10.0214  -9.9220  -9.8550  -9.7603  -9.6958  -9.5778  -9.4143  -9.2469
     1.9788   2.4928   2.6160   2.7091   2.8103   2.8849   3.0121   3.0868
     3.2222   3.4358   3.4989   3.6280   3.8105   3.9164   3.9515   4.1383
     4.3260   4.4691   4.6537   4.7813   4.9692   5.0863   5.2198   5.2719
     5.4706   5.6166   5.8174   5.8596   6.0934   6.2666   7.2287   7.4543
     7.5881   7.6989   7.7776   7.8143   8.0148   8.1286   8.2989   8.3597
     8.3902   8.5871   9.0406   9.2276   9.4978   9.6042  10.4033  10.4583
    10.5853  10.8211  14.7506  15.9257  16.2044  16.6952  17.0747  17.4877
    18.0172  18.0918

     occupation numbers 
     1.0000   1.0000   1.0000   1.0000   1.0000   1.0000   1.0000   1.0000
     1.0000   1.0000   1.0000   1.0000   1.0000   1.0000   1.0000   1.0000
     1.0000   1.0000   1.0000   1.0000   1.0000   1.0000   1.0000   1.0000
     1.0000   1.0000   1.0000   1.0000   1.0000   1.0000   1.0000   1.0000
     1.0000   1.0000   1.0000   1.0000   1.0000   1.0000   1.0000   1.0000
     1.0000   1.0000   1.0000   1.0000   1.0000   1.0000   1.0000   1.0000
     1.0000   1.0000   1.0000   1.0000   1.0000   1.0000   1.0000   1.0000
     1.0000   1.0000   1.0000   1.0000   1.0000   1.0000   1.0000   1.0000
     1.0000   1.0000   1.0000   1.0000   1.0000   1.0000   1.0000   0.0000
     0.0000   0.0000   0.0000   0.0000   0.0000   0.0000   0.0000   0.0000
     0.0000   0.0000   0.0000   0.0000   0.0000   0.0000   0.0000   0.0000
     0.0000   0.0000

          k = 0.0000 0.3462-0.2305 (  3344 PWs)   bands (ev):

   -87.1562 -87.0437 -71.8872 -71.7439 -50.4336 -50.4036 -50.3308 -50.3068
   -50.2807 -50.2320 -40.6933 -40.5839 -40.5409 -40.5384 -40.4335 -40.3425
   -36.4954 -36.4788 -36.2546 -35.9859 -35.8831 -35.6546 -10.9757 -10.3337
   -10.0174  -9.9198  -9.8576  -9.7618  -9.6970  -9.5770  -9.4128  -9.2477
     1.9773   2.4792   2.6410   2.7055   2.7996   2.8834   3.0127   3.0797
     3.2386   3.4440   3.5016   3.6314   3.8140   3.9081   3.9750   4.1214
     4.3095   4.4466   4.6810   4.8073   4.9735   5.0849   5.2287   5.2597
     5.4164   5.6463   5.8115   5.8701   6.0970   6.2762   7.2272   7.4533
     7.5886   7.7140   7.7827   7.7984   8.0119   8.1354   8.2976   8.3627
     8.3897   8.5907   9.0422   9.2290   9.4899   9.6066  10.3977  10.4631
    10.5859  10.8225  14.7637  15.9008  16.1907  16.6891  17.1036  17.5244
    17.9979  18.0691

     occupation numbers 
     1.0000   1.0000   1.0000   1.0000   1.0000   1.0000   1.0000   1.0000
     1.0000   1.0000   1.0000   1.0000   1.0000   1.0000   1.0000   1.0000
     1.0000   1.0000   1.0000   1.0000   1.0000   1.0000   1.0000   1.0000
     1.0000   1.0000   1.0000   1.0000   1.0000   1.0000   1.0000   1.0000
     1.0000   1.0000   1.0000   1.0000   1.0000   1.0000   1.0000   1.0000
     1.0000   1.0000   1.0000   1.0000   1.0000   1.0000   1.0000   1.0000
     1.0000   1.0000   1.0000   1.0000   1.0000   1.0000   1.0000   1.0000
     1.0000   1.0000   1.0000   1.0000   1.0000   1.0000   1.0000   1.0000
     1.0000   1.0000   1.0000   1.0000   1.0000   1.0000   1.0000   0.0000
     0.0000   0.0000   0.0000   0.0000   0.0000   0.0000   0.0000   0.0000
     0.0000   0.0000   0.0000   0.0000   0.0000   0.0000   0.0000   0.0000
     0.0000   0.0000

          k = 0.3333-0.1144-0.1121 (  3346 PWs)   bands (ev):

   -87.1563 -87.0438 -71.8872 -71.7440 -50.4344 -50.4040 -50.3282 -50.3100
   -50.2823 -50.2314 -40.6919 -40.5886 -40.5422 -40.5367 -40.4319 -40.3442
   -36.4954 -36.4788 -36.2548 -35.9862 -35.8833 -35.6546 -10.8616 -10.2878
   -10.1389  -9.9859  -9.8173  -9.7540  -9.7034  -9.5930  -9.4120  -9.2665
     2.1754   2.3509   2.4637   2.6776   2.8061   2.9253   3.0356   3.1536
     3.2516   3.4116   3.4775   3.5804   3.6650   3.8254   3.9585   4.1589
     4.2800   4.5391   4.6305   4.9022   4.9327   5.1340   5.2674   5.4131
     5.4331   5.5488   5.7730   5.9416   6.1395   6.3350   7.2406   7.3812
     7.5325   7.6576   7.8019   8.0204   8.0817   8.1225   8.2581   8.3412
     8.4106   8.5281   9.0659   9.2113   9.4927   9.6014  10.3649  10.4627
    10.6772  10.7314  14.5347  15.9575  16.3481  16.8889  17.0131  17.1529
    18.3307  18.6807

     occupation numbers 
     1.0000   1.0000   1.0000   1.0000   1.0000   1.0000   1.0000   1.0000
     1.0000   1.0000   1.0000   1.0000   1.0000   1.0000   1.0000   1.0000
     1.0000   1.0000   1.0000   1.0000   1.0000   1.0000   1.0000   1.0000
     1.0000   1.0000   1.0000   1.0000   1.0000   1.0000   1.0000   1.0000
     1.0000   1.0000   1.0000   1.0000   1.0000   1.0000   1.0000   1.0000
     1.0000   1.0000   1.0000   1.0000   1.0000   1.0000   1.0000   1.0000
     1.0000   1.0000   1.0000   1.0000   1.0000   1.0000   1.0000   1.0000
     1.0000   1.0000   1.0000   1.0000   1.0000   1.0000   1.0000   1.0000
     1.0000   1.0000   1.0000   1.0000   1.0000   1.0000   1.0000   0.0000
     0.0000   0.0000   0.0000   0.0000   0.0000   0.0000   0.0000   0.0000
     0.0000   0.0000   0.0000   0.0000   0.0000   0.0000   0.0000   0.0000
     0.0000   0.0000

          k = 0.3333-0.1144 0.1167 (  3342 PWs)   bands (ev):

   -87.1562 -87.0438 -71.8872 -71.7440 -50.4343 -50.4034 -50.3274 -50.3093
   -50.2825 -50.2316 -40.6918 -40.5872 -40.5410 -40.5371 -40.4321 -40.3442
   -36.4954 -36.4787 -36.2547 -35.9861 -35.8832 -35.6545 -10.8582 -10.3165
   -10.1036  -9.9738  -9.8569  -9.7454  -9.6883  -9.5994  -9.4178  -9.2603
     2.1646   2.3638   2.4670   2.6948   2.7753   2.9174   3.0577   3.1179
     3.2925   3.4292   3.4898   3.5562   3.6879   3.8174   3.9630   4.1389
     4.2745   4.5276   4.6687   4.8764   4.9122   5.1330   5.3021   5.3695
     5.4360   5.5750   5.7890   5.9166   6.1864   6.3459   7.2822   7.3325
     7.5338   7.6547   7.7683   8.0151   8.0694   8.1478   8.2669   8.3440
     8.4056   8.5341   9.0600   9.2223   9.4778   9.6062  10.3564  10.4803
    10.6888  10.7120  14.5490  15.9673  16.3249  16.8794  17.0000  17.1767
    18.3968  18.6556

     occupation numbers 
     1.0000   1.0000   1.0000   1.0000   1.0000   1.0000   1.0000   1.0000
     1.0000   1.0000   1.0000   1.0000   1.0000   1.0000   1.0000   1.0000
     1.0000   1.0000   1.0000   1.0000   1.0000   1.0000   1.0000   1.0000
     1.0000   1.0000   1.0000   1.0000   1.0000   1.0000   1.0000   1.0000
     1.0000   1.0000   1.0000   1.0000   1.0000   1.0000   1.0000   1.0000
     1.0000   1.0000   1.0000   1.0000   1.0000   1.0000   1.0000   1.0000
     1.0000   1.0000   1.0000   1.0000   1.0000   1.0000   1.0000   1.0000
     1.0000   1.0000   1.0000   1.0000   1.0000   1.0000   1.0000   1.0000
     1.0000   1.0000   1.0000   1.0000   1.0000   1.0000   1.0000   0.0000
     0.0000   0.0000   0.0000   0.0000   0.0000   0.0000   0.0000   0.0000
     0.0000   0.0000   0.0000   0.0000   0.0000   0.0000   0.0000   0.0000
     0.0000   0.0000

          k = 0.3333-0.1144-0.3409 (  3356 PWs)   bands (ev):

   -87.1564 -87.0439 -71.8873 -71.7441 -50.4348 -50.4043 -50.3290 -50.3104
   -50.2823 -50.2322 -40.6924 -40.5889 -40.5425 -40.5377 -40.4329 -40.3444
   -36.4955 -36.4789 -36.2549 -35.9863 -35.8834 -35.6547 -10.8052 -10.4069
   -10.1669  -9.9437  -9.8267  -9.7175  -9.6717  -9.5881  -9.4184  -9.2728
     2.1278   2.2737   2.4799   2.6142   2.7051   2.9329   3.0841   3.1111
     3.2906   3.4054   3.5143   3.6879   3.7434   3.9642   4.0372   4.2185
     4.3819   4.4172   4.6141   4.8482   4.9724   5.0153   5.1615   5.2753
     5.4057   5.6918   5.7915   6.0245   6.1289   6.1758   7.2681   7.4057
     7.5283   7.6609   7.7700   7.9733   8.0832   8.1561   8.2430   8.3228
     8.3877   8.5883   9.0413   9.2186   9.4740   9.6145  10.3599  10.4715
    10.6398  10.7772  15.1053  15.3866  15.6920  17.2337  17.3535  17.6231
    17.9684  18.6012

     occupation numbers 
     1.0000   1.0000   1.0000   1.0000   1.0000   1.0000   1.0000   1.0000
     1.0000   1.0000   1.0000   1.0000   1.0000   1.0000   1.0000   1.0000
     1.0000   1.0000   1.0000   1.0000   1.0000   1.0000   1.0000   1.0000
     1.0000   1.0000   1.0000   1.0000   1.0000   1.0000   1.0000   1.0000
     1.0000   1.0000   1.0000   1.0000   1.0000   1.0000   1.0000   1.0000
     1.0000   1.0000   1.0000   1.0000   1.0000   1.0000   1.0000   1.0000
     1.0000   1.0000   1.0000   1.0000   1.0000   1.0000   1.0000   1.0000
     1.0000   1.0000   1.0000   1.0000   1.0000   1.0000   1.0000   1.0000
     1.0000   1.0000   1.0000   1.0000   1.0000   1.0000   1.0000   0.0000
     0.0000   0.0000   0.0000   0.0000   0.0000   0.0000   0.0000   0.0000
     0.0000   0.0000   0.0000   0.0000   0.0000   0.0000   0.0000   0.0000
     0.0000   0.0000

          k = 0.3333 0.2318-0.1138 (  3350 PWs)   bands (ev):

   -87.1564 -87.0439 -71.8873 -71.7441 -50.4352 -50.4052 -50.3292 -50.3098
   -50.2813 -50.2336 -40.6913 -40.5897 -40.5434 -40.5384 -40.4341 -40.3433
   -36.4955 -36.4790 -36.2549 -35.9864 -35.8834 -35.6547 -10.8202 -10.2433
   -10.0908  -9.9630  -9.8668  -9.8060  -9.7300  -9.5551  -9.5037  -9.2611
     2.0690   2.3380   2.4591   2.5903   2.7303   2.7771   2.8373   2.9426
     3.1104   3.3593   3.6249   3.7893   3.8359   3.9843   4.1024   4.2179
     4.3425   4.6111   4.8232   4.9842   5.0523   5.1780   5.2937   5.4223
     5.4897   5.5882   5.7567   6.0089   6.0696   6.1834   7.2111   7.3368
     7.5248   7.6405   7.7972   7.9781   8.0148   8.1071   8.2935   8.3254
     8.3984   8.4624   9.1318   9.1811   9.4685   9.6715  10.3492  10.5357
    10.7058  10.8367  14.9405  15.5257  15.7268  16.6646  16.9472  17.1690
    17.7469  18.5808

     occupation numbers 
     1.0000   1.0000   1.0000   1.0000   1.0000   1.0000   1.0000   1.0000
     1.0000   1.0000   1.0000   1.0000   1.0000   1.0000   1.0000   1.0000
     1.0000   1.0000   1.0000   1.0000   1.0000   1.0000   1.0000   1.0000
     1.0000   1.0000   1.0000   1.0000   1.0000   1.0000   1.0000   1.0000
     1.0000   1.0000   1.0000   1.0000   1.0000   1.0000   1.0000   1.0000
     1.0000   1.0000   1.0000   1.0000   1.0000   1.0000   1.0000   1.0000
     1.0000   1.0000   1.0000   1.0000   1.0000   1.0000   1.0000   1.0000
     1.0000   1.0000   1.0000   1.0000   1.0000   1.0000   1.0000   1.0000
     1.0000   1.0000   1.0000   1.0000   1.0000   1.0000   1.0000   0.0000
     0.0000   0.0000   0.0000   0.0000   0.0000   0.0000   0.0000   0.0000
     0.0000   0.0000   0.0000   0.0000   0.0000   0.0000   0.0000   0.0000
     0.0000   0.0000

          k = 0.3333 0.2318 0.1150 (  3346 PWs)   bands (ev):

   -87.1564 -87.0439 -71.8873 -71.7441 -50.4358 -50.4042 -50.3289 -50.3093
   -50.2820 -50.2323 -40.6909 -40.5895 -40.5431 -40.5381 -40.4334 -40.3433
   -36.4954 -36.4789 -36.2549 -35.9863 -35.8833 -35.6547 -10.8179 -10.2669
   -10.0475  -9.9685  -9.8905  -9.8011  -9.7262  -9.5559  -9.5074  -9.2578
     2.0663   2.3378   2.4713   2.5923   2.7259   2.7648   2.8521   2.9450
     3.1068   3.3591   3.6528   3.7392   3.8373   3.9807   4.1089   4.2276
     4.3956   4.6052   4.8066   4.9784   5.0391   5.1528   5.2838   5.3570
     5.5123   5.6046   5.7979   6.0066   6.0955   6.2265   7.2434   7.2848
     7.5235   7.6498   7.7795   7.9657   8.0226   8.1012   8.2972   8.3222
     8.4037   8.4704   9.1317   9.1868   9.4749   9.6669  10.3489  10.5314
    10.7287  10.8184  14.9479  15.5346  15.7013  16.6676  17.0065  17.1547
    17.7293  18.5889

     occupation numbers 
     1.0000   1.0000   1.0000   1.0000   1.0000   1.0000   1.0000   1.0000
     1.0000   1.0000   1.0000   1.0000   1.0000   1.0000   1.0000   1.0000
     1.0000   1.0000   1.0000   1.0000   1.0000   1.0000   1.0000   1.0000
     1.0000   1.0000   1.0000   1.0000   1.0000   1.0000   1.0000   1.0000
     1.0000   1.0000   1.0000   1.0000   1.0000   1.0000   1.0000   1.0000
     1.0000   1.0000   1.0000   1.0000   1.0000   1.0000   1.0000   1.0000
     1.0000   1.0000   1.0000   1.0000   1.0000   1.0000   1.0000   1.0000
     1.0000   1.0000   1.0000   1.0000   1.0000   1.0000   1.0000   1.0000
     1.0000   1.0000   1.0000   1.0000   1.0000   1.0000   1.0000   0.0000
     0.0000   0.0000   0.0000   0.0000   0.0000   0.0000   0.0000   0.0000
     0.0000   0.0000   0.0000   0.0000   0.0000   0.0000   0.0000   0.0000
     0.0000   0.0000

          k = 0.3333 0.2318-0.3426 (  3332 PWs)   bands (ev):

   -87.1562 -87.0437 -71.8871 -71.7439 -50.4338 -50.4038 -50.3287 -50.3087
   -50.2802 -50.2305 -40.6896 -40.5892 -40.5427 -40.5361 -40.4311 -40.3417
   -36.4952 -36.4787 -36.2546 -35.9861 -35.8831 -35.6544 -10.7665 -10.3619
   -10.0963  -9.9580  -9.8745  -9.7392  -9.7278  -9.5555  -9.4922  -9.2641
     1.9938   2.1882   2.4142   2.6390   2.7587   2.8598   2.9058   2.9975
     3.1709   3.4297   3.5298   3.7707   3.8370   4.0728   4.2231   4.3079
     4.3925   4.5394   4.6089   5.0028   5.1209   5.1710   5.3004   5.3369
     5.4002   5.5902   5.8394   5.9893   6.0803   6.2009   7.2404   7.3370
     7.5177   7.6548   7.8033   7.9419   8.0236   8.0968   8.2790   8.3117
     8.4160   8.5135   9.1240   9.2019   9.5009   9.6696  10.3219  10.5937
    10.6664  10.8349  15.1049  15.5002  16.0987  16.3495  16.5260  17.3542
    17.7727  18.2539

     occupation numbers 
     1.0000   1.0000   1.0000   1.0000   1.0000   1.0000   1.0000   1.0000
     1.0000   1.0000   1.0000   1.0000   1.0000   1.0000   1.0000   1.0000
     1.0000   1.0000   1.0000   1.0000   1.0000   1.0000   1.0000   1.0000
     1.0000   1.0000   1.0000   1.0000   1.0000   1.0000   1.0000   1.0000
     1.0000   1.0000   1.0000   1.0000   1.0000   1.0000   1.0000   1.0000
     1.0000   1.0000   1.0000   1.0000   1.0000   1.0000   1.0000   1.0000
     1.0000   1.0000   1.0000   1.0000   1.0000   1.0000   1.0000   1.0000
     1.0000   1.0000   1.0000   1.0000   1.0000   1.0000   1.0000   1.0000
     1.0000   1.0000   1.0000   1.0000   1.0000   1.0000   1.0000   0.0000
     0.0000   0.0000   0.0000   0.0000   0.0000   0.0000   0.0000   0.0000
     0.0000   0.0000   0.0000   0.0000   0.0000   0.0000   0.0000   0.0000
     0.0000   0.0000

          k = 0.3333-0.4606-0.1104 (  3335 PWs)   bands (ev):

   -87.1562 -87.0437 -71.8871 -71.7440 -50.4340 -50.4030 -50.3265 -50.3094
   -50.2815 -50.2321 -40.6910 -40.5872 -40.5407 -40.5365 -40.4324 -40.3436
   -36.4953 -36.4786 -36.2546 -35.9860 -35.8831 -35.6545 -10.7469 -10.2994
   -10.0764 -10.0071  -9.8441  -9.8004  -9.7554  -9.5789  -9.4794  -9.2763
     2.0752   2.3732   2.6223   2.7242   2.7785   2.9256   3.0673   3.1162
     3.1951   3.3408   3.4501   3.7397   3.8574   3.9557   4.0809   4.2382
     4.3802   4.5476   4.7587   4.9293   5.0152   5.1268   5.2237   5.3277
     5.3480   5.5217   5.5868   5.7774   5.9381   6.1367   7.1900   7.3789
     7.5059   7.6805   7.8087   7.9884   8.0291   8.1126   8.3140   8.3852
     8.4636   8.5263   9.0530   9.2198   9.4829   9.5542  10.4187  10.5005
    10.6924  10.7559  15.6063  16.2746  16.4215  16.5243  16.6528  16.7593
    17.8882  18.5969

     occupation numbers 
     1.0000   1.0000   1.0000   1.0000   1.0000   1.0000   1.0000   1.0000
     1.0000   1.0000   1.0000   1.0000   1.0000   1.0000   1.0000   1.0000
     1.0000   1.0000   1.0000   1.0000   1.0000   1.0000   1.0000   1.0000
     1.0000   1.0000   1.0000   1.0000   1.0000   1.0000   1.0000   1.0000
     1.0000   1.0000   1.0000   1.0000   1.0000   1.0000   1.0000   1.0000
     1.0000   1.0000   1.0000   1.0000   1.0000   1.0000   1.0000   1.0000
     1.0000   1.0000   1.0000   1.0000   1.0000   1.0000   1.0000   1.0000
     1.0000   1.0000   1.0000   1.0000   1.0000   1.0000   1.0000   1.0000
     1.0000   1.0000   1.0000   1.0000   1.0000   1.0000   1.0000   0.0000
     0.0000   0.0000   0.0000   0.0000   0.0000   0.0000   0.0000   0.0000
     0.0000   0.0000   0.0000   0.0000   0.0000   0.0000   0.0000   0.0000
     0.0000   0.0000

          k = 0.3333-0.4606 0.1184 (  3336 PWs)   bands (ev):

   -87.1562 -87.0437 -71.8871 -71.7440 -50.4343 -50.4026 -50.3275 -50.3097
   -50.2814 -50.2311 -40.6910 -40.5878 -40.5410 -40.5364 -40.4317 -40.3434
   -36.4953 -36.4786 -36.2546 -35.9861 -35.8831 -35.6546 -10.7425 -10.3210
   -10.0497  -9.9932  -9.8779  -9.7948  -9.7484  -9.5835  -9.4817  -9.2711
     2.0714   2.3635   2.6307   2.7235   2.7705   2.9314   3.0795   3.1066
     3.2258   3.3197   3.4359   3.7510   3.8658   3.9796   4.0304   4.2518
     4.3901   4.5352   4.7407   4.9335   5.0054   5.1403   5.2148   5.3069
     5.3727   5.4845   5.6260   5.7693   5.9200   6.2080   7.2218   7.3192
     7.5204   7.6790   7.7882   7.9794   8.0179   8.1245   8.3176   8.3816
     8.4632   8.5418   9.0557   9.2168   9.4833   9.5590  10.4251  10.4973
    10.6958  10.7372  15.6305  16.2688  16.4086  16.5092  16.6586  16.7717
    17.8810  18.5865

     occupation numbers 
     1.0000   1.0000   1.0000   1.0000   1.0000   1.0000   1.0000   1.0000
     1.0000   1.0000   1.0000   1.0000   1.0000   1.0000   1.0000   1.0000
     1.0000   1.0000   1.0000   1.0000   1.0000   1.0000   1.0000   1.0000
     1.0000   1.0000   1.0000   1.0000   1.0000   1.0000   1.0000   1.0000
     1.0000   1.0000   1.0000   1.0000   1.0000   1.0000   1.0000   1.0000
     1.0000   1.0000   1.0000   1.0000   1.0000   1.0000   1.0000   1.0000
     1.0000   1.0000   1.0000   1.0000   1.0000   1.0000   1.0000   1.0000
     1.0000   1.0000   1.0000   1.0000   1.0000   1.0000   1.0000   1.0000
     1.0000   1.0000   1.0000   1.0000   1.0000   1.0000   1.0000   0.0000
     0.0000   0.0000   0.0000   0.0000   0.0000   0.0000   0.0000   0.0000
     0.0000   0.0000   0.0000   0.0000   0.0000   0.0000   0.0000   0.0000
     0.0000   0.0000

          k = 0.3333-0.4606-0.3392 (  3352 PWs)   bands (ev):

   -87.1564 -87.0439 -71.8873 -71.7441 -50.4355 -50.4034 -50.3279 -50.3104
   -50.2826 -50.2328 -40.6921 -40.5885 -40.5418 -40.5374 -40.4337 -40.3447
   -36.4955 -36.4788 -36.2548 -35.9863 -35.8834 -35.6548 -10.6912 -10.3828
   -10.0959 -10.0233  -9.8275  -9.7932  -9.7347  -9.5645  -9.4769  -9.2728
     2.0865   2.2409   2.6215   2.6896   2.8262   2.9870   3.1051   3.1624
     3.2287   3.3642   3.4733   3.6765   3.7627   4.0400   4.0654   4.2481
     4.3461   4.5020   4.6030   4.8134   5.0521   5.1463   5.1976   5.3521
     5.4133   5.5810   5.6799   5.7831   5.8662   6.1439   7.2246   7.4205
     7.5056   7.6698   7.8019   7.9340   8.0465   8.1358   8.2807   8.3527
     8.4428   8.5956   9.0243   9.2076   9.4569   9.5524  10.4282  10.5092
    10.6091  10.7514  16.1030  16.2362  16.3391  16.5760  16.7263  16.8836
    17.0896  18.3018

     occupation numbers 
     1.0000   1.0000   1.0000   1.0000   1.0000   1.0000   1.0000   1.0000
     1.0000   1.0000   1.0000   1.0000   1.0000   1.0000   1.0000   1.0000
     1.0000   1.0000   1.0000   1.0000   1.0000   1.0000   1.0000   1.0000
     1.0000   1.0000   1.0000   1.0000   1.0000   1.0000   1.0000   1.0000
     1.0000   1.0000   1.0000   1.0000   1.0000   1.0000   1.0000   1.0000
     1.0000   1.0000   1.0000   1.0000   1.0000   1.0000   1.0000   1.0000
     1.0000   1.0000   1.0000   1.0000   1.0000   1.0000   1.0000   1.0000
     1.0000   1.0000   1.0000   1.0000   1.0000   1.0000   1.0000   1.0000
     1.0000   1.0000   1.0000   1.0000   1.0000   1.0000   1.0000   0.0000
     0.0000   0.0000   0.0000   0.0000   0.0000   0.0000   0.0000   0.0000
     0.0000   0.0000   0.0000   0.0000   0.0000   0.0000   0.0000   0.0000
     0.0000   0.0000

     highest occupied, lowest unoccupied level (ev):     8.3401    8.3117

!    total energy              =   -1523.04274248 Ry
     estimated scf accuracy    <       0.00000097 Ry

     The total energy is the sum of the following terms:
     one-electron contribution =    -955.04777641 Ry
     hartree contribution      =     536.23445292 Ry
     xc contribution           =    -212.61681244 Ry
     ewald contribution        =    -796.36175400 Ry
     one-center paw contrib.   =     -95.25085255 Ry
      -> PAW hartree energy AE =       0.00000000 Ry
      -> PAW hartree energy PS =       0.00000000 Ry
      -> PAW xc energy AE      =       0.00000000 Ry
      -> PAW xc energy PS      =       0.00000000 Ry
      -> total E_H with PAW    =     536.23445292 Ry
      -> total E_XC with PAW   =    -212.61681244 Ry

     convergence has been achieved in  35 iterations

     Writing all to output data dir calculations_bands/myprefix.save/
 
     init_run     :      9.63s CPU      3.63s WALL (       1 calls)
     electrons    :    147.61s CPU     39.49s WALL (       1 calls)

     Called by init_run:
     wfcinit      :      2.56s CPU      0.70s WALL (       1 calls)
     wfcinit:atom :      0.02s CPU      0.00s WALL (       7 calls)
     wfcinit:wfcr :      2.40s CPU      0.66s WALL (       7 calls)
     potinit      :      2.52s CPU      0.77s WALL (       1 calls)
     hinit0       :      4.01s CPU      1.93s WALL (       1 calls)

     Called by electrons:
     c_bands      :    107.39s CPU     28.07s WALL (      35 calls)
     sum_band     :     24.25s CPU      6.83s WALL (      35 calls)
     v_of_rho     :      1.90s CPU      0.51s WALL (      36 calls)
     v_h          :      0.14s CPU      0.04s WALL (      36 calls)
     v_xc         :      1.76s CPU      0.47s WALL (      36 calls)
     newd         :      9.16s CPU      2.82s WALL (      36 calls)
     PAW_pot      :      4.37s CPU      1.17s WALL (      36 calls)
     mix_rho      :      0.67s CPU      0.18s WALL (      35 calls)

     Called by c_bands:
     init_us_2    :      0.65s CPU      0.18s WALL (     497 calls)
     init_us_2:cp :      0.64s CPU      0.18s WALL (     497 calls)
     cegterg      :    100.82s CPU     26.35s WALL (     245 calls)

     Called by sum_band:
     sum_band:wei :      0.04s CPU      0.01s WALL (      35 calls)
     sum_band:loo :     17.15s CPU      4.44s WALL (      35 calls)
     sum_band:buf :      0.25s CPU      0.07s WALL (     245 calls)
     sum_band:ini :      0.29s CPU      0.08s WALL (     245 calls)
     sum_band:cal :      1.18s CPU      0.30s WALL (     245 calls)
     sum_band:bec :      0.26s CPU      0.07s WALL (     245 calls)
     addusdens    :      5.39s CPU      1.95s WALL (      35 calls)
     addusd:skk   :      0.08s CPU      0.03s WALL (     140 calls)
     addusd:dgemm :      0.70s CPU      0.61s WALL (     140 calls)
     addusd:qvan2 :      3.21s CPU      0.85s WALL (     140 calls)

     Called by *egterg:
     cdiaghg      :     20.23s CPU      5.32s WALL (     701 calls)
     cegterg:over :      3.39s CPU      0.89s WALL (     456 calls)
     cegterg:upda :      1.60s CPU      0.42s WALL (     456 calls)
     cegterg:last :      2.69s CPU      0.69s WALL (     358 calls)
     cdiaghg:chol :      1.29s CPU      0.34s WALL (     701 calls)
     cdiaghg:inve :      0.27s CPU      0.07s WALL (     701 calls)
     cdiaghg:para :      3.08s CPU      0.81s WALL (    1402 calls)
     h_psi        :     70.94s CPU     18.54s WALL (     708 calls)
     s_psi        :      1.90s CPU      0.49s WALL (     708 calls)
     g_psi        :      0.11s CPU      0.03s WALL (     456 calls)

     Called by h_psi:
     h_psi:calbec :      2.93s CPU      0.76s WALL (     708 calls)
     vloc_psi     :     65.57s CPU     17.15s WALL (     708 calls)
     add_vuspsi   :      2.25s CPU      0.58s WALL (     708 calls)

     General routines
     calbec       :      4.08s CPU      1.05s WALL (     953 calls)
     fft          :      4.09s CPU      1.28s WALL (     466 calls)
     ffts         :      0.84s CPU      0.30s WALL (      71 calls)
     fftw         :     68.74s CPU     17.96s WALL (  119116 calls)
     interpolate  :      0.91s CPU      0.32s WALL (      36 calls)
 
     Parallel routines

     PAW routines
     PAW_pot      :      4.37s CPU      1.17s WALL (      36 calls)
 
     PWSCF        :   2m39.80s CPU     44.21s WALL

 
   This run was terminated on:   4:18:11  23Jun2023            

=------------------------------------------------------------------------------=
   JOB DONE.
=------------------------------------------------------------------------------=
