
     Program PWSCF v.7.0 starts on  4Jun2023 at 16:12: 6 

     This program is part of the open-source Quantum ESPRESSO suite
     for quantum simulation of materials; please cite
         "P. Giannozzi et al., J. Phys.:Condens. Matter 21 395502 (2009);
         "P. Giannozzi et al., J. Phys.:Condens. Matter 29 465901 (2017);
         "P. Giannozzi et al., J. Chem. Phys. 152 154105 (2020);
          URL http://www.quantum-espresso.org", 
     in publications or presentations arising from this work. More details at
     http://www.quantum-espresso.org/quote

     Parallel version (MPI & OpenMP), running on      32 processor cores
     Number of MPI processes:                 8
     Threads/MPI process:                     4

     MPI processes distributed on     1 nodes
     K-points division:     npool     =       2
     R & G space division:  proc/nbgrp/npool/nimage =       4
     164343 MiB available memory on the printing compute node when the environment starts
 
     Reading input from espresso_5011.pwi
Warning: card &CELL ignored
Warning: card / ignored

     Current dimensions of program PWSCF are:
     Max number of different atomic species (ntypx) = 10
     Max number of k-points (npk) =  40000
     Max angular momentum in pseudopotentials (lmaxx) =  4
     file O.pbe-n-kjpaw_psl.0.1.UPF: wavefunction(s)  2P renormalized
     Message from routine setup:
     using ibrav=0 with symmetry is DISCOURAGED, use correct ibrav instead

     Subspace diagonalization in iterative solution of the eigenvalue problem:
     one sub-group per band group will be used
     scalapack distributed-memory algorithm (size of sub-group:  2*  2 procs)

 
     Parallelization info
     --------------------
     sticks:   dense  smooth     PW     G-vecs:    dense   smooth      PW
     Min         579     291     86                11793     4175     691
     Max         581     292     87                11794     4176     692
     Sum        2319    1167    345                47173    16703    2767
 
     Using Slab Decomposition
 


     bravais-lattice index     =            0
     lattice parameter (alat)  =      11.5949  a.u.
     unit-cell volume          =     750.4825 (a.u.)^3
     number of atoms/cell      =            8
     number of atomic types    =            3
     number of electrons       =        82.00
     number of Kohn-Sham states=           64
     kinetic-energy cutoff     =      30.0000  Ry
     charge density cutoff     =     240.0000  Ry
     scf convergence threshold =      1.0E-06
     mixing beta               =       0.7000
     number of iterations used =            8  plain     mixing
     Exchange-correlation= SLA  PW   PBX  PBC
                           (   1   4   3   4   0   0   0)

     celldm(1)=  11.594866  celldm(2)=   0.000000  celldm(3)=   0.000000
     celldm(4)=   0.000000  celldm(5)=   0.000000  celldm(6)=   0.000000

     crystal axes: (cart. coord. in units of alat)
               a(1) = (   1.000000   0.000000   0.000000 )  
               a(2) = (   0.430793   0.902451   0.000000 )  
               a(3) = (  -0.715397  -0.451225   0.533482 )  

     reciprocal axes: (cart. coord. in units 2 pi/alat)
               b(1) = (  1.000000 -0.477360  0.937238 )  
               b(2) = (  0.000000  1.108094  0.937238 )  
               b(3) = (  0.000000  0.000000  1.874477 )  


     PseudoPot. # 1 for Na read from file:
     /home/pragov/projects/rrg-bengioy-ad/pragov/crystal_structure_design/SSSP/na_pbe_v1.5.uspp.F.UPF
     MD5 check sum: 44600605ef58000f06b90626533354dc
     Pseudo is Ultrasoft, Zval =  9.0
     Generated by new atomic code, or converted to UPF format
     Using radial grid of  819 points,  5 beta functions with: 
                l(1) =   0
                l(2) =   0
                l(3) =   1
                l(4) =   1
                l(5) =   2
     Q(r) pseudized with  8 coefficients,  rinner =    1.250   1.250   1.250
                                                       1.250   1.250

     PseudoPot. # 2 for Dy read from file:
     /home/pragov/projects/rrg-bengioy-ad/pragov/crystal_structure_design/SSSP/Dy.GGA-PBE-paw-v1.0.UPF
     MD5 check sum: 733414aae3e3693a823ce0c917a68f08
     Pseudo is Projector augmented-wave + core cor, Zval = 20.0
     Generated using ATOMPAW code
     Shape of augmentation charge: BESSEL
     Using radial grid of 1112 points,  8 beta functions with: 
                l(1) =   0
                l(2) =   0
                l(3) =   1
                l(4) =   1
                l(5) =   2
                l(6) =   2
                l(7) =   3
                l(8) =   3
     Q(r) pseudized with 0 coefficients 


     PseudoPot. # 3 for O  read from file:
     /home/pragov/projects/rrg-bengioy-ad/pragov/crystal_structure_design/SSSP/O.pbe-n-kjpaw_psl.0.1.UPF
     MD5 check sum: 0234752ac141de4415c5fc33072bef88
     Pseudo is Projector augmented-wave + core cor, Zval =  6.0
     Generated using "atomic" code by A. Dal Corso  v.5.0.99 svn rev. 10869
     Shape of augmentation charge: BESSEL
     Using radial grid of 1095 points,  4 beta functions with: 
                l(1) =   0
                l(2) =   0
                l(3) =   1
                l(4) =   1
     Q(r) pseudized with 0 coefficients 


     atomic species   valence    mass     pseudopotential
        Na             9.00    22.98977     Na( 1.00)
        Dy            20.00   162.50000     Dy( 1.00)
        O              6.00    15.99900     O ( 1.00)

      4 Sym. Ops., with inversion, found ( 2 have fractional translation)


                                    s                        frac. trans.

      isym =  1     identity                                     

 cryst.   s( 1) = (     1          0          0      )
                  (     0          1          0      )
                  (     0          0          1      )

 cart.    s( 1) = (  1.0000000  0.0000000  0.0000000 )
                  (  0.0000000  1.0000000  0.0000000 )
                  (  0.0000000  0.0000000  1.0000000 )


      isym =  2     180 deg rotation - cart. axis [0,0,1]        

 cryst.   s( 2) = (    -1          0          0      )
                  (     0         -1          0      )
                  (     1          1          1      )

 cart.    s( 2) = ( -1.0000000 -0.0000000  0.0000000 )
                  (  0.0000000 -1.0000000  0.0000000 )
                  (  0.0000000  0.0000000  1.0000000 )


      isym =  3     inversion                                    

 cryst.   s( 3) = (    -1          0          0      )    f =(  0.2500000 )
                  (     0         -1          0      )       ( -0.2500000 )
                  (     0          0         -1      )       (  0.5000000 )

 cart.    s( 3) = ( -1.0000000 -0.0000000 -0.0000000 )    f =( -0.2153967 )
                  (  0.0000000 -1.0000000 -0.0000000 )       ( -0.4512253 )
                  (  0.0000000  0.0000000 -1.0000000 )       (  0.2667411 )


      isym =  4     inv. 180 deg rotation - cart. axis [0,0,1]   

 cryst.   s( 4) = (     1          0          0      )    f =(  0.2500000 )
                  (     0          1          0      )       ( -0.2500000 )
                  (    -1         -1         -1      )       (  0.5000000 )

 cart.    s( 4) = (  1.0000000  0.0000000 -0.0000000 )    f =( -0.2153967 )
                  (  0.0000000  1.0000000 -0.0000000 )       ( -0.4512253 )
                  (  0.0000000  0.0000000 -1.0000000 )       (  0.2667411 )


   Cartesian axes

     site n.     atom                  positions (alat units)
         1           Na  tau(   1) = (   0.0000000   0.0000000   0.0000000  )
         2           Na  tau(   2) = (   0.5000000   0.0000000   0.2667411  )
         3           Dy  tau(   3) = (   0.7153967   0.4512253   0.0000000  )
         4           Dy  tau(   4) = (   0.2153967   0.4512253   0.2667411  )
         5           O   tau(   5) = (   0.5322831   0.6510964   0.2667411  )
         6           O   tau(   6) = (   0.3985103   0.2513541   0.0000000  )
         7           O   tau(   7) = (   1.0322831   0.6510964   0.0000000  )
         8           O   tau(   8) = (  -0.1014897   0.2513541   0.2667411  )

   Crystallographic axes

     site n.     atom                  positions (cryst. coord.)
         1           Na  tau(   1) = (  0.0000000  0.0000000  0.0000000  )
         2           Na  tau(   2) = (  0.7500000  0.2500000  0.5000000  )
         3           Dy  tau(   3) = (  0.5000000  0.5000000  0.0000000  )
         4           Dy  tau(   4) = (  0.2500000  0.7500000  0.5000000  )
         5           O   tau(   5) = (  0.4714760  0.9714760  0.5000000  )
         6           O   tau(   6) = (  0.2785240  0.2785240  0.0000000  )
         7           O   tau(   7) = (  0.7214760  0.7214760  0.0000000  )
         8           O   tau(   8) = (  0.0285240  0.5285240  0.5000000  )

     number of k points=    10
                       cart. coord. in units 2pi/alat
        k(    1) = (   0.0000000   0.0000000   0.0000000), wk =   0.0740741
        k(    2) = (   0.0000000   0.0000000   0.6248256), wk =   0.1481481
        k(    3) = (   0.0000000   0.3693646   0.3124128), wk =   0.2962963
        k(    4) = (   0.0000000   0.3693646   0.9372383), wk =   0.1481481
        k(    5) = (   0.3333333  -0.1591199   0.3124128), wk =   0.2962963
        k(    6) = (   0.3333333  -0.1591199   0.9372383), wk =   0.1481481
        k(    7) = (   0.3333333   0.2102448   0.6248256), wk =   0.2962963
        k(    8) = (   0.3333333   0.2102448  -0.0000000), wk =   0.1481481
        k(    9) = (   0.3333333  -0.5284845  -0.0000000), wk =   0.1481481
        k(   10) = (   0.3333333  -0.5284845   0.6248256), wk =   0.2962963

                       cryst. coord.
        k(    1) = (   0.0000000   0.0000000   0.0000000), wk =   0.0740741
        k(    2) = (   0.0000000   0.0000000   0.3333333), wk =   0.1481481
        k(    3) = (   0.0000000   0.3333333   0.0000000), wk =   0.2962963
        k(    4) = (   0.0000000   0.3333333   0.3333333), wk =   0.1481481
        k(    5) = (   0.3333333   0.0000000  -0.0000000), wk =   0.2962963
        k(    6) = (   0.3333333   0.0000000   0.3333333), wk =   0.1481481
        k(    7) = (   0.3333333   0.3333333  -0.0000000), wk =   0.2962963
        k(    8) = (   0.3333333   0.3333333  -0.3333333), wk =   0.1481481
        k(    9) = (   0.3333333  -0.3333333  -0.0000000), wk =   0.1481481
        k(   10) = (   0.3333333  -0.3333333   0.3333333), wk =   0.2962963

     Dense  grid:    47173 G-vectors     FFT dimensions: (  60,  60,  60)

     Smooth grid:    16703 G-vectors     FFT dimensions: (  48,  48,  48)

     Dynamical RAM for                 wfc:       0.51 MB

     Dynamical RAM for     wfc (w. buffer):       3.05 MB

     Dynamical RAM for           str. fact:       0.54 MB

     Dynamical RAM for           local pot:       0.00 MB

     Dynamical RAM for          nlocal pot:       0.97 MB

     Dynamical RAM for                qrad:       8.96 MB

     Dynamical RAM for          rho,v,vnew:       1.78 MB

     Dynamical RAM for               rhoin:       0.59 MB

     Dynamical RAM for            rho*nmix:       2.88 MB

     Dynamical RAM for           G-vectors:       0.71 MB

     Dynamical RAM for          h,s,v(r/c):       0.19 MB

     Dynamical RAM for          <psi|beta>:       0.12 MB

     Dynamical RAM for                 psi:       1.02 MB

     Dynamical RAM for                hpsi:       1.02 MB

     Dynamical RAM for                spsi:       1.02 MB

     Dynamical RAM for      wfcinit/wfcrot:       1.61 MB

     Dynamical RAM for           addusdens:      50.38 MB

     Estimated static dynamical RAM per process >      19.37 MB

     Estimated max dynamical RAM per process >      72.63 MB

     Estimated total dynamical RAM >     569.49 MB

     Check: negative core charge=   -0.000011

     Initial potential from superposition of free atoms

     starting charge      81.9798, renormalised to      82.0000
     Starting wfcs are   90 randomized atomic wfcs
     Checking if some PAW data can be deallocated... 
       PAW data deallocated on    6 nodes for type:  2
       PAW data deallocated on    4 nodes for type:  3

     total cpu time spent up to now is        5.0 secs

     Self-consistent Calculation

     iteration #  1     ecut=    30.00 Ry     beta= 0.70
     Davidson diagonalization with overlap

---- Real-time Memory Report at c_bands before calling an iterative solver
           216 MiB given to the printing process from OS
             0 MiB allocation reported by mallinfo(arena+hblkhd)
        163525 MiB available memory on the node where the printing process lives
------------------
     ethr =  1.00E-02,  avg # of iterations =  6.6

     total cpu time spent up to now is       10.8 secs

     total energy              =   -1910.90444784 Ry
     estimated scf accuracy    <       1.78110750 Ry

     iteration #  2     ecut=    30.00 Ry     beta= 0.70
     Davidson diagonalization with overlap

---- Real-time Memory Report at c_bands before calling an iterative solver
           276 MiB given to the printing process from OS
             0 MiB allocation reported by mallinfo(arena+hblkhd)
        163383 MiB available memory on the node where the printing process lives
------------------
     ethr =  2.17E-03,  avg # of iterations =  2.0

     total cpu time spent up to now is       14.7 secs

     total energy              =   -1906.14065978 Ry
     estimated scf accuracy    <      41.85041004 Ry

     iteration #  3     ecut=    30.00 Ry     beta= 0.70
     Davidson diagonalization with overlap

---- Real-time Memory Report at c_bands before calling an iterative solver
           281 MiB given to the printing process from OS
             0 MiB allocation reported by mallinfo(arena+hblkhd)
        163340 MiB available memory on the node where the printing process lives
------------------
     ethr =  2.17E-03,  avg # of iterations =  2.7

     total cpu time spent up to now is       18.7 secs

     total energy              =   -1908.79803197 Ry
     estimated scf accuracy    <      30.52433123 Ry

     iteration #  4     ecut=    30.00 Ry     beta= 0.70
     Davidson diagonalization with overlap

---- Real-time Memory Report at c_bands before calling an iterative solver
           282 MiB given to the printing process from OS
             0 MiB allocation reported by mallinfo(arena+hblkhd)
        163343 MiB available memory on the node where the printing process lives
------------------
     ethr =  2.17E-03,  avg # of iterations =  2.1

     total cpu time spent up to now is       22.3 secs

     total energy              =   -1912.13932485 Ry
     estimated scf accuracy    <       0.60584049 Ry

     iteration #  5     ecut=    30.00 Ry     beta= 0.70
     Davidson diagonalization with overlap

---- Real-time Memory Report at c_bands before calling an iterative solver
           282 MiB given to the printing process from OS
             0 MiB allocation reported by mallinfo(arena+hblkhd)
        163342 MiB available memory on the node where the printing process lives
------------------
     ethr =  7.39E-04,  avg # of iterations =  1.0

     total cpu time spent up to now is       26.3 secs

     total energy              =   -1912.19327923 Ry
     estimated scf accuracy    <       0.61448419 Ry

     iteration #  6     ecut=    30.00 Ry     beta= 0.70
     Davidson diagonalization with overlap

---- Real-time Memory Report at c_bands before calling an iterative solver
           282 MiB given to the printing process from OS
             0 MiB allocation reported by mallinfo(arena+hblkhd)
        163341 MiB available memory on the node where the printing process lives
------------------
     ethr =  7.39E-04,  avg # of iterations =  1.0

     total cpu time spent up to now is       29.7 secs

     total energy              =   -1912.28890062 Ry
     estimated scf accuracy    <       0.73037547 Ry

     iteration #  7     ecut=    30.00 Ry     beta= 0.70
     Davidson diagonalization with overlap

---- Real-time Memory Report at c_bands before calling an iterative solver
           285 MiB given to the printing process from OS
             0 MiB allocation reported by mallinfo(arena+hblkhd)
        163341 MiB available memory on the node where the printing process lives
------------------
     ethr =  7.39E-04,  avg # of iterations =  1.0

     total cpu time spent up to now is       33.6 secs

     total energy              =   -1911.52241278 Ry
     estimated scf accuracy    <       0.86362183 Ry

     iteration #  8     ecut=    30.00 Ry     beta= 0.70
     Davidson diagonalization with overlap

---- Real-time Memory Report at c_bands before calling an iterative solver
           285 MiB given to the printing process from OS
             0 MiB allocation reported by mallinfo(arena+hblkhd)
        163342 MiB available memory on the node where the printing process lives
------------------
     ethr =  7.39E-04,  avg # of iterations =  2.0

     total cpu time spent up to now is       37.1 secs

     total energy              =   -1911.75656397 Ry
     estimated scf accuracy    <       9.04616303 Ry

     iteration #  9     ecut=    30.00 Ry     beta= 0.70
     Davidson diagonalization with overlap

---- Real-time Memory Report at c_bands before calling an iterative solver
           285 MiB given to the printing process from OS
             0 MiB allocation reported by mallinfo(arena+hblkhd)
        163345 MiB available memory on the node where the printing process lives
------------------
     ethr =  7.39E-04,  avg # of iterations =  1.0

     total cpu time spent up to now is       41.0 secs

     total energy              =   -1912.25943307 Ry
     estimated scf accuracy    <       0.59018866 Ry

     iteration # 10     ecut=    30.00 Ry     beta= 0.70
     Davidson diagonalization with overlap

---- Real-time Memory Report at c_bands before calling an iterative solver
           285 MiB given to the printing process from OS
             0 MiB allocation reported by mallinfo(arena+hblkhd)
        163346 MiB available memory on the node where the printing process lives
------------------
     ethr =  7.20E-04,  avg # of iterations =  1.0

     total cpu time spent up to now is       45.3 secs

     total energy              =   -1912.31580197 Ry
     estimated scf accuracy    <       0.57030354 Ry

     iteration # 11     ecut=    30.00 Ry     beta= 0.70
     Davidson diagonalization with overlap

---- Real-time Memory Report at c_bands before calling an iterative solver
           286 MiB given to the printing process from OS
             0 MiB allocation reported by mallinfo(arena+hblkhd)
        163346 MiB available memory on the node where the printing process lives
------------------
     ethr =  6.95E-04,  avg # of iterations =  1.0

     total cpu time spent up to now is       49.7 secs

     total energy              =   -1912.11399738 Ry
     estimated scf accuracy    <       0.55744861 Ry

     iteration # 12     ecut=    30.00 Ry     beta= 0.70
     Davidson diagonalization with overlap

---- Real-time Memory Report at c_bands before calling an iterative solver
           286 MiB given to the printing process from OS
             0 MiB allocation reported by mallinfo(arena+hblkhd)
        163345 MiB available memory on the node where the printing process lives
------------------
     ethr =  6.80E-04,  avg # of iterations =  1.0

     total cpu time spent up to now is       54.1 secs

     total energy              =   -1912.40660935 Ry
     estimated scf accuracy    <       0.33120870 Ry

     iteration # 13     ecut=    30.00 Ry     beta= 0.70
     Davidson diagonalization with overlap

---- Real-time Memory Report at c_bands before calling an iterative solver
           286 MiB given to the printing process from OS
             0 MiB allocation reported by mallinfo(arena+hblkhd)
        163347 MiB available memory on the node where the printing process lives
------------------
     ethr =  4.04E-04,  avg # of iterations =  2.0

     total cpu time spent up to now is       58.0 secs

     total energy              =   -1911.48058745 Ry
     estimated scf accuracy    <       4.86251014 Ry

     iteration # 14     ecut=    30.00 Ry     beta= 0.70
     Davidson diagonalization with overlap

---- Real-time Memory Report at c_bands before calling an iterative solver
           286 MiB given to the printing process from OS
             0 MiB allocation reported by mallinfo(arena+hblkhd)
        163348 MiB available memory on the node where the printing process lives
------------------
     ethr =  4.04E-04,  avg # of iterations =  2.1

     total cpu time spent up to now is       63.0 secs

     total energy              =   -1912.13033226 Ry
     estimated scf accuracy    <       0.34540461 Ry

     iteration # 15     ecut=    30.00 Ry     beta= 0.70
     Davidson diagonalization with overlap

---- Real-time Memory Report at c_bands before calling an iterative solver
           286 MiB given to the printing process from OS
             0 MiB allocation reported by mallinfo(arena+hblkhd)
        163348 MiB available memory on the node where the printing process lives
------------------
     ethr =  4.04E-04,  avg # of iterations =  1.0

     total cpu time spent up to now is       68.4 secs

     total energy              =   -1912.09262862 Ry
     estimated scf accuracy    <       0.33166790 Ry

     iteration # 16     ecut=    30.00 Ry     beta= 0.70
     Davidson diagonalization with overlap

---- Real-time Memory Report at c_bands before calling an iterative solver
           286 MiB given to the printing process from OS
             0 MiB allocation reported by mallinfo(arena+hblkhd)
        163347 MiB available memory on the node where the printing process lives
------------------
     ethr =  4.04E-04,  avg # of iterations =  1.0

     total cpu time spent up to now is       79.9 secs

     total energy              =   -1911.62873339 Ry
     estimated scf accuracy    <       0.25797342 Ry

     iteration # 17     ecut=    30.00 Ry     beta= 0.70
     Davidson diagonalization with overlap

---- Real-time Memory Report at c_bands before calling an iterative solver
           286 MiB given to the printing process from OS
             0 MiB allocation reported by mallinfo(arena+hblkhd)
        163349 MiB available memory on the node where the printing process lives
------------------
     ethr =  3.15E-04,  avg # of iterations =  2.0

     total cpu time spent up to now is       84.1 secs

     total energy              =   -1911.95950996 Ry
     estimated scf accuracy    <       0.70232853 Ry

     iteration # 18     ecut=    30.00 Ry     beta= 0.70
     Davidson diagonalization with overlap

---- Real-time Memory Report at c_bands before calling an iterative solver
           286 MiB given to the printing process from OS
             0 MiB allocation reported by mallinfo(arena+hblkhd)
        163353 MiB available memory on the node where the printing process lives
------------------
     ethr =  3.15E-04,  avg # of iterations =  1.3

     total cpu time spent up to now is       87.3 secs

     total energy              =   -1911.95904452 Ry
     estimated scf accuracy    <       0.13465414 Ry

     iteration # 19     ecut=    30.00 Ry     beta= 0.70
     Davidson diagonalization with overlap

---- Real-time Memory Report at c_bands before calling an iterative solver
           286 MiB given to the printing process from OS
             0 MiB allocation reported by mallinfo(arena+hblkhd)
        163351 MiB available memory on the node where the printing process lives
------------------
     ethr =  1.64E-04,  avg # of iterations =  1.0

     total cpu time spent up to now is       90.2 secs

     total energy              =   -1911.97412883 Ry
     estimated scf accuracy    <       0.05659862 Ry

     iteration # 20     ecut=    30.00 Ry     beta= 0.70
     Davidson diagonalization with overlap

---- Real-time Memory Report at c_bands before calling an iterative solver
           286 MiB given to the printing process from OS
             0 MiB allocation reported by mallinfo(arena+hblkhd)
        163356 MiB available memory on the node where the printing process lives
------------------
     ethr =  6.90E-05,  avg # of iterations =  1.0

     total cpu time spent up to now is       94.1 secs

     total energy              =   -1911.96129035 Ry
     estimated scf accuracy    <       0.14039369 Ry

     iteration # 21     ecut=    30.00 Ry     beta= 0.70
     Davidson diagonalization with overlap

---- Real-time Memory Report at c_bands before calling an iterative solver
           286 MiB given to the printing process from OS
             0 MiB allocation reported by mallinfo(arena+hblkhd)
        163354 MiB available memory on the node where the printing process lives
------------------
     ethr =  6.90E-05,  avg # of iterations =  1.0

     total cpu time spent up to now is       96.8 secs

     total energy              =   -1911.97495961 Ry
     estimated scf accuracy    <       0.03498461 Ry

     iteration # 22     ecut=    30.00 Ry     beta= 0.70
     Davidson diagonalization with overlap

---- Real-time Memory Report at c_bands before calling an iterative solver
           286 MiB given to the printing process from OS
             0 MiB allocation reported by mallinfo(arena+hblkhd)
        163351 MiB available memory on the node where the printing process lives
------------------
     ethr =  4.27E-05,  avg # of iterations =  1.0

     total cpu time spent up to now is      102.3 secs

     total energy              =   -1911.97603053 Ry
     estimated scf accuracy    <       0.02178328 Ry

     iteration # 23     ecut=    30.00 Ry     beta= 0.70
     Davidson diagonalization with overlap

---- Real-time Memory Report at c_bands before calling an iterative solver
           286 MiB given to the printing process from OS
             0 MiB allocation reported by mallinfo(arena+hblkhd)
        163351 MiB available memory on the node where the printing process lives
------------------
     ethr =  2.66E-05,  avg # of iterations =  1.0

     total cpu time spent up to now is      107.8 secs

     total energy              =   -1911.97633826 Ry
     estimated scf accuracy    <       0.04248487 Ry

     iteration # 24     ecut=    30.00 Ry     beta= 0.70
     Davidson diagonalization with overlap

---- Real-time Memory Report at c_bands before calling an iterative solver
           286 MiB given to the printing process from OS
             0 MiB allocation reported by mallinfo(arena+hblkhd)
        163349 MiB available memory on the node where the printing process lives
------------------
     ethr =  2.66E-05,  avg # of iterations =  1.0

     total cpu time spent up to now is      111.4 secs

     total energy              =   -1911.97713735 Ry
     estimated scf accuracy    <       0.03092970 Ry

     iteration # 25     ecut=    30.00 Ry     beta= 0.70
     Davidson diagonalization with overlap

---- Real-time Memory Report at c_bands before calling an iterative solver
           286 MiB given to the printing process from OS
             0 MiB allocation reported by mallinfo(arena+hblkhd)
        163347 MiB available memory on the node where the printing process lives
------------------
     ethr =  2.66E-05,  avg # of iterations =  1.0

     total cpu time spent up to now is      114.6 secs

     total energy              =   -1911.96943874 Ry
     estimated scf accuracy    <       0.03249707 Ry

     iteration # 26     ecut=    30.00 Ry     beta= 0.70
     Davidson diagonalization with overlap

---- Real-time Memory Report at c_bands before calling an iterative solver
           286 MiB given to the printing process from OS
             0 MiB allocation reported by mallinfo(arena+hblkhd)
        163349 MiB available memory on the node where the printing process lives
------------------
     ethr =  2.66E-05,  avg # of iterations =  1.0

     total cpu time spent up to now is      122.7 secs

     total energy              =   -1911.96957132 Ry
     estimated scf accuracy    <       0.02072498 Ry

     iteration # 27     ecut=    30.00 Ry     beta= 0.70
     Davidson diagonalization with overlap

---- Real-time Memory Report at c_bands before calling an iterative solver
           286 MiB given to the printing process from OS
             0 MiB allocation reported by mallinfo(arena+hblkhd)
        163352 MiB available memory on the node where the printing process lives
------------------
     ethr =  2.53E-05,  avg # of iterations =  1.0

     total cpu time spent up to now is      125.5 secs

     total energy              =   -1911.97366145 Ry
     estimated scf accuracy    <       0.00441142 Ry

     iteration # 28     ecut=    30.00 Ry     beta= 0.70
     Davidson diagonalization with overlap

---- Real-time Memory Report at c_bands before calling an iterative solver
           286 MiB given to the printing process from OS
             0 MiB allocation reported by mallinfo(arena+hblkhd)
        163352 MiB available memory on the node where the printing process lives
------------------
     ethr =  5.38E-06,  avg # of iterations =  1.1

     total cpu time spent up to now is      128.7 secs

     total energy              =   -1911.97377772 Ry
     estimated scf accuracy    <       0.00243359 Ry

     iteration # 29     ecut=    30.00 Ry     beta= 0.70
     Davidson diagonalization with overlap

---- Real-time Memory Report at c_bands before calling an iterative solver
           286 MiB given to the printing process from OS
             0 MiB allocation reported by mallinfo(arena+hblkhd)
        163352 MiB available memory on the node where the printing process lives
------------------
     ethr =  2.97E-06,  avg # of iterations =  1.2

     total cpu time spent up to now is      135.3 secs

     total energy              =   -1911.97363188 Ry
     estimated scf accuracy    <       0.00120921 Ry

     iteration # 30     ecut=    30.00 Ry     beta= 0.70
     Davidson diagonalization with overlap

---- Real-time Memory Report at c_bands before calling an iterative solver
           286 MiB given to the printing process from OS
             0 MiB allocation reported by mallinfo(arena+hblkhd)
        163352 MiB available memory on the node where the printing process lives
------------------
     ethr =  1.47E-06,  avg # of iterations =  1.7

     total cpu time spent up to now is      138.9 secs

     total energy              =   -1911.97416589 Ry
     estimated scf accuracy    <       0.00054101 Ry

     iteration # 31     ecut=    30.00 Ry     beta= 0.70
     Davidson diagonalization with overlap

---- Real-time Memory Report at c_bands before calling an iterative solver
           286 MiB given to the printing process from OS
             0 MiB allocation reported by mallinfo(arena+hblkhd)
        163347 MiB available memory on the node where the printing process lives
------------------
     ethr =  6.60E-07,  avg # of iterations =  1.0

     total cpu time spent up to now is      143.4 secs

     total energy              =   -1911.97428735 Ry
     estimated scf accuracy    <       0.00042767 Ry

     iteration # 32     ecut=    30.00 Ry     beta= 0.70
     Davidson diagonalization with overlap

---- Real-time Memory Report at c_bands before calling an iterative solver
           286 MiB given to the printing process from OS
             0 MiB allocation reported by mallinfo(arena+hblkhd)
        163347 MiB available memory on the node where the printing process lives
------------------
     ethr =  5.22E-07,  avg # of iterations =  1.0

     total cpu time spent up to now is      148.4 secs

     total energy              =   -1911.97436468 Ry
     estimated scf accuracy    <       0.00042403 Ry

     iteration # 33     ecut=    30.00 Ry     beta= 0.70
     Davidson diagonalization with overlap

---- Real-time Memory Report at c_bands before calling an iterative solver
           286 MiB given to the printing process from OS
             0 MiB allocation reported by mallinfo(arena+hblkhd)
        163344 MiB available memory on the node where the printing process lives
------------------
     ethr =  5.17E-07,  avg # of iterations =  1.0

     total cpu time spent up to now is      152.0 secs

     total energy              =   -1911.97441831 Ry
     estimated scf accuracy    <       0.00014353 Ry

     iteration # 34     ecut=    30.00 Ry     beta= 0.70
     Davidson diagonalization with overlap

---- Real-time Memory Report at c_bands before calling an iterative solver
           286 MiB given to the printing process from OS
             0 MiB allocation reported by mallinfo(arena+hblkhd)
        163347 MiB available memory on the node where the printing process lives
------------------
     ethr =  1.75E-07,  avg # of iterations =  1.0

     total cpu time spent up to now is      155.6 secs

     total energy              =   -1911.97443157 Ry
     estimated scf accuracy    <       0.00004794 Ry

     iteration # 35     ecut=    30.00 Ry     beta= 0.70
     Davidson diagonalization with overlap

---- Real-time Memory Report at c_bands before calling an iterative solver
           286 MiB given to the printing process from OS
             0 MiB allocation reported by mallinfo(arena+hblkhd)
        163343 MiB available memory on the node where the printing process lives
------------------
     ethr =  5.85E-08,  avg # of iterations =  1.0

     total cpu time spent up to now is      159.1 secs

     total energy              =   -1911.97446089 Ry
     estimated scf accuracy    <       0.00006164 Ry

     iteration # 36     ecut=    30.00 Ry     beta= 0.70
     Davidson diagonalization with overlap

---- Real-time Memory Report at c_bands before calling an iterative solver
           286 MiB given to the printing process from OS
             0 MiB allocation reported by mallinfo(arena+hblkhd)
        163346 MiB available memory on the node where the printing process lives
------------------
     ethr =  5.85E-08,  avg # of iterations =  1.0

     total cpu time spent up to now is      165.9 secs

     total energy              =   -1911.97447551 Ry
     estimated scf accuracy    <       0.00002453 Ry

     iteration # 37     ecut=    30.00 Ry     beta= 0.70
     Davidson diagonalization with overlap

---- Real-time Memory Report at c_bands before calling an iterative solver
           286 MiB given to the printing process from OS
             0 MiB allocation reported by mallinfo(arena+hblkhd)
        163344 MiB available memory on the node where the printing process lives
------------------
     ethr =  2.99E-08,  avg # of iterations =  1.0

     total cpu time spent up to now is      168.8 secs

     total energy              =   -1911.97448654 Ry
     estimated scf accuracy    <       0.00001890 Ry

     iteration # 38     ecut=    30.00 Ry     beta= 0.70
     Davidson diagonalization with overlap

---- Real-time Memory Report at c_bands before calling an iterative solver
           286 MiB given to the printing process from OS
             0 MiB allocation reported by mallinfo(arena+hblkhd)
        163343 MiB available memory on the node where the printing process lives
------------------
     ethr =  2.30E-08,  avg # of iterations =  1.2

     total cpu time spent up to now is      173.6 secs

     total energy              =   -1911.97449539 Ry
     estimated scf accuracy    <       0.00001702 Ry

     iteration # 39     ecut=    30.00 Ry     beta= 0.70
     Davidson diagonalization with overlap

---- Real-time Memory Report at c_bands before calling an iterative solver
           286 MiB given to the printing process from OS
             0 MiB allocation reported by mallinfo(arena+hblkhd)
        163345 MiB available memory on the node where the printing process lives
------------------
     ethr =  2.08E-08,  avg # of iterations =  1.0

     total cpu time spent up to now is      177.2 secs

     total energy              =   -1911.97450431 Ry
     estimated scf accuracy    <       0.00002084 Ry

     iteration # 40     ecut=    30.00 Ry     beta= 0.70
     Davidson diagonalization with overlap

---- Real-time Memory Report at c_bands before calling an iterative solver
           286 MiB given to the printing process from OS
             0 MiB allocation reported by mallinfo(arena+hblkhd)
        163345 MiB available memory on the node where the printing process lives
------------------
     ethr =  2.08E-08,  avg # of iterations =  1.0

     total cpu time spent up to now is      180.8 secs

     total energy              =   -1911.97451700 Ry
     estimated scf accuracy    <       0.00000482 Ry

     iteration # 41     ecut=    30.00 Ry     beta= 0.70
     Davidson diagonalization with overlap

---- Real-time Memory Report at c_bands before calling an iterative solver
           286 MiB given to the printing process from OS
             0 MiB allocation reported by mallinfo(arena+hblkhd)
        163345 MiB available memory on the node where the printing process lives
------------------
     ethr =  5.88E-09,  avg # of iterations =  1.0

     total cpu time spent up to now is      184.3 secs

     total energy              =   -1911.97452026 Ry
     estimated scf accuracy    <       0.00000161 Ry

     iteration # 42     ecut=    30.00 Ry     beta= 0.70
     Davidson diagonalization with overlap

---- Real-time Memory Report at c_bands before calling an iterative solver
           286 MiB given to the printing process from OS
             0 MiB allocation reported by mallinfo(arena+hblkhd)
        163344 MiB available memory on the node where the printing process lives
------------------
     ethr =  1.96E-09,  avg # of iterations =  1.0

     total cpu time spent up to now is      187.1 secs

     total energy              =   -1911.97452042 Ry
     estimated scf accuracy    <       0.00000147 Ry

     iteration # 43     ecut=    30.00 Ry     beta= 0.70
     Davidson diagonalization with overlap

---- Real-time Memory Report at c_bands before calling an iterative solver
           286 MiB given to the printing process from OS
             0 MiB allocation reported by mallinfo(arena+hblkhd)
        163345 MiB available memory on the node where the printing process lives
------------------
     ethr =  1.79E-09,  avg # of iterations =  1.0

     total cpu time spent up to now is      189.8 secs

     End of self-consistent calculation

          k = 0.0000 0.0000 0.0000 (  2073 PWs)   bands (ev):

   -40.9577 -40.9529 -34.6111 -34.5465 -12.9525 -12.9137 -12.8822 -12.8819
   -12.8778 -12.8774 -11.4711 -10.8608 -10.8429 -10.6930 -10.6921 -10.6739
    -7.7020  -7.4877  -7.0120  -6.7326   6.4109   6.9350   6.9419   6.9950
     7.0199   7.1151   7.1176   7.5601   7.5613   7.6858   7.7966   7.8023
     9.7929   9.8129   9.8259   9.8470   9.8545   9.8556   9.9471   9.9544
    10.0716  10.0944  10.1484  10.3616  10.3986  10.4244  12.3960  13.2654
    15.1071  15.1140  15.5580  15.6860  15.6939  16.8792  17.7613  18.0392
    18.0889  18.9378  19.5469  19.5508  20.0088  21.9247  22.8553  23.1748

     occupation numbers 
     1.0000   1.0000   1.0000   1.0000   1.0000   1.0000   1.0000   1.0000
     1.0000   1.0000   1.0000   1.0000   1.0000   1.0000   1.0000   1.0000
     1.0000   1.0000   1.0000   1.0000   1.0000   1.0000   1.0000   1.0000
     1.0000   1.0000   1.0000   1.0000   1.0000   1.0000   1.0000   1.0000
     1.0000   1.0000   1.0000   1.0000   1.0000   1.0000   1.0000   1.0000
     1.0000   0.0000   0.0000   0.0000   0.0000   0.0000   0.0000   0.0000
     0.0000   0.0000   0.0000   0.0000   0.0000   0.0000   0.0000   0.0000
     0.0000   0.0000   0.0000   0.0000   0.0000   0.0000   0.0000   0.0000

          k = 0.0000 0.0000 0.6248 (  2079 PWs)   bands (ev):

   -40.9561 -40.9542 -34.5931 -34.5607 -12.9563 -12.9563 -12.9172 -12.9120
   -12.9018 -12.8943 -11.5785 -11.4053 -11.1281 -11.0774 -10.6235 -10.5008
    -6.8398  -6.7647  -6.3788  -6.2401   5.6827   5.7628   6.3598   6.3614
     6.3751   6.6444   6.8503   6.9738   7.0936   7.5209   7.7351   7.8036
     9.8012   9.8056   9.8118   9.8258   9.8413   9.8789   9.8803   9.8915
     9.9480   9.9884  10.0301  10.0394  10.0536  10.1954  14.7127  15.0535
    15.2239  15.2387  15.8585  16.0805  16.6822  16.7995  18.6760  18.9085
    19.0257  19.4068  19.6966  20.4243  21.0924  21.1372  21.2881  22.5026

     occupation numbers 
     1.0000   1.0000   1.0000   1.0000   1.0000   1.0000   1.0000   1.0000
     1.0000   1.0000   1.0000   1.0000   1.0000   1.0000   1.0000   1.0000
     1.0000   1.0000   1.0000   1.0000   1.0000   1.0000   1.0000   1.0000
     1.0000   1.0000   1.0000   1.0000   1.0000   1.0000   1.0000   1.0000
     1.0000   1.0000   1.0000   1.0000   1.0000   1.0000   1.0000   1.0000
     1.0000   0.0000   0.0000   0.0000   0.0000   0.0000   0.0000   0.0000
     0.0000   0.0000   0.0000   0.0000   0.0000   0.0000   0.0000   0.0000
     0.0000   0.0000   0.0000   0.0000   0.0000   0.0000   0.0000   0.0000

          k = 0.0000 0.3694 0.3124 (  2088 PWs)   bands (ev):

   -40.9568 -40.9541 -34.5993 -34.5565 -12.9477 -12.9314 -12.9008 -12.8925
   -12.8832 -12.8701 -11.5411 -11.3455 -10.8751 -10.8397 -10.6644 -10.5987
    -7.2921  -7.2665  -6.5545  -6.4168   5.9758   6.2390   6.5289   6.7166
     6.9255   6.9571   7.0049   7.1402   7.3405   7.5148   7.6886   7.7812
     9.7892   9.8095   9.8317   9.8421   9.8450   9.8637   9.9373   9.9699
     9.9805  10.0297  10.0581  10.0705  10.2660  10.3399  14.0059  14.3262
    14.7309  14.7902  15.8023  15.9957  16.2435  17.0257  17.4840  18.1955
    18.9270  19.6069  19.8423  19.9415  20.6190  21.5249  22.3732  22.4851

     occupation numbers 
     1.0000   1.0000   1.0000   1.0000   1.0000   1.0000   1.0000   1.0000
     1.0000   1.0000   1.0000   1.0000   1.0000   1.0000   1.0000   1.0000
     1.0000   1.0000   1.0000   1.0000   1.0000   1.0000   1.0000   1.0000
     1.0000   1.0000   1.0000   1.0000   1.0000   1.0000   1.0000   1.0000
     1.0000   1.0000   1.0000   1.0000   1.0000   1.0000   1.0000   1.0000
     1.0000   0.0000   0.0000   0.0000   0.0000   0.0000   0.0000   0.0000
     0.0000   0.0000   0.0000   0.0000   0.0000   0.0000   0.0000   0.0000
     0.0000   0.0000   0.0000   0.0000   0.0000   0.0000   0.0000   0.0000

          k = 0.0000 0.3694 0.9372 (  2081 PWs)   bands (ev):

   -40.9560 -40.9547 -34.5850 -34.5688 -12.9519 -12.9485 -12.9278 -12.9175
   -12.8971 -12.8962 -11.5293 -11.4687 -11.1320 -11.0586 -10.5861 -10.5491
    -6.7832  -6.7689  -6.3776  -6.2841   5.7704   5.8202   6.0832   6.2503
     6.5515   6.6402   6.6670   6.8694   7.4723   7.5444   7.7218   7.7542
     9.7913   9.7992   9.8076   9.8253   9.8562   9.8597   9.8877   9.9083
     9.9962  10.0174  10.0296  10.0320  10.0548  10.1416  14.5931  14.7949
    15.4042  15.4936  15.6954  16.0876  16.6514  17.3765  17.4549  18.2527
    19.7065  19.8533  20.3710  20.4001  20.7367  21.2342  21.9255  23.0572

     occupation numbers 
     1.0000   1.0000   1.0000   1.0000   1.0000   1.0000   1.0000   1.0000
     1.0000   1.0000   1.0000   1.0000   1.0000   1.0000   1.0000   1.0000
     1.0000   1.0000   1.0000   1.0000   1.0000   1.0000   1.0000   1.0000
     1.0000   1.0000   1.0000   1.0000   1.0000   1.0000   1.0000   1.0000
     1.0000   1.0000   1.0000   1.0000   1.0000   1.0000   1.0000   1.0000
     1.0000   0.0000   0.0000   0.0000   0.0000   0.0000   0.0000   0.0000
     0.0000   0.0000   0.0000   0.0000   0.0000   0.0000   0.0000   0.0000
     0.0000   0.0000   0.0000   0.0000   0.0000   0.0000   0.0000   0.0000

          k = 0.3333-0.1591 0.3124 (  2088 PWs)   bands (ev):

   -40.9568 -40.9541 -34.5993 -34.5565 -12.9477 -12.9314 -12.9008 -12.8925
   -12.8832 -12.8701 -11.5411 -11.3454 -10.8750 -10.8397 -10.6644 -10.5988
    -7.2921  -7.2665  -6.5545  -6.4168   5.9758   6.2390   6.5289   6.7166
     6.9255   6.9571   7.0050   7.1402   7.3405   7.5148   7.6886   7.7812
     9.7892   9.8096   9.8315   9.8422   9.8451   9.8638   9.9374   9.9700
     9.9803  10.0297  10.0580  10.0705  10.2660  10.3399  14.0059  14.3262
    14.7309  14.7902  15.8023  15.9957  16.2435  17.0257  17.4840  18.1955
    18.9271  19.6069  19.8423  19.9415  20.6190  21.5249  22.3732  22.4851

     occupation numbers 
     1.0000   1.0000   1.0000   1.0000   1.0000   1.0000   1.0000   1.0000
     1.0000   1.0000   1.0000   1.0000   1.0000   1.0000   1.0000   1.0000
     1.0000   1.0000   1.0000   1.0000   1.0000   1.0000   1.0000   1.0000
     1.0000   1.0000   1.0000   1.0000   1.0000   1.0000   1.0000   1.0000
     1.0000   1.0000   1.0000   1.0000   1.0000   1.0000   1.0000   1.0000
     1.0000   0.0000   0.0000   0.0000   0.0000   0.0000   0.0000   0.0000
     0.0000   0.0000   0.0000   0.0000   0.0000   0.0000   0.0000   0.0000
     0.0000   0.0000   0.0000   0.0000   0.0000   0.0000   0.0000   0.0000

          k = 0.3333-0.1591 0.9372 (  2081 PWs)   bands (ev):

   -40.9560 -40.9547 -34.5850 -34.5688 -12.9519 -12.9485 -12.9278 -12.9175
   -12.8971 -12.8961 -11.5293 -11.4686 -11.1320 -11.0586 -10.5860 -10.5492
    -6.7831  -6.7689  -6.3776  -6.2841   5.7704   5.8202   6.0832   6.2503
     6.5515   6.6402   6.6670   6.8694   7.4723   7.5444   7.7218   7.7542
     9.7915   9.7991   9.8073   9.8255   9.8567   9.8594   9.8880   9.9081
     9.9961  10.0174  10.0296  10.0320  10.0546  10.1417  14.5931  14.7949
    15.4041  15.4936  15.6954  16.0876  16.6513  17.3765  17.4549  18.2527
    19.7065  19.8533  20.3710  20.4001  20.7367  21.2342  21.9255  23.0573

     occupation numbers 
     1.0000   1.0000   1.0000   1.0000   1.0000   1.0000   1.0000   1.0000
     1.0000   1.0000   1.0000   1.0000   1.0000   1.0000   1.0000   1.0000
     1.0000   1.0000   1.0000   1.0000   1.0000   1.0000   1.0000   1.0000
     1.0000   1.0000   1.0000   1.0000   1.0000   1.0000   1.0000   1.0000
     1.0000   1.0000   1.0000   1.0000   1.0000   1.0000   1.0000   1.0000
     1.0000   0.0000   0.0000   0.0000   0.0000   0.0000   0.0000   0.0000
     0.0000   0.0000   0.0000   0.0000   0.0000   0.0000   0.0000   0.0000
     0.0000   0.0000   0.0000   0.0000   0.0000   0.0000   0.0000   0.0000

          k = 0.3333 0.2102 0.6248 (  2081 PWs)   bands (ev):

   -40.9560 -40.9547 -34.5850 -34.5688 -12.9517 -12.9485 -12.9282 -12.9177
   -12.8970 -12.8960 -11.5255 -11.4648 -11.1382 -11.0678 -10.5834 -10.5434
    -6.7847  -6.7699  -6.3764  -6.2835   5.7681   5.8170   6.0888   6.2565
     6.5496   6.6398   6.6663   6.8663   7.4712   7.5427   7.7222   7.7545
     9.7835   9.8045   9.8201   9.8451   9.8528   9.8538   9.8927   9.8998
     9.9929  10.0090  10.0275  10.0384  10.0489  10.1393  14.5926  14.7936
    15.4040  15.4969  15.6924  16.0889  16.6562  17.3794  17.4527  18.2479
    19.7050  19.8515  20.3707  20.4025  20.7382  21.2334  21.9276  23.0547

     occupation numbers 
     1.0000   1.0000   1.0000   1.0000   1.0000   1.0000   1.0000   1.0000
     1.0000   1.0000   1.0000   1.0000   1.0000   1.0000   1.0000   1.0000
     1.0000   1.0000   1.0000   1.0000   1.0000   1.0000   1.0000   1.0000
     1.0000   1.0000   1.0000   1.0000   1.0000   1.0000   1.0000   1.0000
     1.0000   1.0000   1.0000   1.0000   1.0000   1.0000   1.0000   1.0000
     1.0000   0.0000   0.0000   0.0000   0.0000   0.0000   0.0000   0.0000
     0.0000   0.0000   0.0000   0.0000   0.0000   0.0000   0.0000   0.0000
     0.0000   0.0000   0.0000   0.0000   0.0000   0.0000   0.0000   0.0000

          k = 0.3333 0.2102-0.0000 (  2097 PWs)   bands (ev):

   -40.9566 -40.9549 -34.5951 -34.5627 -12.9477 -12.9244 -12.8934 -12.8933
   -12.8673 -12.8672 -11.3053 -10.9276 -10.8938 -10.8878 -10.6437 -10.6375
    -7.4865  -7.4667  -7.0662  -6.8458   6.3301   6.5824   7.0344   7.0347
     7.0882   7.0930   7.3005   7.4718   7.4748   7.5994   7.8397   7.8413
     9.7756   9.7815   9.8302   9.8380   9.9293   9.9574   9.9771  10.0337
    10.0482  10.0936  10.0999  10.2432  10.3504  10.3683  13.5952  13.7251
    13.9893  13.9895  14.8320  15.1020  17.1692  17.1699  17.5131  17.5842
    19.1459  19.6478  19.6903  19.6920  20.7635  21.2009  21.9694  23.0892

     occupation numbers 
     1.0000   1.0000   1.0000   1.0000   1.0000   1.0000   1.0000   1.0000
     1.0000   1.0000   1.0000   1.0000   1.0000   1.0000   1.0000   1.0000
     1.0000   1.0000   1.0000   1.0000   1.0000   1.0000   1.0000   1.0000
     1.0000   1.0000   1.0000   1.0000   1.0000   1.0000   1.0000   1.0000
     1.0000   1.0000   1.0000   1.0000   1.0000   1.0000   1.0000   1.0000
     1.0000   0.0000   0.0000   0.0000   0.0000   0.0000   0.0000   0.0000
     0.0000   0.0000   0.0000   0.0000   0.0000   0.0000   0.0000   0.0000
     0.0000   0.0000   0.0000   0.0000   0.0000   0.0000   0.0000   0.0000

          k = 0.3333-0.5285-0.0000 (  2079 PWs)   bands (ev):

   -40.9561 -40.9542 -34.5931 -34.5607 -12.9560 -12.9559 -12.9168 -12.9124
   -12.9023 -12.8941 -11.5732 -11.3960 -11.1438 -11.0931 -10.6125 -10.4940
    -6.8426  -6.7673  -6.3767  -6.2380   5.6783   5.7623   6.3631   6.3665
     6.3775   6.6462   6.8476   6.9720   7.0906   7.5195   7.7361   7.8040
     9.7852   9.8123   9.8309   9.8326   9.8372   9.8412   9.8815   9.9135
     9.9394  10.0034  10.0191  10.0441  10.0583  10.1924  14.7136  15.0544
    15.2191  15.2319  15.8629  16.0864  16.6832  16.7991  18.6777  18.9148
    19.0237  19.4043  19.6977  20.4246  21.0905  21.1312  21.2896  22.4999

     occupation numbers 
     1.0000   1.0000   1.0000   1.0000   1.0000   1.0000   1.0000   1.0000
     1.0000   1.0000   1.0000   1.0000   1.0000   1.0000   1.0000   1.0000
     1.0000   1.0000   1.0000   1.0000   1.0000   1.0000   1.0000   1.0000
     1.0000   1.0000   1.0000   1.0000   1.0000   1.0000   1.0000   1.0000
     1.0000   1.0000   1.0000   1.0000   1.0000   1.0000   1.0000   1.0000
     1.0000   0.0000   0.0000   0.0000   0.0000   0.0000   0.0000   0.0000
     0.0000   0.0000   0.0000   0.0000   0.0000   0.0000   0.0000   0.0000
     0.0000   0.0000   0.0000   0.0000   0.0000   0.0000   0.0000   0.0000

          k = 0.3333-0.5285 0.6248 (  2094 PWs)   bands (ev):

   -40.9560 -40.9552 -34.5860 -34.5699 -12.9444 -12.9341 -12.9055 -12.8891
   -12.8887 -12.8653 -11.4891 -11.3646 -10.8919 -10.8747 -10.6445 -10.6225
    -7.2804  -7.1949  -6.5394  -6.4897   5.8083   6.3129   6.4662   6.6817
     6.8848   6.9729   7.1859   7.2084   7.3395   7.5455   7.5628   7.7883
     9.7763   9.7938   9.8318   9.8355   9.8736   9.9216   9.9350   9.9826
    10.0049  10.0241  10.0353  10.1105  10.2079  10.3148  14.0322  14.3292
    14.8868  15.0956  15.2658  15.3419  16.3072  17.0965  17.3297  18.6606
    18.9611  20.0604  20.0950  20.3673  20.9698  21.3090  21.3979  23.7082

     occupation numbers 
     1.0000   1.0000   1.0000   1.0000   1.0000   1.0000   1.0000   1.0000
     1.0000   1.0000   1.0000   1.0000   1.0000   1.0000   1.0000   1.0000
     1.0000   1.0000   1.0000   1.0000   1.0000   1.0000   1.0000   1.0000
     1.0000   1.0000   1.0000   1.0000   1.0000   1.0000   1.0000   1.0000
     1.0000   1.0000   1.0000   1.0000   1.0000   1.0000   1.0000   1.0000
     1.0000   0.0000   0.0000   0.0000   0.0000   0.0000   0.0000   0.0000
     0.0000   0.0000   0.0000   0.0000   0.0000   0.0000   0.0000   0.0000
     0.0000   0.0000   0.0000   0.0000   0.0000   0.0000   0.0000   0.0000

     highest occupied, lowest unoccupied level (ev):    10.0716    9.9884

!    total energy              =   -1911.97451936 Ry
     estimated scf accuracy    <       0.00000089 Ry

     The total energy is the sum of the following terms:
     one-electron contribution =    -481.18754739 Ry
     hartree contribution      =     285.21921282 Ry
     xc contribution           =    -114.25495223 Ry
     ewald contribution        =    -602.64877194 Ry
     one-center paw contrib.   =    -999.10246062 Ry
      -> PAW hartree energy AE =       0.00000000 Ry
      -> PAW hartree energy PS =       0.00000000 Ry
      -> PAW xc energy AE      =       0.00000000 Ry
      -> PAW xc energy PS      =       0.00000000 Ry
      -> total E_H with PAW    =     285.21921282 Ry
      -> total E_XC with PAW   =    -114.25495223 Ry

     convergence has been achieved in  43 iterations

     Writing all to output data dir calculations_bands/myprefix.save/
 
     init_run     :     10.04s CPU      4.63s WALL (       1 calls)
     electrons    :    470.08s CPU    185.23s WALL (       1 calls)

     Called by init_run:
     wfcinit      :      3.32s CPU      1.38s WALL (       1 calls)
     wfcinit:atom :      0.00s CPU      0.00s WALL (       5 calls)
     wfcinit:wfcr :      3.28s CPU      1.37s WALL (       5 calls)
     potinit      :      2.27s CPU      1.04s WALL (       1 calls)
     hinit0       :      2.58s CPU      1.34s WALL (       1 calls)

     Called by electrons:
     c_bands      :    311.38s CPU    118.21s WALL (      43 calls)
     sum_band     :     86.91s CPU     33.90s WALL (      43 calls)
     v_of_rho     :      4.79s CPU      1.72s WALL (      44 calls)
     v_h          :      0.48s CPU      0.19s WALL (      44 calls)
     v_xc         :      4.31s CPU      1.53s WALL (      44 calls)
     newd         :     30.48s CPU     11.87s WALL (      44 calls)
     PAW_pot      :     33.92s CPU     18.37s WALL (      44 calls)
     mix_rho      :      1.95s CPU      0.64s WALL (      43 calls)

     Called by c_bands:
     init_us_2    :      0.73s CPU      0.31s WALL (     435 calls)
     init_us_2:cp :      0.72s CPU      0.30s WALL (     435 calls)
     cegterg      :    261.61s CPU     97.36s WALL (     215 calls)

     Called by sum_band:
     sum_band:wei :      0.04s CPU      0.02s WALL (      43 calls)
     sum_band:loo :     37.84s CPU     14.34s WALL (      43 calls)
     sum_band:buf :      0.06s CPU      0.02s WALL (     215 calls)
     sum_band:ini :      0.23s CPU      0.10s WALL (     215 calls)
     sum_band:cal :      1.55s CPU      0.63s WALL (     215 calls)
     sum_band:bec :      0.33s CPU      0.15s WALL (     215 calls)
     addusdens    :     23.45s CPU      9.80s WALL (      43 calls)
     addusd:skk   :      1.46s CPU      0.61s WALL (     129 calls)
     addusd:dgemm :      2.07s CPU      1.07s WALL (     129 calls)
     addusd:qvan2 :     15.70s CPU      6.63s WALL (     129 calls)

     Called by *egterg:
     cdiaghg      :     22.24s CPU      9.70s WALL (     501 calls)
     cegterg:over :      9.22s CPU      3.53s WALL (     286 calls)
     cegterg:upda :      3.31s CPU      1.22s WALL (     286 calls)
     cegterg:last :      2.04s CPU      0.71s WALL (     258 calls)
     cdiaghg:chol :      1.98s CPU      1.03s WALL (     501 calls)
     cdiaghg:inve :      0.39s CPU      0.18s WALL (     501 calls)
     cdiaghg:para :      7.36s CPU      3.06s WALL (    1002 calls)
     h_psi        :    216.26s CPU     78.72s WALL (     506 calls)
     s_psi        :      0.72s CPU      0.26s WALL (     506 calls)
     g_psi        :      0.07s CPU      0.03s WALL (     286 calls)

     Called by h_psi:
     h_psi:calbec :      3.92s CPU      1.53s WALL (     506 calls)
     vloc_psi     :    210.70s CPU     76.52s WALL (     506 calls)
     add_vuspsi   :      1.39s CPU      0.56s WALL (     506 calls)

     General routines
     calbec       :      5.45s CPU      2.15s WALL (     721 calls)
     fft          :      5.45s CPU      2.07s WALL (     570 calls)
     ffts         :      1.76s CPU      0.73s WALL (      87 calls)
     fftw         :    225.07s CPU     80.56s WALL (   71892 calls)
     interpolate  :      1.79s CPU      0.72s WALL (      44 calls)
 
     Parallel routines

     PAW routines
     PAW_pot      :     33.92s CPU     18.37s WALL (      44 calls)
     PAW_symme    :      0.82s CPU      0.29s WALL (      87 calls)
 
     PWSCF        :   8m 2.16s CPU   3m12.65s WALL

 
   This run was terminated on:  16:15:19   4Jun2023            

=------------------------------------------------------------------------------=
   JOB DONE.
=------------------------------------------------------------------------------=
