
     Program PWSCF v.7.0 starts on 23Jun2023 at 16:30:37 

     This program is part of the open-source Quantum ESPRESSO suite
     for quantum simulation of materials; please cite
         "P. Giannozzi et al., J. Phys.:Condens. Matter 21 395502 (2009);
         "P. Giannozzi et al., J. Phys.:Condens. Matter 29 465901 (2017);
         "P. Giannozzi et al., J. Chem. Phys. 152 154105 (2020);
          URL http://www.quantum-espresso.org", 
     in publications or presentations arising from this work. More details at
     http://www.quantum-espresso.org/quote

     Parallel version (MPI & OpenMP), running on      32 processor cores
     Number of MPI processes:                 8
     Threads/MPI process:                     4

     MPI processes distributed on     1 nodes
     K-points division:     npool     =       2
     R & G space division:  proc/nbgrp/npool/nimage =       4
     172791 MiB available memory on the printing compute node when the environment starts
 
     Reading input from espresso_9910.pwi
Warning: card &CELL ignored
Warning: card / ignored

     Current dimensions of program PWSCF are:
     Max number of different atomic species (ntypx) = 10
     Max number of k-points (npk) =  40000
     Max angular momentum in pseudopotentials (lmaxx) =  4
     Message from routine setup:
     using ibrav=0 with symmetry is DISCOURAGED, use correct ibrav instead

     Subspace diagonalization in iterative solution of the eigenvalue problem:
     one sub-group per band group will be used
     scalapack distributed-memory algorithm (size of sub-group:  2*  2 procs)

 
     Parallelization info
     --------------------
     sticks:   dense  smooth     PW     G-vecs:    dense   smooth      PW
     Min         504     253     75                13268     4661     744
     Max         505     255     76                13271     4662     745
     Sum        2017    1015    301                53079    18645    2979
 
     Using Slab Decomposition
 


     bravais-lattice index     =            0
     lattice parameter (alat)  =      11.0415  a.u.
     unit-cell volume          =     844.8705 (a.u.)^3
     number of atoms/cell      =            8
     number of atomic types    =            2
     number of electrons       =       138.00
     number of Kohn-Sham states=           90
     kinetic-energy cutoff     =      30.0000  Ry
     charge density cutoff     =     240.0000  Ry
     scf convergence threshold =      1.0E-06
     mixing beta               =       0.7000
     number of iterations used =            8  plain     mixing
     Exchange-correlation=  SLA  PW   PBX  PBC
                           (   1   4   3   4   0   0   0)

     celldm(1)=  11.041490  celldm(2)=   0.000000  celldm(3)=   0.000000
     celldm(4)=   0.000000  celldm(5)=   0.000000  celldm(6)=   0.000000

     crystal axes: (cart. coord. in units of alat)
               a(1) = (   1.000000   0.000000   0.000000 )  
               a(2) = (  -0.500000   0.866025   0.000000 )  
               a(3) = (   0.000000   0.000000   0.724730 )  

     reciprocal axes: (cart. coord. in units 2 pi/alat)
               b(1) = (  1.000000  0.577350  0.000000 )  
               b(2) = (  0.000000  1.154700  0.000000 )  
               b(3) = (  0.000000  0.000000  1.379824 )  


     PseudoPot. # 1 for Pm read from file:
     /home/pragov/projects/rrg-bengioy-ad/pragov/crystal_structure_design/SSSP/Pm.GGA-PBE-paw-v1.0.UPF
     MD5 check sum: 4b6c6c601cafc6eebaa7bee0af846dec
     Pseudo is Projector augmented-wave + core cor, Zval = 15.0
     Generated using ATOMPAW code
     Shape of augmentation charge: BESSEL
     Using radial grid of 1106 points,  8 beta functions with: 
                l(1) =   0
                l(2) =   0
                l(3) =   1
                l(4) =   1
                l(5) =   2
                l(6) =   2
                l(7) =   3
                l(8) =   3
     Q(r) pseudized with 0 coefficients 


     PseudoPot. # 2 for Ni read from file:
     /home/pragov/projects/rrg-bengioy-ad/pragov/crystal_structure_design/SSSP/ni_pbe_v1.4.uspp.F.UPF
     MD5 check sum: 1ee80287db30b12d2bc1f57a5b5d6409
     Pseudo is Ultrasoft + core correction, Zval = 18.0
     Generated by new atomic code, or converted to UPF format
     Using radial grid of  865 points,  6 beta functions with: 
                l(1) =   0
                l(2) =   0
                l(3) =   1
                l(4) =   1
                l(5) =   2
                l(6) =   2
     Q(r) pseudized with 10 coefficients,  rinner =    0.980   0.980   0.980
                                                       0.980   0.980

     atomic species   valence    mass     pseudopotential
        Pm            15.00   144.91276     Pm( 1.00)
        Ni            18.00    58.69340     Ni( 1.00)

     24 Sym. Ops., with inversion, found (12 have fractional translation)


                                    s                        frac. trans.

      isym =  1     identity                                     

 cryst.   s( 1) = (     1          0          0      )
                  (     0          1          0      )
                  (     0          0          1      )

 cart.    s( 1) = (  1.0000000 -0.0000000  0.0000000 )
                  (  0.0000000  1.0000000  0.0000000 )
                  (  0.0000000  0.0000000  1.0000000 )


      isym =  2     180 deg rotation - cart. axis [0,0,1]        

 cryst.   s( 2) = (    -1          0          0      )    f =( -0.0000000 )
                  (     0         -1          0      )       ( -0.0000000 )
                  (     0          0          1      )       ( -0.5000000 )

 cart.    s( 2) = ( -1.0000000  0.0000000  0.0000000 )    f =(  0.0000000 )
                  (  0.0000000 -1.0000000  0.0000000 )       ( -0.0000000 )
                  (  0.0000000  0.0000000  1.0000000 )       ( -0.3623651 )


      isym =  3     180 deg rotation - cart. axis [0,1,0]        

 cryst.   s( 3) = (    -1          0          0      )    f =(  0.0000010 )
                  (     1          1          0      )       (  0.0000000 )
                  (     0          0         -1      )       ( -0.5000000 )

 cart.    s( 3) = ( -1.0000000  0.0000004  0.0000000 )    f =(  0.0000010 )
                  (  0.0000000  1.0000000  0.0000000 )       (  0.0000000 )
                  (  0.0000000  0.0000000 -1.0000000 )       ( -0.3623651 )


      isym =  4     180 deg rotation - cart. axis [1,0,0]        

 cryst.   s( 4) = (     1          0          0      )
                  (    -1         -1          0      )
                  (     0          0         -1      )

 cart.    s( 4) = (  1.0000000 -0.0000004  0.0000000 )
                  (  0.0000000 -1.0000000  0.0000000 )
                  (  0.0000000  0.0000000 -1.0000000 )


      isym =  5      60 deg rotation - cryst. axis [0,0,1]       

 cryst.   s( 5) = (     1          1          0      )    f =(  0.0000010 )
                  (    -1          0          0      )       ( -0.0000000 )
                  (     0          0          1      )       ( -0.5000000 )

 cart.    s( 5) = (  0.5000002 -0.8660253  0.0000000 )    f =(  0.0000010 )
                  (  0.8660255  0.4999998  0.0000000 )       ( -0.0000000 )
                  (  0.0000000  0.0000000  1.0000000 )       ( -0.3623651 )


      isym =  6      60 deg rotation - cryst. axis [0,0,-1]      

 cryst.   s( 6) = (     0         -1          0      )    f =(  0.0000000 )
                  (     1          1          0      )       ( -0.0000010 )
                  (     0          0          1      )       ( -0.5000000 )

 cart.    s( 6) = (  0.4999998  0.8660253  0.0000000 )    f =(  0.0000005 )
                  ( -0.8660255  0.5000002  0.0000000 )       ( -0.0000009 )
                  (  0.0000000  0.0000000  1.0000000 )       ( -0.3623651 )


      isym =  7     120 deg rotation - cryst. axis [0,0,1]       

 cryst.   s( 7) = (     0          1          0      )
                  (    -1         -1          0      )
                  (     0          0          1      )

 cart.    s( 7) = ( -0.4999998 -0.8660253  0.0000000 )
                  (  0.8660255 -0.5000002  0.0000000 )
                  (  0.0000000  0.0000000  1.0000000 )


      isym =  8     120 deg rotation - cryst. axis [0,0,-1]      

 cryst.   s( 8) = (    -1         -1          0      )
                  (     1          0          0      )
                  (     0          0          1      )

 cart.    s( 8) = ( -0.5000002  0.8660253  0.0000000 )
                  ( -0.8660255 -0.4999998  0.0000000 )
                  (  0.0000000  0.0000000  1.0000000 )


      isym =  9     180 deg rotation - cryst. axis [1,-1,0]      

 cryst.   s( 9) = (     0         -1          0      )    f =( -0.0000000 )
                  (    -1          0          0      )       ( -0.0000000 )
                  (     0          0         -1      )       ( -0.5000000 )

 cart.    s( 9) = (  0.4999998 -0.8660255  0.0000000 )    f =( -0.0000000 )
                  ( -0.8660255 -0.4999998  0.0000000 )       ( -0.0000000 )
                  (  0.0000000  0.0000000 -1.0000000 )       ( -0.3623651 )


      isym = 10     180 deg rotation - cryst. axis [2,1,0]       

 cryst.   s(10) = (     1          1          0      )    f =(  0.0000000 )
                  (     0         -1          0      )       ( -0.0000010 )
                  (     0          0         -1      )       ( -0.5000000 )

 cart.    s(10) = (  0.5000002  0.8660251  0.0000000 )    f =(  0.0000005 )
                  (  0.8660255 -0.5000002  0.0000000 )       ( -0.0000009 )
                  (  0.0000000  0.0000000 -1.0000000 )       ( -0.3623651 )


      isym = 11     180 deg rotation - cryst. axis [0,1,0]       

 cryst.   s(11) = (    -1         -1          0      )
                  (     0          1          0      )
                  (     0          0         -1      )

 cart.    s(11) = ( -0.5000002 -0.8660251  0.0000000 )
                  ( -0.8660255  0.5000002  0.0000000 )
                  (  0.0000000  0.0000000 -1.0000000 )


      isym = 12     180 deg rotation - cryst. axis [1,1,0]       

 cryst.   s(12) = (     0          1          0      )
                  (     1          0          0      )
                  (     0          0         -1      )

 cart.    s(12) = ( -0.4999998  0.8660255  0.0000000 )
                  (  0.8660255  0.4999998  0.0000000 )
                  (  0.0000000  0.0000000 -1.0000000 )


      isym = 13     inversion                                    

 cryst.   s(13) = (    -1          0          0      )
                  (     0         -1          0      )
                  (     0          0         -1      )

 cart.    s(13) = ( -1.0000000  0.0000000  0.0000000 )
                  (  0.0000000 -1.0000000  0.0000000 )
                  (  0.0000000  0.0000000 -1.0000000 )


      isym = 14     inv. 180 deg rotation - cart. axis [0,0,1]   

 cryst.   s(14) = (     1          0          0      )    f =(  0.0000000 )
                  (     0          1          0      )       (  0.0000000 )
                  (     0          0         -1      )       ( -0.5000000 )

 cart.    s(14) = (  1.0000000 -0.0000000  0.0000000 )    f =(  0.0000000 )
                  (  0.0000000  1.0000000  0.0000000 )       (  0.0000000 )
                  (  0.0000000  0.0000000 -1.0000000 )       ( -0.3623651 )


      isym = 15     inv. 180 deg rotation - cart. axis [0,1,0]   

 cryst.   s(15) = (     1          0          0      )    f =(  0.0000010 )
                  (    -1         -1          0      )       ( -0.0000000 )
                  (     0          0          1      )       ( -0.5000000 )

 cart.    s(15) = (  1.0000000 -0.0000004  0.0000000 )    f =(  0.0000010 )
                  (  0.0000000 -1.0000000  0.0000000 )       ( -0.0000000 )
                  (  0.0000000  0.0000000  1.0000000 )       ( -0.3623651 )


      isym = 16     inv. 180 deg rotation - cart. axis [1,0,0]   

 cryst.   s(16) = (    -1          0          0      )
                  (     1          1          0      )
                  (     0          0          1      )

 cart.    s(16) = ( -1.0000000  0.0000004  0.0000000 )
                  (  0.0000000  1.0000000  0.0000000 )
                  (  0.0000000  0.0000000  1.0000000 )


      isym = 17     inv.  60 deg rotation - cryst. axis [0,0,1]  

 cryst.   s(17) = (    -1         -1          0      )    f =(  0.0000010 )
                  (     1          0          0      )       ( -0.0000000 )
                  (     0          0         -1      )       ( -0.5000000 )

 cart.    s(17) = ( -0.5000002  0.8660253  0.0000000 )    f =(  0.0000010 )
                  ( -0.8660255 -0.4999998  0.0000000 )       ( -0.0000000 )
                  (  0.0000000  0.0000000 -1.0000000 )       ( -0.3623651 )


      isym = 18     inv.  60 deg rotation - cryst. axis [0,0,-1] 

 cryst.   s(18) = (     0          1          0      )    f =( -0.0000000 )
                  (    -1         -1          0      )       ( -0.0000010 )
                  (     0          0         -1      )       ( -0.5000000 )

 cart.    s(18) = ( -0.4999998 -0.8660253  0.0000000 )    f =(  0.0000005 )
                  (  0.8660255 -0.5000002  0.0000000 )       ( -0.0000009 )
                  (  0.0000000  0.0000000 -1.0000000 )       ( -0.3623651 )


      isym = 19     inv. 120 deg rotation - cryst. axis [0,0,1]  

 cryst.   s(19) = (     0         -1          0      )
                  (     1          1          0      )
                  (     0          0         -1      )

 cart.    s(19) = (  0.4999998  0.8660253  0.0000000 )
                  ( -0.8660255  0.5000002  0.0000000 )
                  (  0.0000000  0.0000000 -1.0000000 )


      isym = 20     inv. 120 deg rotation - cryst. axis [0,0,-1] 

 cryst.   s(20) = (     1          1          0      )
                  (    -1          0          0      )
                  (     0          0         -1      )

 cart.    s(20) = (  0.5000002 -0.8660253  0.0000000 )
                  (  0.8660255  0.4999998  0.0000000 )
                  (  0.0000000  0.0000000 -1.0000000 )


      isym = 21     inv. 180 deg rotation - cryst. axis [1,-1,0] 

 cryst.   s(21) = (     0          1          0      )    f =(  0.0000000 )
                  (     1          0          0      )       ( -0.0000000 )
                  (     0          0          1      )       ( -0.5000000 )

 cart.    s(21) = ( -0.4999998  0.8660255  0.0000000 )    f =(  0.0000000 )
                  (  0.8660255  0.4999998  0.0000000 )       ( -0.0000000 )
                  (  0.0000000  0.0000000  1.0000000 )       ( -0.3623651 )


      isym = 22     inv. 180 deg rotation - cryst. axis [2,1,0]  

 cryst.   s(22) = (    -1         -1          0      )    f =( -0.0000000 )
                  (     0          1          0      )       ( -0.0000010 )
                  (     0          0          1      )       ( -0.5000000 )

 cart.    s(22) = ( -0.5000002 -0.8660251  0.0000000 )    f =(  0.0000005 )
                  ( -0.8660255  0.5000002  0.0000000 )       ( -0.0000009 )
                  (  0.0000000  0.0000000  1.0000000 )       ( -0.3623651 )


      isym = 23     inv. 180 deg rotation - cryst. axis [0,1,0]  

 cryst.   s(23) = (     1          1          0      )
                  (     0         -1          0      )
                  (     0          0          1      )

 cart.    s(23) = (  0.5000002  0.8660251  0.0000000 )
                  (  0.8660255 -0.5000002  0.0000000 )
                  (  0.0000000  0.0000000  1.0000000 )


      isym = 24     inv. 180 deg rotation - cryst. axis [1,1,0]  

 cryst.   s(24) = (     0         -1          0      )
                  (    -1          0          0      )
                  (     0          0          1      )

 cart.    s(24) = (  0.4999998 -0.8660255  0.0000000 )
                  ( -0.8660255 -0.4999998  0.0000000 )
                  (  0.0000000  0.0000000  1.0000000 )


   Cartesian axes

     site n.     atom                  positions (alat units)
         1           Pm  tau(   1) = (  -0.0000004   0.5773506   0.5435477  )
         2           Pm  tau(   2) = (   0.5000006   0.2886749   0.1811826  )
         3           Ni  tau(   3) = (  -0.0000005   0.2432934   0.1811826  )
         4           Ni  tau(   4) = (   0.2893016   0.7443792   0.1811826  )
         5           Ni  tau(   5) = (  -0.2893024   0.7443792   0.1811826  )
         6           Ni  tau(   6) = (   0.5000006   0.6227321   0.5435477  )
         7           Ni  tau(   7) = (   0.2106985   0.1216463   0.5435477  )
         8           Ni  tau(   8) = (   0.7893025   0.1216463   0.5435477  )

   Crystallographic axes

     site n.     atom                  positions (cryst. coord.)
         1           Pm  tau(   1) = (  0.3333330  0.6666670  0.7500000  )
         2           Pm  tau(   2) = (  0.6666670  0.3333330  0.2500000  )
         3           Ni  tau(   3) = (  0.1404650  0.2809310  0.2500000  )
         4           Ni  tau(   4) = (  0.7190690  0.8595350  0.2500000  )
         5           Ni  tau(   5) = (  0.1404650  0.8595350  0.2500000  )
         6           Ni  tau(   6) = (  0.8595350  0.7190690  0.7500000  )
         7           Ni  tau(   7) = (  0.2809310  0.1404650  0.7500000  )
         8           Ni  tau(   8) = (  0.8595350  0.1404650  0.7500000  )

     number of k points=     6
                       cart. coord. in units 2pi/alat
        k(    1) = (   0.0000000   0.0000000   0.0000000), wk =   0.0740741
        k(    2) = (   0.0000000   0.0000000   0.4599413), wk =   0.1481481
        k(    3) = (   0.0000000   0.3849001   0.0000000), wk =   0.4444444
        k(    4) = (   0.0000000   0.3849001   0.4599413), wk =   0.8888889
        k(    5) = (   0.3333333   0.5773502   0.0000000), wk =   0.1481481
        k(    6) = (   0.3333333   0.5773502   0.4599413), wk =   0.2962963

                       cryst. coord.
        k(    1) = (   0.0000000   0.0000000   0.0000000), wk =   0.0740741
        k(    2) = (   0.0000000   0.0000000   0.3333333), wk =   0.1481481
        k(    3) = (   0.0000000   0.3333333   0.0000000), wk =   0.4444444
        k(    4) = (   0.0000000   0.3333333   0.3333333), wk =   0.8888889
        k(    5) = (   0.3333333   0.3333333   0.0000000), wk =   0.1481481
        k(    6) = (   0.3333333   0.3333333   0.3333333), wk =   0.2962963

     Dense  grid:    53079 G-vectors     FFT dimensions: (  60,  60,  40)

     Smooth grid:    18645 G-vectors     FFT dimensions: (  40,  40,  30)

     Dynamical RAM for                 wfc:       0.80 MB

     Dynamical RAM for     wfc (w. buffer):       3.22 MB

     Dynamical RAM for           str. fact:       0.40 MB

     Dynamical RAM for           local pot:       0.00 MB

     Dynamical RAM for          nlocal pot:       1.54 MB

     Dynamical RAM for                qrad:       5.97 MB

     Dynamical RAM for          rho,v,vnew:       1.43 MB

     Dynamical RAM for               rhoin:       0.48 MB

     Dynamical RAM for            rho*nmix:       3.24 MB

     Dynamical RAM for           G-vectors:       0.79 MB

     Dynamical RAM for          h,s,v(r/c):       0.37 MB

     Dynamical RAM for          <psi|beta>:       0.24 MB

     Dynamical RAM for                 psi:       1.61 MB

     Dynamical RAM for                hpsi:       1.61 MB

     Dynamical RAM for                spsi:       1.61 MB

     Dynamical RAM for      wfcinit/wfcrot:       3.00 MB

     Dynamical RAM for           addusdens:      56.90 MB

     Estimated static dynamical RAM per process >      15.82 MB

     Estimated max dynamical RAM per process >      75.96 MB

     Estimated total dynamical RAM >     594.69 MB

     Check: negative core charge=   -0.000008

     Initial potential from superposition of free atoms

     starting charge     125.9897, renormalised to     138.0000
     Starting wfcs are  142 randomized atomic wfcs
     Checking if some PAW data can be deallocated... 
       PAW data deallocated on    6 nodes for type:  1

     total cpu time spent up to now is        2.6 secs

     Self-consistent Calculation

     iteration #  1     ecut=    30.00 Ry     beta= 0.70
     Davidson diagonalization with overlap

---- Real-time Memory Report at c_bands before calling an iterative solver
           240 MiB given to the printing process from OS
             0 MiB allocation reported by mallinfo(arena+hblkhd)
        171939 MiB available memory on the node where the printing process lives
------------------
     ethr =  1.00E-02,  avg # of iterations =  3.3

     total cpu time spent up to now is        3.5 secs

     total energy              =   -2936.94045434 Ry
     estimated scf accuracy    <     344.75423314 Ry

     iteration #  2     ecut=    30.00 Ry     beta= 0.70
     Davidson diagonalization with overlap

---- Real-time Memory Report at c_bands before calling an iterative solver
           335 MiB given to the printing process from OS
             0 MiB allocation reported by mallinfo(arena+hblkhd)
        171620 MiB available memory on the node where the printing process lives
------------------
     ethr =  1.00E-02,  avg # of iterations =  8.2

     total cpu time spent up to now is        5.4 secs

     total energy              =   -3216.63943467 Ry
     estimated scf accuracy    <     899.55474656 Ry

     iteration #  3     ecut=    30.00 Ry     beta= 0.70
     Davidson diagonalization with overlap

---- Real-time Memory Report at c_bands before calling an iterative solver
           342 MiB given to the printing process from OS
             0 MiB allocation reported by mallinfo(arena+hblkhd)
        171549 MiB available memory on the node where the printing process lives
------------------
     ethr =  1.00E-02,  avg # of iterations =  5.3

     total cpu time spent up to now is        6.5 secs

     total energy              =   -3205.07861229 Ry
     estimated scf accuracy    <     184.87848026 Ry

     iteration #  4     ecut=    30.00 Ry     beta= 0.70
     Davidson diagonalization with overlap

---- Real-time Memory Report at c_bands before calling an iterative solver
           344 MiB given to the printing process from OS
             0 MiB allocation reported by mallinfo(arena+hblkhd)
        171526 MiB available memory on the node where the printing process lives
------------------
     ethr =  1.00E-02,  avg # of iterations =  3.8

     total cpu time spent up to now is        7.5 secs

     total energy              =   -3176.27759650 Ry
     estimated scf accuracy    <      78.71807662 Ry

     iteration #  5     ecut=    30.00 Ry     beta= 0.70
     Davidson diagonalization with overlap

---- Real-time Memory Report at c_bands before calling an iterative solver
           345 MiB given to the printing process from OS
             0 MiB allocation reported by mallinfo(arena+hblkhd)
        171606 MiB available memory on the node where the printing process lives
------------------
     ethr =  1.00E-02,  avg # of iterations =  5.7

     total cpu time spent up to now is        8.4 secs

     total energy              =   -3151.30589041 Ry
     estimated scf accuracy    <     405.61254523 Ry

     iteration #  6     ecut=    30.00 Ry     beta= 0.70
     Davidson diagonalization with overlap

---- Real-time Memory Report at c_bands before calling an iterative solver
           345 MiB given to the printing process from OS
             0 MiB allocation reported by mallinfo(arena+hblkhd)
        171597 MiB available memory on the node where the printing process lives
------------------
     ethr =  1.00E-02,  avg # of iterations =  3.3

     total cpu time spent up to now is        9.4 secs

     total energy              =   -3208.81865244 Ry
     estimated scf accuracy    <      56.91219222 Ry

     iteration #  7     ecut=    30.00 Ry     beta= 0.70
     Davidson diagonalization with overlap

---- Real-time Memory Report at c_bands before calling an iterative solver
           348 MiB given to the printing process from OS
             0 MiB allocation reported by mallinfo(arena+hblkhd)
        171597 MiB available memory on the node where the printing process lives
------------------
     ethr =  1.00E-02,  avg # of iterations =  1.8

     total cpu time spent up to now is       10.1 secs

     total energy              =   -3204.42088986 Ry
     estimated scf accuracy    <      60.01913544 Ry

     iteration #  8     ecut=    30.00 Ry     beta= 0.70
     Davidson diagonalization with overlap

---- Real-time Memory Report at c_bands before calling an iterative solver
           348 MiB given to the printing process from OS
             0 MiB allocation reported by mallinfo(arena+hblkhd)
        171596 MiB available memory on the node where the printing process lives
------------------
     ethr =  1.00E-02,  avg # of iterations =  1.2

     total cpu time spent up to now is       10.8 secs

     total energy              =   -3197.42820023 Ry
     estimated scf accuracy    <      46.04705604 Ry

     iteration #  9     ecut=    30.00 Ry     beta= 0.70
     Davidson diagonalization with overlap

---- Real-time Memory Report at c_bands before calling an iterative solver
           348 MiB given to the printing process from OS
             0 MiB allocation reported by mallinfo(arena+hblkhd)
        171597 MiB available memory on the node where the printing process lives
------------------
     ethr =  1.00E-02,  avg # of iterations =  2.5

     total cpu time spent up to now is       11.6 secs

     total energy              =   -3199.68664468 Ry
     estimated scf accuracy    <      22.87851234 Ry

     iteration # 10     ecut=    30.00 Ry     beta= 0.70
     Davidson diagonalization with overlap

---- Real-time Memory Report at c_bands before calling an iterative solver
           348 MiB given to the printing process from OS
             0 MiB allocation reported by mallinfo(arena+hblkhd)
        171597 MiB available memory on the node where the printing process lives
------------------
     ethr =  1.00E-02,  avg # of iterations =  1.0

     total cpu time spent up to now is       12.3 secs

     total energy              =   -3195.90379464 Ry
     estimated scf accuracy    <      27.30676747 Ry

     iteration # 11     ecut=    30.00 Ry     beta= 0.70
     Davidson diagonalization with overlap

---- Real-time Memory Report at c_bands before calling an iterative solver
           348 MiB given to the printing process from OS
             0 MiB allocation reported by mallinfo(arena+hblkhd)
        171599 MiB available memory on the node where the printing process lives
------------------
     ethr =  1.00E-02,  avg # of iterations =  2.2

     total cpu time spent up to now is       13.1 secs

     total energy              =   -3196.97536350 Ry
     estimated scf accuracy    <      10.70760670 Ry

     iteration # 12     ecut=    30.00 Ry     beta= 0.70
     Davidson diagonalization with overlap

---- Real-time Memory Report at c_bands before calling an iterative solver
           348 MiB given to the printing process from OS
             0 MiB allocation reported by mallinfo(arena+hblkhd)
        171595 MiB available memory on the node where the printing process lives
------------------
     ethr =  7.76E-03,  avg # of iterations =  1.3

     total cpu time spent up to now is       13.9 secs

     total energy              =   -3197.81777042 Ry
     estimated scf accuracy    <       7.15017689 Ry

     iteration # 13     ecut=    30.00 Ry     beta= 0.70
     Davidson diagonalization with overlap

---- Real-time Memory Report at c_bands before calling an iterative solver
           348 MiB given to the printing process from OS
             0 MiB allocation reported by mallinfo(arena+hblkhd)
        171599 MiB available memory on the node where the printing process lives
------------------
     ethr =  5.18E-03,  avg # of iterations =  1.2

     total cpu time spent up to now is       14.6 secs

     total energy              =   -3203.88335755 Ry
     estimated scf accuracy    <     154.20840173 Ry

     iteration # 14     ecut=    30.00 Ry     beta= 0.70
     Davidson diagonalization with overlap

---- Real-time Memory Report at c_bands before calling an iterative solver
           349 MiB given to the printing process from OS
             0 MiB allocation reported by mallinfo(arena+hblkhd)
        171598 MiB available memory on the node where the printing process lives
------------------
     ethr =  5.18E-03,  avg # of iterations =  1.0

     total cpu time spent up to now is       15.3 secs

     total energy              =   -3214.80399504 Ry
     estimated scf accuracy    <     174.24706924 Ry

     iteration # 15     ecut=    30.00 Ry     beta= 0.70
     Davidson diagonalization with overlap

---- Real-time Memory Report at c_bands before calling an iterative solver
           349 MiB given to the printing process from OS
             0 MiB allocation reported by mallinfo(arena+hblkhd)
        171604 MiB available memory on the node where the printing process lives
------------------
     ethr =  5.18E-03,  avg # of iterations =  2.0

     total cpu time spent up to now is       16.1 secs

     total energy              =   -3179.63171976 Ry
     estimated scf accuracy    <     241.81029786 Ry

     iteration # 16     ecut=    30.00 Ry     beta= 0.70
     Davidson diagonalization with overlap

---- Real-time Memory Report at c_bands before calling an iterative solver
           349 MiB given to the printing process from OS
             0 MiB allocation reported by mallinfo(arena+hblkhd)
        171601 MiB available memory on the node where the printing process lives
------------------
     ethr =  5.18E-03,  avg # of iterations =  3.0

     total cpu time spent up to now is       16.9 secs

     total energy              =   -3199.04413240 Ry
     estimated scf accuracy    <      36.52418382 Ry

     iteration # 17     ecut=    30.00 Ry     beta= 0.70
     Davidson diagonalization with overlap

---- Real-time Memory Report at c_bands before calling an iterative solver
           349 MiB given to the printing process from OS
             0 MiB allocation reported by mallinfo(arena+hblkhd)
        171604 MiB available memory on the node where the printing process lives
------------------
     ethr =  5.18E-03,  avg # of iterations =  1.2

     total cpu time spent up to now is       17.7 secs

     total energy              =   -3197.25978578 Ry
     estimated scf accuracy    <      28.10235408 Ry

     iteration # 18     ecut=    30.00 Ry     beta= 0.70
     Davidson diagonalization with overlap

---- Real-time Memory Report at c_bands before calling an iterative solver
           349 MiB given to the printing process from OS
             0 MiB allocation reported by mallinfo(arena+hblkhd)
        171603 MiB available memory on the node where the printing process lives
------------------
     ethr =  5.18E-03,  avg # of iterations =  1.0

     total cpu time spent up to now is       18.4 secs

     total energy              =   -3197.11553642 Ry
     estimated scf accuracy    <      12.98331954 Ry

     iteration # 19     ecut=    30.00 Ry     beta= 0.70
     Davidson diagonalization with overlap

---- Real-time Memory Report at c_bands before calling an iterative solver
           349 MiB given to the printing process from OS
             0 MiB allocation reported by mallinfo(arena+hblkhd)
        171604 MiB available memory on the node where the printing process lives
------------------
     ethr =  5.18E-03,  avg # of iterations =  1.0

     total cpu time spent up to now is       19.1 secs

     total energy              =   -3197.24303743 Ry
     estimated scf accuracy    <       6.58885658 Ry

     iteration # 20     ecut=    30.00 Ry     beta= 0.70
     Davidson diagonalization with overlap

---- Real-time Memory Report at c_bands before calling an iterative solver
           349 MiB given to the printing process from OS
             0 MiB allocation reported by mallinfo(arena+hblkhd)
        171602 MiB available memory on the node where the printing process lives
------------------
     ethr =  4.77E-03,  avg # of iterations =  1.0

     total cpu time spent up to now is       19.9 secs

     total energy              =   -3197.22844236 Ry
     estimated scf accuracy    <       8.60693829 Ry

     iteration # 21     ecut=    30.00 Ry     beta= 0.70
     Davidson diagonalization with overlap

---- Real-time Memory Report at c_bands before calling an iterative solver
           349 MiB given to the printing process from OS
             0 MiB allocation reported by mallinfo(arena+hblkhd)
        171608 MiB available memory on the node where the printing process lives
------------------
     ethr =  4.77E-03,  avg # of iterations =  1.0

     total cpu time spent up to now is       20.6 secs

     total energy              =   -3197.10199189 Ry
     estimated scf accuracy    <       7.74981257 Ry

     iteration # 22     ecut=    30.00 Ry     beta= 0.70
     Davidson diagonalization with overlap

---- Real-time Memory Report at c_bands before calling an iterative solver
           349 MiB given to the printing process from OS
             0 MiB allocation reported by mallinfo(arena+hblkhd)
        171603 MiB available memory on the node where the printing process lives
------------------
     ethr =  4.77E-03,  avg # of iterations =  1.0

     total cpu time spent up to now is       21.3 secs

     total energy              =   -3196.86360752 Ry
     estimated scf accuracy    <       3.69937941 Ry

     iteration # 23     ecut=    30.00 Ry     beta= 0.70
     Davidson diagonalization with overlap

---- Real-time Memory Report at c_bands before calling an iterative solver
           349 MiB given to the printing process from OS
             0 MiB allocation reported by mallinfo(arena+hblkhd)
        171607 MiB available memory on the node where the printing process lives
------------------
     ethr =  2.68E-03,  avg # of iterations =  1.0

     total cpu time spent up to now is       22.0 secs

     total energy              =   -3196.89285441 Ry
     estimated scf accuracy    <       6.89279736 Ry

     iteration # 24     ecut=    30.00 Ry     beta= 0.70
     Davidson diagonalization with overlap

---- Real-time Memory Report at c_bands before calling an iterative solver
           349 MiB given to the printing process from OS
             0 MiB allocation reported by mallinfo(arena+hblkhd)
        171603 MiB available memory on the node where the printing process lives
------------------
     ethr =  2.68E-03,  avg # of iterations =  1.0

     total cpu time spent up to now is       22.7 secs

     total energy              =   -3197.02136417 Ry
     estimated scf accuracy    <       0.68445668 Ry

     iteration # 25     ecut=    30.00 Ry     beta= 0.70
     Davidson diagonalization with overlap

---- Real-time Memory Report at c_bands before calling an iterative solver
           349 MiB given to the printing process from OS
             0 MiB allocation reported by mallinfo(arena+hblkhd)
        171603 MiB available memory on the node where the printing process lives
------------------
     ethr =  4.96E-04,  avg # of iterations =  1.0

     total cpu time spent up to now is       23.4 secs

     total energy              =   -3197.01441029 Ry
     estimated scf accuracy    <       0.30499358 Ry

     iteration # 26     ecut=    30.00 Ry     beta= 0.70
     Davidson diagonalization with overlap

---- Real-time Memory Report at c_bands before calling an iterative solver
           349 MiB given to the printing process from OS
             0 MiB allocation reported by mallinfo(arena+hblkhd)
        171604 MiB available memory on the node where the printing process lives
------------------
     ethr =  2.21E-04,  avg # of iterations =  1.0

     total cpu time spent up to now is       24.2 secs

     total energy              =   -3197.01874969 Ry
     estimated scf accuracy    <       0.15655086 Ry

     iteration # 27     ecut=    30.00 Ry     beta= 0.70
     Davidson diagonalization with overlap

---- Real-time Memory Report at c_bands before calling an iterative solver
           349 MiB given to the printing process from OS
             0 MiB allocation reported by mallinfo(arena+hblkhd)
        171605 MiB available memory on the node where the printing process lives
------------------
     ethr =  1.13E-04,  avg # of iterations =  1.0

     total cpu time spent up to now is       24.9 secs

     total energy              =   -3197.01773023 Ry
     estimated scf accuracy    <       0.20420201 Ry

     iteration # 28     ecut=    30.00 Ry     beta= 0.70
     Davidson diagonalization with overlap

---- Real-time Memory Report at c_bands before calling an iterative solver
           349 MiB given to the printing process from OS
             0 MiB allocation reported by mallinfo(arena+hblkhd)
        171606 MiB available memory on the node where the printing process lives
------------------
     ethr =  1.13E-04,  avg # of iterations =  1.0

     total cpu time spent up to now is       25.7 secs

     total energy              =   -3197.01036165 Ry
     estimated scf accuracy    <       0.12182663 Ry

     iteration # 29     ecut=    30.00 Ry     beta= 0.70
     Davidson diagonalization with overlap

---- Real-time Memory Report at c_bands before calling an iterative solver
           349 MiB given to the printing process from OS
             0 MiB allocation reported by mallinfo(arena+hblkhd)
        171603 MiB available memory on the node where the printing process lives
------------------
     ethr =  8.83E-05,  avg # of iterations =  1.0

     total cpu time spent up to now is       26.5 secs

     total energy              =   -3197.01477248 Ry
     estimated scf accuracy    <       0.02108212 Ry

     iteration # 30     ecut=    30.00 Ry     beta= 0.70
     Davidson diagonalization with overlap

---- Real-time Memory Report at c_bands before calling an iterative solver
           349 MiB given to the printing process from OS
             0 MiB allocation reported by mallinfo(arena+hblkhd)
        171598 MiB available memory on the node where the printing process lives
------------------
     ethr =  1.53E-05,  avg # of iterations =  1.0

     total cpu time spent up to now is       27.6 secs

     total energy              =   -3197.01295849 Ry
     estimated scf accuracy    <       0.03490935 Ry

     iteration # 31     ecut=    30.00 Ry     beta= 0.70
     Davidson diagonalization with overlap

---- Real-time Memory Report at c_bands before calling an iterative solver
           349 MiB given to the printing process from OS
             0 MiB allocation reported by mallinfo(arena+hblkhd)
        171596 MiB available memory on the node where the printing process lives
------------------
     ethr =  1.53E-05,  avg # of iterations =  1.0

     total cpu time spent up to now is       28.6 secs

     total energy              =   -3197.01347182 Ry
     estimated scf accuracy    <       0.00382027 Ry

     iteration # 32     ecut=    30.00 Ry     beta= 0.70
     Davidson diagonalization with overlap

---- Real-time Memory Report at c_bands before calling an iterative solver
           349 MiB given to the printing process from OS
             0 MiB allocation reported by mallinfo(arena+hblkhd)
        171593 MiB available memory on the node where the printing process lives
------------------
     ethr =  2.77E-06,  avg # of iterations =  1.3

     total cpu time spent up to now is       29.3 secs

     total energy              =   -3197.01347188 Ry
     estimated scf accuracy    <       0.00246020 Ry

     iteration # 33     ecut=    30.00 Ry     beta= 0.70
     Davidson diagonalization with overlap

---- Real-time Memory Report at c_bands before calling an iterative solver
           349 MiB given to the printing process from OS
             0 MiB allocation reported by mallinfo(arena+hblkhd)
        171597 MiB available memory on the node where the printing process lives
------------------
     ethr =  1.78E-06,  avg # of iterations =  1.0

     total cpu time spent up to now is       30.2 secs

     total energy              =   -3197.01341624 Ry
     estimated scf accuracy    <       0.00191686 Ry

     iteration # 34     ecut=    30.00 Ry     beta= 0.70
     Davidson diagonalization with overlap

---- Real-time Memory Report at c_bands before calling an iterative solver
           349 MiB given to the printing process from OS
             0 MiB allocation reported by mallinfo(arena+hblkhd)
        171593 MiB available memory on the node where the printing process lives
------------------
     ethr =  1.39E-06,  avg # of iterations =  1.3

     total cpu time spent up to now is       31.4 secs

     total energy              =   -3197.01346711 Ry
     estimated scf accuracy    <       0.00002415 Ry

     iteration # 35     ecut=    30.00 Ry     beta= 0.70
     Davidson diagonalization with overlap

---- Real-time Memory Report at c_bands before calling an iterative solver
           349 MiB given to the printing process from OS
             0 MiB allocation reported by mallinfo(arena+hblkhd)
        171596 MiB available memory on the node where the printing process lives
------------------
     ethr =  1.75E-08,  avg # of iterations =  2.3

     total cpu time spent up to now is       32.3 secs

     total energy              =   -3197.01347117 Ry
     estimated scf accuracy    <       0.00000661 Ry

     iteration # 36     ecut=    30.00 Ry     beta= 0.70
     Davidson diagonalization with overlap

---- Real-time Memory Report at c_bands before calling an iterative solver
           349 MiB given to the printing process from OS
             0 MiB allocation reported by mallinfo(arena+hblkhd)
        171598 MiB available memory on the node where the printing process lives
------------------
     ethr =  4.79E-09,  avg # of iterations =  1.3

     total cpu time spent up to now is       33.2 secs

     total energy              =   -3197.01347082 Ry
     estimated scf accuracy    <       0.00001849 Ry

     iteration # 37     ecut=    30.00 Ry     beta= 0.70
     Davidson diagonalization with overlap

---- Real-time Memory Report at c_bands before calling an iterative solver
           349 MiB given to the printing process from OS
             0 MiB allocation reported by mallinfo(arena+hblkhd)
        171594 MiB available memory on the node where the printing process lives
------------------
     ethr =  4.79E-09,  avg # of iterations =  1.5

     total cpu time spent up to now is       34.0 secs

     total energy              =   -3197.01347026 Ry
     estimated scf accuracy    <       0.00000552 Ry

     iteration # 38     ecut=    30.00 Ry     beta= 0.70
     Davidson diagonalization with overlap

---- Real-time Memory Report at c_bands before calling an iterative solver
           349 MiB given to the printing process from OS
             0 MiB allocation reported by mallinfo(arena+hblkhd)
        171598 MiB available memory on the node where the printing process lives
------------------
     ethr =  4.00E-09,  avg # of iterations =  3.2

     total cpu time spent up to now is       34.8 secs

     total energy              =   -3197.01346979 Ry
     estimated scf accuracy    <       0.00000274 Ry

     iteration # 39     ecut=    30.00 Ry     beta= 0.70
     Davidson diagonalization with overlap

---- Real-time Memory Report at c_bands before calling an iterative solver
           349 MiB given to the printing process from OS
             0 MiB allocation reported by mallinfo(arena+hblkhd)
        171596 MiB available memory on the node where the printing process lives
------------------
     ethr =  1.98E-09,  avg # of iterations =  1.0

     total cpu time spent up to now is       35.5 secs

     End of self-consistent calculation

          k = 0.0000 0.0000 0.0000 (  2317 PWs)   bands (ev):

   -87.8337 -87.8250 -87.8249 -87.8222 -87.8160 -87.8159 -48.2197 -48.2180
   -48.1944 -48.1795 -48.1795 -48.1768 -48.1768 -48.1651 -48.1651 -48.1348
   -48.1188 -48.1188 -48.1162 -48.1162 -48.1128 -48.1128 -48.1128 -48.0722
   -22.5370 -22.4959  -3.1440  -3.1440  -3.0259  -2.9042  -2.9042  -2.8491
     8.4322  11.7359  11.7361  11.8272  12.2990  12.3095  12.3096  12.3245
    12.7638  12.7639  12.8907  13.4160  13.4438  13.6890  13.6890  13.7998
    13.7998  13.8963  13.8964  14.1738  14.1738  14.3755  14.3755  14.3789
    14.4314  14.4314  14.5608  14.5608  14.5913  14.7886  15.0192  15.1874
    15.1875  15.1920  15.2810  15.2995  15.2995  15.3344  15.3891  15.4106
    15.4577  15.4577  15.5707  15.5829  15.5829  15.7076  15.8051  15.9513
    15.9514  16.6485  16.6487  17.7337  18.9157  18.9158  19.2977  19.2978
    20.7477  20.8537

     occupation numbers 
     1.0000   1.0000   1.0000   1.0000   1.0000   1.0000   1.0000   1.0000
     1.0000   1.0000   1.0000   1.0000   1.0000   1.0000   1.0000   1.0000
     1.0000   1.0000   1.0000   1.0000   1.0000   1.0000   1.0000   1.0000
     1.0000   1.0000   1.0000   1.0000   1.0000   1.0000   1.0000   1.0000
     1.0000   1.0000   1.0000   1.0000   1.0000   1.0000   1.0000   1.0000
     1.0000   1.0000   1.0000   1.0000   1.0000   1.0000   1.0000   1.0000
     1.0000   1.0000   1.0000   1.0000   1.0000   1.0000   1.0000   1.0000
     1.0000   1.0000   1.0000   1.0000   1.0000   1.0000   1.0000   1.0000
     1.0000   1.0000   1.0000   1.0000   1.0000   0.0000   0.0000   0.0000
     0.0000   0.0000   0.0000   0.0000   0.0000   0.0000   0.0000   0.0000
     0.0000   0.0000   0.0000   0.0000   0.0000   0.0000   0.0000   0.0000
     0.0000   0.0000

          k = 0.0000 0.0000 0.4599 (  2354 PWs)   bands (ev):

   -87.8352 -87.8278 -87.8238 -87.8238 -87.8200 -87.8199 -48.2292 -48.2238
   -48.2111 -48.2110 -48.1937 -48.1937 -48.1819 -48.1381 -48.1381 -48.1343
   -48.1335 -48.1224 -48.1223 -48.1165 -48.1165 -48.1133 -48.1085 -48.1085
   -22.5221 -22.5015  -3.1086  -3.0700  -3.0700  -3.0243  -2.9491  -2.9491
     9.5200  11.3773  11.5796  11.5797  12.2529  12.2530  12.3478  12.4334
    12.8812  12.8812  13.0578  13.2293  13.2584  13.2584  13.7797  13.8207
    13.8208  13.8847  13.8848  14.2793  14.2794  14.3193  14.3815  14.3816
    14.4850  14.5655  14.5656  14.6391  14.8750  14.9281  15.0647  15.0648
    15.3182  15.3182  15.3371  15.4001  15.4001  15.4042  15.4113  15.4168
    15.4169  15.4396  15.4396  15.4412  15.5265  15.6183  16.1143  16.1143
    16.5150  16.5152  16.7940  17.0287  17.7172  17.7173  18.2333  18.2335
    20.8510  20.9338

     occupation numbers 
     1.0000   1.0000   1.0000   1.0000   1.0000   1.0000   1.0000   1.0000
     1.0000   1.0000   1.0000   1.0000   1.0000   1.0000   1.0000   1.0000
     1.0000   1.0000   1.0000   1.0000   1.0000   1.0000   1.0000   1.0000
     1.0000   1.0000   1.0000   1.0000   1.0000   1.0000   1.0000   1.0000
     1.0000   1.0000   1.0000   1.0000   1.0000   1.0000   1.0000   1.0000
     1.0000   1.0000   1.0000   1.0000   1.0000   1.0000   1.0000   1.0000
     1.0000   1.0000   1.0000   1.0000   1.0000   1.0000   1.0000   1.0000
     1.0000   1.0000   1.0000   1.0000   1.0000   1.0000   1.0000   1.0000
     1.0000   1.0000   1.0000   1.0000   1.0000   0.0000   0.0000   0.0000
     0.0000   0.0000   0.0000   0.0000   0.0000   0.0000   0.0000   0.0000
     0.0000   0.0000   0.0000   0.0000   0.0000   0.0000   0.0000   0.0000
     0.0000   0.0000

          k = 0.0000 0.3849 0.0000 (  2329 PWs)   bands (ev):

   -87.8333 -87.8249 -87.8242 -87.8224 -87.8180 -87.8174 -48.2250 -48.2210
   -48.1992 -48.1852 -48.1842 -48.1782 -48.1753 -48.1728 -48.1659 -48.1424
   -48.1210 -48.1195 -48.1161 -48.1143 -48.1028 -48.0998 -48.0973 -48.0919
   -22.5277 -22.5040  -3.1802  -3.1383  -2.9897  -2.9559  -2.8877  -2.8795
     9.1310  11.1787  11.9978  12.2474  12.2629  12.4016  12.6390  12.6676
    12.8804  12.9254  13.0103  13.1391  13.3059  13.6365  13.6395  13.7025
    13.7953  13.8204  13.9115  13.9161  13.9576  14.0376  14.2168  14.3153
    14.3296  14.3694  14.4028  14.4151  14.5206  14.5710  14.6387  14.7535
    15.1971  15.2256  15.2391  15.2568  15.2711  15.3452  15.4428  15.4761
    15.4993  15.5102  15.5562  15.5758  15.5803  15.5900  15.6327  16.0285
    16.3749  17.0850  17.1101  17.5845  18.1454  18.6791  19.0880  19.3534
    20.3180  20.3750

     occupation numbers 
     1.0000   1.0000   1.0000   1.0000   1.0000   1.0000   1.0000   1.0000
     1.0000   1.0000   1.0000   1.0000   1.0000   1.0000   1.0000   1.0000
     1.0000   1.0000   1.0000   1.0000   1.0000   1.0000   1.0000   1.0000
     1.0000   1.0000   1.0000   1.0000   1.0000   1.0000   1.0000   1.0000
     1.0000   1.0000   1.0000   1.0000   1.0000   1.0000   1.0000   1.0000
     1.0000   1.0000   1.0000   1.0000   1.0000   1.0000   1.0000   1.0000
     1.0000   1.0000   1.0000   1.0000   1.0000   1.0000   1.0000   1.0000
     1.0000   1.0000   1.0000   1.0000   1.0000   1.0000   1.0000   1.0000
     1.0000   1.0000   1.0000   1.0000   1.0000   0.0000   0.0000   0.0000
     0.0000   0.0000   0.0000   0.0000   0.0000   0.0000   0.0000   0.0000
     0.0000   0.0000   0.0000   0.0000   0.0000   0.0000   0.0000   0.0000
     0.0000   0.0000

          k = 0.0000 0.3849 0.4599 (  2354 PWs)   bands (ev):

   -87.8340 -87.8282 -87.8240 -87.8235 -87.8202 -87.8199 -48.2286 -48.2256
   -48.2089 -48.2077 -48.1962 -48.1943 -48.1857 -48.1409 -48.1395 -48.1326
   -48.1322 -48.1285 -48.1230 -48.1221 -48.1114 -48.1111 -48.1074 -48.0967
   -22.5171 -22.5053  -3.1913  -3.1278  -3.0917  -2.9723  -2.9408  -2.8975
     9.9501  11.5641  11.7050  11.9598  12.4345  12.6024  12.6202  12.7528
    12.8939  12.8977  13.0743  13.3089  13.3525  13.3673  13.5162  13.6608
    13.7072  13.8770  13.9420  14.0565  14.1033  14.1164  14.2729  14.3195
    14.3671  14.4253  14.4800  14.5031  14.5060  14.6722  14.7300  14.7526
    15.0520  15.2216  15.2937  15.3538  15.3771  15.3853  15.4450  15.4721
    15.5129  15.5250  15.5291  15.5485  15.5798  15.6195  15.6456  15.8758
    15.9110  16.3069  16.7745  17.2705  17.3811  18.0481  18.3656  19.2960
    20.2159  20.9806

     occupation numbers 
     1.0000   1.0000   1.0000   1.0000   1.0000   1.0000   1.0000   1.0000
     1.0000   1.0000   1.0000   1.0000   1.0000   1.0000   1.0000   1.0000
     1.0000   1.0000   1.0000   1.0000   1.0000   1.0000   1.0000   1.0000
     1.0000   1.0000   1.0000   1.0000   1.0000   1.0000   1.0000   1.0000
     1.0000   1.0000   1.0000   1.0000   1.0000   1.0000   1.0000   1.0000
     1.0000   1.0000   1.0000   1.0000   1.0000   1.0000   1.0000   1.0000
     1.0000   1.0000   1.0000   1.0000   1.0000   1.0000   1.0000   1.0000
     1.0000   1.0000   1.0000   1.0000   1.0000   1.0000   1.0000   1.0000
     1.0000   1.0000   1.0000   1.0000   1.0000   0.0000   0.0000   0.0000
     0.0000   0.0000   0.0000   0.0000   0.0000   0.0000   0.0000   0.0000
     0.0000   0.0000   0.0000   0.0000   0.0000   0.0000   0.0000   0.0000
     0.0000   0.0000

          k = 0.3333 0.5774 0.0000 (  2340 PWs)   bands (ev):

   -87.8326 -87.8249 -87.8238 -87.8238 -87.8199 -87.8198 -48.2267 -48.2149
   -48.2097 -48.1899 -48.1898 -48.1768 -48.1768 -48.1703 -48.1702 -48.1404
   -48.1271 -48.1270 -48.1214 -48.1214 -48.0985 -48.0980 -48.0950 -48.0950
   -22.5157 -22.5155  -3.2281  -3.0438  -3.0435  -2.9395  -2.9392  -2.8668
     9.5964  11.4493  11.4496  12.2225  12.6416  12.6431  12.7373  12.7373
    12.8642  12.8643  13.0677  13.2315  13.2316  13.5089  13.5278  13.5278
    13.6051  13.6051  13.7036  13.8007  13.8008  14.0997  14.2834  14.3039
    14.3039  14.4120  14.4121  14.5218  14.5218  14.5318  14.5318  14.5451
    15.1306  15.1307  15.1419  15.2124  15.3519  15.3718  15.5013  15.5013
    15.5216  15.5218  15.5573  15.5835  15.5836  15.6167  15.6168  15.8781
    16.5166  16.5168  17.5325  17.9694  17.9695  18.6129  18.6131  20.0086
    20.1626  21.5728

     occupation numbers 
     1.0000   1.0000   1.0000   1.0000   1.0000   1.0000   1.0000   1.0000
     1.0000   1.0000   1.0000   1.0000   1.0000   1.0000   1.0000   1.0000
     1.0000   1.0000   1.0000   1.0000   1.0000   1.0000   1.0000   1.0000
     1.0000   1.0000   1.0000   1.0000   1.0000   1.0000   1.0000   1.0000
     1.0000   1.0000   1.0000   1.0000   1.0000   1.0000   1.0000   1.0000
     1.0000   1.0000   1.0000   1.0000   1.0000   1.0000   1.0000   1.0000
     1.0000   1.0000   1.0000   1.0000   1.0000   1.0000   1.0000   1.0000
     1.0000   1.0000   1.0000   1.0000   1.0000   1.0000   1.0000   1.0000
     1.0000   1.0000   1.0000   1.0000   1.0000   0.0000   0.0000   0.0000
     0.0000   0.0000   0.0000   0.0000   0.0000   0.0000   0.0000   0.0000
     0.0000   0.0000   0.0000   0.0000   0.0000   0.0000   0.0000   0.0000
     0.0000   0.0000

          k = 0.3333 0.5774 0.4599 (  2340 PWs)   bands (ev):

   -87.8306 -87.8258 -87.8235 -87.8234 -87.8206 -87.8205 -48.2281 -48.2202
   -48.2024 -48.2023 -48.1936 -48.1936 -48.1840 -48.1405 -48.1393 -48.1392
   -48.1287 -48.1286 -48.1216 -48.1093 -48.1093 -48.1078 -48.1000 -48.1000
   -22.5110 -22.5108  -3.1808  -3.1807  -3.1240  -2.9431  -2.9089  -2.9088
    10.2408  11.7122  11.9383  11.9385  12.7636  12.7636  12.8820  12.8942
    13.0327  13.0327  13.1345  13.1346  13.2242  13.3579  13.3579  13.5723
    13.6113  13.6888  13.8880  13.8881  14.0402  14.0402  14.2028  14.3471
    14.3471  14.4211  14.4211  14.4777  14.4932  14.4933  14.5270  14.7084
    14.7553  14.7553  15.3423  15.3424  15.3756  15.4471  15.4472  15.5005
    15.5037  15.5271  15.5272  15.5794  15.5795  15.6231  15.6233  15.6319
    16.3029  16.3029  17.0032  17.0033  17.2943  18.1079  19.3820  19.3820
    19.4600  21.0493

     occupation numbers 
     1.0000   1.0000   1.0000   1.0000   1.0000   1.0000   1.0000   1.0000
     1.0000   1.0000   1.0000   1.0000   1.0000   1.0000   1.0000   1.0000
     1.0000   1.0000   1.0000   1.0000   1.0000   1.0000   1.0000   1.0000
     1.0000   1.0000   1.0000   1.0000   1.0000   1.0000   1.0000   1.0000
     1.0000   1.0000   1.0000   1.0000   1.0000   1.0000   1.0000   1.0000
     1.0000   1.0000   1.0000   1.0000   1.0000   1.0000   1.0000   1.0000
     1.0000   1.0000   1.0000   1.0000   1.0000   1.0000   1.0000   1.0000
     1.0000   1.0000   1.0000   1.0000   1.0000   1.0000   1.0000   1.0000
     1.0000   1.0000   1.0000   1.0000   1.0000   0.0000   0.0000   0.0000
     0.0000   0.0000   0.0000   0.0000   0.0000   0.0000   0.0000   0.0000
     0.0000   0.0000   0.0000   0.0000   0.0000   0.0000   0.0000   0.0000
     0.0000   0.0000

     highest occupied, lowest unoccupied level (ev):    15.4001   15.3344

!    total energy              =   -3197.01346909 Ry
     estimated scf accuracy    <       0.00000044 Ry

     The total energy is the sum of the following terms:
     one-electron contribution =   -1531.94466991 Ry
     hartree contribution      =     855.95864338 Ry
     xc contribution           =    -244.71786171 Ry
     ewald contribution        =   -1396.42667334 Ry
     one-center paw contrib.   =    -879.88290751 Ry
      -> PAW hartree energy AE =     102.16355522 Ry
      -> PAW hartree energy PS =    -100.72725226 Ry
      -> PAW xc energy AE      =    -455.95344293 Ry
      -> PAW xc energy PS      =      14.57568622 Ry
      -> total E_H with PAW    =     857.39494634 Ry
      -> total E_XC with PAW   =    -686.09561842 Ry

     convergence has been achieved in  39 iterations

     Writing all to output data dir calculations_bands/myprefix.save/
 
     init_run     :      7.53s CPU      2.16s WALL (       1 calls)
     electrons    :    123.81s CPU     32.98s WALL (       1 calls)

     Called by init_run:
     wfcinit      :      0.96s CPU      0.26s WALL (       1 calls)
     wfcinit:atom :      0.01s CPU      0.00s WALL (       3 calls)
     wfcinit:wfcr :      0.90s CPU      0.25s WALL (       3 calls)
     potinit      :      2.43s CPU      0.65s WALL (       1 calls)
     hinit0       :      2.73s CPU      0.80s WALL (       1 calls)

     Called by electrons:
     c_bands      :     51.09s CPU     13.38s WALL (      39 calls)
     sum_band     :     16.82s CPU      4.86s WALL (      39 calls)
     v_of_rho     :      1.51s CPU      0.40s WALL (      40 calls)
     v_h          :      0.12s CPU      0.03s WALL (      40 calls)
     v_xc         :      1.39s CPU      0.36s WALL (      40 calls)
     newd         :      8.82s CPU      2.45s WALL (      40 calls)
     PAW_pot      :     45.83s CPU     11.96s WALL (      40 calls)
     mix_rho      :      0.57s CPU      0.15s WALL (      39 calls)

     Called by c_bands:
     init_us_2    :      0.33s CPU      0.09s WALL (     237 calls)
     init_us_2:cp :      0.32s CPU      0.08s WALL (     237 calls)
     cegterg      :     45.00s CPU     11.74s WALL (     117 calls)

     Called by sum_band:
     sum_band:wei :      0.02s CPU      0.00s WALL (      39 calls)
     sum_band:loo :      7.16s CPU      1.87s WALL (      39 calls)
     sum_band:buf :      0.09s CPU      0.02s WALL (     117 calls)
     sum_band:ini :      0.16s CPU      0.04s WALL (     117 calls)
     sum_band:cal :      0.44s CPU      0.11s WALL (     117 calls)
     sum_band:bec :      0.12s CPU      0.03s WALL (     117 calls)
     addusdens    :      8.19s CPU      2.61s WALL (      39 calls)
     addusd:skk   :      0.01s CPU      0.00s WALL (      78 calls)
     addusd:dgemm :      1.63s CPU      0.95s WALL (      78 calls)
     addusd:qvan2 :      6.08s CPU      1.53s WALL (      78 calls)

     Called by *egterg:
     cdiaghg      :     10.34s CPU      2.71s WALL (     335 calls)
     cegterg:over :      1.45s CPU      0.38s WALL (     218 calls)
     cegterg:upda :      0.74s CPU      0.19s WALL (     218 calls)
     cegterg:last :      1.15s CPU      0.29s WALL (     180 calls)
     cdiaghg:chol :      0.72s CPU      0.19s WALL (     335 calls)
     cdiaghg:inve :      0.13s CPU      0.03s WALL (     335 calls)
     cdiaghg:para :      1.83s CPU      0.48s WALL (     670 calls)
     h_psi        :     30.58s CPU      7.99s WALL (     338 calls)
     s_psi        :      0.60s CPU      0.15s WALL (     338 calls)
     g_psi        :      0.04s CPU      0.01s WALL (     218 calls)

     Called by h_psi:
     h_psi:calbec :      1.21s CPU      0.31s WALL (     338 calls)
     vloc_psi     :     28.56s CPU      7.47s WALL (     338 calls)
     add_vuspsi   :      0.72s CPU      0.19s WALL (     338 calls)

     General routines
     calbec       :      1.63s CPU      0.42s WALL (     455 calls)
     fft          :      2.17s CPU      0.64s WALL (     518 calls)
     ffts         :      0.95s CPU      0.27s WALL (      79 calls)
     fftw         :     29.81s CPU      7.81s WALL (   59620 calls)
     interpolate  :      1.06s CPU      0.30s WALL (      40 calls)
 
     Parallel routines

     PAW routines
     PAW_pot      :     45.83s CPU     11.96s WALL (      40 calls)
     PAW_symme    :      0.36s CPU      0.10s WALL (      79 calls)
 
     PWSCF        :   2m12.45s CPU     36.29s WALL

 
   This run was terminated on:  16:31:14  23Jun2023            

=------------------------------------------------------------------------------=
   JOB DONE.
=------------------------------------------------------------------------------=
