
     Program PWSCF v.7.0 starts on  4Jun2023 at 19:17:51 

     This program is part of the open-source Quantum ESPRESSO suite
     for quantum simulation of materials; please cite
         "P. Giannozzi et al., J. Phys.:Condens. Matter 21 395502 (2009);
         "P. Giannozzi et al., J. Phys.:Condens. Matter 29 465901 (2017);
         "P. Giannozzi et al., J. Chem. Phys. 152 154105 (2020);
          URL http://www.quantum-espresso.org", 
     in publications or presentations arising from this work. More details at
     http://www.quantum-espresso.org/quote

     Parallel version (MPI & OpenMP), running on      32 processor cores
     Number of MPI processes:                 8
     Threads/MPI process:                     4

     MPI processes distributed on     1 nodes
     K-points division:     npool     =       2
     R & G space division:  proc/nbgrp/npool/nimage =       4
     139210 MiB available memory on the printing compute node when the environment starts
 
     Reading input from espresso_9086.pwi
Warning: card &CELL ignored
Warning: card / ignored

     Current dimensions of program PWSCF are:
     Max number of different atomic species (ntypx) = 10
     Max number of k-points (npk) =  40000
     Max angular momentum in pseudopotentials (lmaxx) =  4
     file Ba.pbe-spn-kjpaw_psl.1.0.0.UPF: wavefunction(s)  5S 6S renormalized
     file O.pbe-n-kjpaw_psl.0.1.UPF: wavefunction(s)  2P renormalized
     Message from routine setup:
     using ibrav=0 with symmetry is DISCOURAGED, use correct ibrav instead

     Subspace diagonalization in iterative solution of the eigenvalue problem:
     one sub-group per band group will be used
     scalapack distributed-memory algorithm (size of sub-group:  2*  2 procs)

 
     Parallelization info
     --------------------
     sticks:   dense  smooth     PW     G-vecs:    dense   smooth      PW
     Min        1503     751    240                29099    10299    1861
     Max        1504     752    241                29100    10300    1862
     Sum        6015    3005    961               116397    41197    7445
 
     Using Slab Decomposition
 


     bravais-lattice index     =            0
     lattice parameter (alat)  =      26.0214  a.u.
     unit-cell volume          =    1852.8168 (a.u.)^3
     number of atoms/cell      =           14
     number of atomic types    =            3
     number of electrons       =       112.00
     number of Kohn-Sham states=           64
     kinetic-energy cutoff     =      30.0000  Ry
     charge density cutoff     =     240.0000  Ry
     scf convergence threshold =      1.0E-06
     mixing beta               =       0.7000
     number of iterations used =            8  plain     mixing
     Exchange-correlation= SLA  PW   PBX  PBC
                           (   1   4   3   4   0   0   0)

     celldm(1)=  26.021417  celldm(2)=   0.000000  celldm(3)=   0.000000
     celldm(4)=   0.000000  celldm(5)=   0.000000  celldm(6)=   0.000000

     crystal axes: (cart. coord. in units of alat)
               a(1) = (   1.000000   0.000000   0.000000 )  
               a(2) = (   0.884979   0.465630   0.000000 )  
               a(3) = (  -0.923145  -0.311129   0.225839 )  

     reciprocal axes: (cart. coord. in units 2 pi/alat)
               b(1) = (  1.000000 -1.900605  1.469244 )  
               b(2) = (  0.000000  2.147626  2.958695 )  
               b(3) = (  0.000000  0.000000  4.427939 )  


     PseudoPot. # 1 for Ba read from file:
     /home/pragov/projects/rrg-bengioy-ad/pragov/crystal_structure_design/SSSP/Ba.pbe-spn-kjpaw_psl.1.0.0.UPF
     MD5 check sum: c432291d3e53af55f19d5e8866385beb
     Pseudo is Projector augmented-wave + core cor, Zval = 10.0
     Generated using "atomic" code by A. Dal Corso  v.5.1
     Shape of augmentation charge: PSQ
     Using radial grid of 1251 points,  7 beta functions with: 
                l(1) =   0
                l(2) =   0
                l(3) =   0
                l(4) =   1
                l(5) =   1
                l(6) =   2
                l(7) =   2
     Q(r) pseudized with 0 coefficients 


     PseudoPot. # 2 for Sr read from file:
     /home/pragov/projects/rrg-bengioy-ad/pragov/crystal_structure_design/SSSP/Sr_pbe_v1.uspp.F.UPF
     MD5 check sum: 6b418c05fbe9db5448babca5e47b7a5b
     Pseudo is Ultrasoft + core correction, Zval = 10.0
     Generated by new atomic code, or converted to UPF format
     Using radial grid of  883 points,  6 beta functions with: 
                l(1) =   0
                l(2) =   0
                l(3) =   1
                l(4) =   1
                l(5) =   2
                l(6) =   2
     Q(r) pseudized with  6 coefficients,  rinner =    1.400   1.400   1.400
                                                       1.400   1.400

     PseudoPot. # 3 for O  read from file:
     /home/pragov/projects/rrg-bengioy-ad/pragov/crystal_structure_design/SSSP/O.pbe-n-kjpaw_psl.0.1.UPF
     MD5 check sum: 0234752ac141de4415c5fc33072bef88
     Pseudo is Projector augmented-wave + core cor, Zval =  6.0
     Generated using "atomic" code by A. Dal Corso  v.5.0.99 svn rev. 10869
     Shape of augmentation charge: BESSEL
     Using radial grid of 1095 points,  4 beta functions with: 
                l(1) =   0
                l(2) =   0
                l(3) =   1
                l(4) =   1
     Q(r) pseudized with 0 coefficients 


     atomic species   valence    mass     pseudopotential
        Ba            10.00   137.32700     Ba( 1.00)
        Sr            10.00    87.62000     Sr( 1.00)
        O              6.00    15.99900     O ( 1.00)

      2 Sym. Ops., with inversion, found


                                    s                        frac. trans.

      isym =  1     identity                                     

 cryst.   s( 1) = (     1          0          0      )
                  (     0          1          0      )
                  (     0          0          1      )

 cart.    s( 1) = (  1.0000000  0.0000000 -0.0000000 )
                  (  0.0000000  1.0000000 -0.0000000 )
                  (  0.0000000  0.0000000  1.0000000 )


      isym =  2     inversion                                    

 cryst.   s( 2) = (    -1          0          0      )
                  (     0         -1          0      )
                  (     0          0         -1      )

 cart.    s( 2) = ( -1.0000000 -0.0000000  0.0000000 )
                  (  0.0000000 -1.0000000  0.0000000 )
                  (  0.0000000  0.0000000 -1.0000000 )


   Cartesian axes

     site n.     atom                  positions (alat units)
         1           Ba  tau(   1) = (   0.7079629   0.0098253   0.1129194  )
         2           Ba  tau(   2) = (   0.2538718   0.1446765   0.1129194  )
         3           Ba  tau(   3) = (  -0.0190826   0.0772509   0.1129194  )
         4           Sr  tau(   4) = (   0.5180045   0.2099229   0.1129194  )
         5           Sr  tau(   5) = (   0.4438302  -0.0554212   0.1129194  )
         6           Sr  tau(   6) = (   0.7880768   0.2766366   0.1129194  )
         7           Sr  tau(   7) = (   0.1737579  -0.1221348   0.1129194  )
         8           O   tau(   8) = (   1.2071766   0.2981985   0.0000000  )
         9           O   tau(   9) = (   0.6778027   0.1674318   0.0000000  )
        10           O   tau(  10) = (   0.9424897   0.2328152   0.0000000  )
        11           O   tau(  11) = (   0.4191798   0.1035464   0.0000000  )
        12           O   tau(  12) = (   1.4657995   0.3620839   0.0000000  )
        13           O   tau(  13) = (   0.1388834   0.0343072   0.0000000  )
        14           O   tau(  14) = (   1.7460959   0.4313232   0.0000000  )

   Crystallographic axes

     site n.     atom                  positions (cryst. coord.)
         1           Ba  tau(   1) = (  0.8551950  0.3551950  0.5000000  )
         2           Ba  tau(   2) = (  0.1448050  0.6448050  0.5000000  )
         3           Ba  tau(   3) = (  0.0000000  0.5000000  0.5000000  )
         4           Sr  tau(   4) = (  0.2849300  0.7849300  0.5000000  )
         5           Sr  tau(   5) = (  0.7150700  0.2150700  0.5000000  )
         6           Sr  tau(   6) = (  0.4282060  0.9282060  0.5000000  )
         7           Sr  tau(   7) = (  0.5717940  0.0717940  0.5000000  )
         8           O   tau(   8) = (  0.6404190  0.6404190  0.0000000  )
         9           O   tau(   9) = (  0.3595810  0.3595810  0.0000000  )
        10           O   tau(  10) = (  0.5000000  0.5000000  0.0000000  )
        11           O   tau(  11) = (  0.2223790  0.2223790  0.0000000  )
        12           O   tau(  12) = (  0.7776210  0.7776210  0.0000000  )
        13           O   tau(  13) = (  0.0736790  0.0736790  0.0000000  )
        14           O   tau(  14) = (  0.9263210  0.9263210  0.0000000  )

     number of k points=    14
                       cart. coord. in units 2pi/alat
        k(    1) = (   0.0000000   0.0000000   0.0000000), wk =   0.0740741
        k(    2) = (   0.0000000   0.0000000   1.4759796), wk =   0.1481481
        k(    3) = (   0.0000000   0.7158754   0.9862317), wk =   0.1481481
        k(    4) = (   0.0000000   0.7158754   2.4622113), wk =   0.1481481
        k(    5) = (   0.0000000   0.7158754  -0.4897479), wk =   0.1481481
        k(    6) = (   0.3333333  -0.6335350   0.4897479), wk =   0.1481481
        k(    7) = (   0.3333333  -0.6335350   1.9657275), wk =   0.1481481
        k(    8) = (   0.3333333  -0.6335350  -0.9862317), wk =   0.1481481
        k(    9) = (   0.3333333   0.0823405   1.4759796), wk =   0.1481481
        k(   10) = (   0.3333333   0.0823405   2.9519592), wk =   0.1481481
        k(   11) = (   0.3333333   0.0823405  -0.0000000), wk =   0.1481481
        k(   12) = (   0.3333333  -1.3494104  -0.4964839), wk =   0.1481481
        k(   13) = (   0.3333333  -1.3494104   0.9794957), wk =   0.1481481
        k(   14) = (   0.3333333  -1.3494104  -1.9724635), wk =   0.1481481

                       cryst. coord.
        k(    1) = (   0.0000000   0.0000000   0.0000000), wk =   0.0740741
        k(    2) = (   0.0000000   0.0000000   0.3333333), wk =   0.1481481
        k(    3) = (   0.0000000   0.3333333  -0.0000000), wk =   0.1481481
        k(    4) = (   0.0000000   0.3333333   0.3333333), wk =   0.1481481
        k(    5) = (   0.0000000   0.3333333  -0.3333333), wk =   0.1481481
        k(    6) = (   0.3333333  -0.0000000   0.0000000), wk =   0.1481481
        k(    7) = (   0.3333333  -0.0000000   0.3333333), wk =   0.1481481
        k(    8) = (   0.3333333  -0.0000000  -0.3333333), wk =   0.1481481
        k(    9) = (   0.3333333   0.3333333   0.0000000), wk =   0.1481481
        k(   10) = (   0.3333333   0.3333333   0.3333333), wk =   0.1481481
        k(   11) = (   0.3333333   0.3333333  -0.3333333), wk =   0.1481481
        k(   12) = (   0.3333333  -0.3333333   0.0000000), wk =   0.1481481
        k(   13) = (   0.3333333  -0.3333333   0.3333333), wk =   0.1481481
        k(   14) = (   0.3333333  -0.3333333  -0.3333333), wk =   0.1481481

     Dense  grid:   116397 G-vectors     FFT dimensions: ( 135, 135, 135)

     Smooth grid:    41197 G-vectors     FFT dimensions: (  96,  96,  96)

     Dynamical RAM for                 wfc:       1.25 MB

     Dynamical RAM for     wfc (w. buffer):      10.04 MB

     Dynamical RAM for           str. fact:       1.33 MB

     Dynamical RAM for           local pot:       0.00 MB

     Dynamical RAM for          nlocal pot:       3.63 MB

     Dynamical RAM for                qrad:       4.98 MB

     Dynamical RAM for          rho,v,vnew:      15.51 MB

     Dynamical RAM for               rhoin:       5.17 MB

     Dynamical RAM for            rho*nmix:       7.10 MB

     Dynamical RAM for           G-vectors:       1.74 MB

     Dynamical RAM for          h,s,v(r/c):       0.19 MB

     Dynamical RAM for          <psi|beta>:       0.18 MB

     Dynamical RAM for                 psi:       2.51 MB

     Dynamical RAM for                hpsi:       2.51 MB

     Dynamical RAM for                spsi:       2.51 MB

     Dynamical RAM for      wfcinit/wfcrot:       3.93 MB

     Dynamical RAM for           addusdens:      47.29 MB

     Estimated static dynamical RAM per process >      67.82 MB

     Estimated max dynamical RAM per process >     122.21 MB

     Estimated total dynamical RAM >     949.28 MB

     Check: negative core charge=   -0.000009

     Initial potential from superposition of free atoms

     starting charge     111.8144, renormalised to     112.0000

     negative rho (up, down):  2.527E-01 0.000E+00
     Starting wfcs are   95 randomized atomic wfcs
     Checking if some PAW data can be deallocated... 
       PAW data deallocated on    6 nodes for type:  1
       PAW data deallocated on    3 nodes for type:  3

     total cpu time spent up to now is       16.6 secs

     Self-consistent Calculation

     iteration #  1     ecut=    30.00 Ry     beta= 0.70
     Davidson diagonalization with overlap

---- Real-time Memory Report at c_bands before calling an iterative solver
           251 MiB given to the printing process from OS
             0 MiB allocation reported by mallinfo(arena+hblkhd)
        138209 MiB available memory on the node where the printing process lives
------------------
     ethr =  1.00E-02,  avg # of iterations =  5.1

     negative rho (up, down):  2.752E-01 0.000E+00

     total cpu time spent up to now is       38.3 secs

     total energy              =   -1879.32265509 Ry
     estimated scf accuracy    <       5.05334277 Ry

     iteration #  2     ecut=    30.00 Ry     beta= 0.70
     Davidson diagonalization with overlap

---- Real-time Memory Report at c_bands before calling an iterative solver
           322 MiB given to the printing process from OS
             0 MiB allocation reported by mallinfo(arena+hblkhd)
        137927 MiB available memory on the node where the printing process lives
------------------
     ethr =  4.51E-03,  avg # of iterations =  4.4

     negative rho (up, down):  2.724E-01 0.000E+00

     total cpu time spent up to now is       65.2 secs

     total energy              =   -1878.13746494 Ry
     estimated scf accuracy    <      20.58506344 Ry

     iteration #  3     ecut=    30.00 Ry     beta= 0.70
     Davidson diagonalization with overlap

---- Real-time Memory Report at c_bands before calling an iterative solver
           326 MiB given to the printing process from OS
             0 MiB allocation reported by mallinfo(arena+hblkhd)
        137811 MiB available memory on the node where the printing process lives
------------------
     ethr =  4.51E-03,  avg # of iterations =  3.1

     negative rho (up, down):  2.653E-01 0.000E+00

     total cpu time spent up to now is       88.2 secs

     total energy              =   -1882.00759379 Ry
     estimated scf accuracy    <       0.18142550 Ry

     iteration #  4     ecut=    30.00 Ry     beta= 0.70
     Davidson diagonalization with overlap

---- Real-time Memory Report at c_bands before calling an iterative solver
           335 MiB given to the printing process from OS
             0 MiB allocation reported by mallinfo(arena+hblkhd)
        137804 MiB available memory on the node where the printing process lives
------------------
     ethr =  1.62E-04,  avg # of iterations =  4.4

     negative rho (up, down):  2.652E-01 0.000E+00

     total cpu time spent up to now is      115.3 secs

     total energy              =   -1882.00016218 Ry
     estimated scf accuracy    <       0.09828966 Ry

     iteration #  5     ecut=    30.00 Ry     beta= 0.70
     Davidson diagonalization with overlap

---- Real-time Memory Report at c_bands before calling an iterative solver
           335 MiB given to the printing process from OS
             0 MiB allocation reported by mallinfo(arena+hblkhd)
        137787 MiB available memory on the node where the printing process lives
------------------
     ethr =  8.78E-05,  avg # of iterations =  4.1

     negative rho (up, down):  2.659E-01 0.000E+00

     total cpu time spent up to now is      136.1 secs

     total energy              =   -1882.00383741 Ry
     estimated scf accuracy    <       0.03269243 Ry

     iteration #  6     ecut=    30.00 Ry     beta= 0.70
     Davidson diagonalization with overlap

---- Real-time Memory Report at c_bands before calling an iterative solver
           336 MiB given to the printing process from OS
             0 MiB allocation reported by mallinfo(arena+hblkhd)
        137790 MiB available memory on the node where the printing process lives
------------------
     ethr =  2.92E-05,  avg # of iterations =  8.8

     negative rho (up, down):  2.667E-01 0.000E+00

     total cpu time spent up to now is      159.6 secs

     total energy              =   -1882.00958196 Ry
     estimated scf accuracy    <       0.00270344 Ry

     iteration #  7     ecut=    30.00 Ry     beta= 0.70
     Davidson diagonalization with overlap

---- Real-time Memory Report at c_bands before calling an iterative solver
           336 MiB given to the printing process from OS
             0 MiB allocation reported by mallinfo(arena+hblkhd)
        137759 MiB available memory on the node where the printing process lives
------------------
     c_bands:  1 eigenvalues not converged
     c_bands:  1 eigenvalues not converged
     ethr =  2.41E-06,  avg # of iterations =  9.7

     negative rho (up, down):  2.668E-01 0.000E+00

     total cpu time spent up to now is      180.4 secs

     total energy              =   -1882.00979338 Ry
     estimated scf accuracy    <       0.00202366 Ry

     iteration #  8     ecut=    30.00 Ry     beta= 0.70
     Davidson diagonalization with overlap

---- Real-time Memory Report at c_bands before calling an iterative solver
           354 MiB given to the printing process from OS
             0 MiB allocation reported by mallinfo(arena+hblkhd)
        137697 MiB available memory on the node where the printing process lives
------------------
     ethr =  1.81E-06,  avg # of iterations =  5.8

     negative rho (up, down):  2.668E-01 0.000E+00

     total cpu time spent up to now is      199.3 secs

     total energy              =   -1882.00979418 Ry
     estimated scf accuracy    <       0.00073331 Ry

     iteration #  9     ecut=    30.00 Ry     beta= 0.70
     Davidson diagonalization with overlap

---- Real-time Memory Report at c_bands before calling an iterative solver
           354 MiB given to the printing process from OS
             0 MiB allocation reported by mallinfo(arena+hblkhd)
        137706 MiB available memory on the node where the printing process lives
------------------
     ethr =  6.55E-07,  avg # of iterations =  2.0

     negative rho (up, down):  2.668E-01 0.000E+00

     total cpu time spent up to now is      217.2 secs

     total energy              =   -1882.00979824 Ry
     estimated scf accuracy    <       0.00015170 Ry

     iteration # 10     ecut=    30.00 Ry     beta= 0.70
     Davidson diagonalization with overlap

---- Real-time Memory Report at c_bands before calling an iterative solver
           354 MiB given to the printing process from OS
             0 MiB allocation reported by mallinfo(arena+hblkhd)
        137757 MiB available memory on the node where the printing process lives
------------------
     ethr =  1.35E-07,  avg # of iterations =  2.6

     negative rho (up, down):  2.667E-01 0.000E+00

     total cpu time spent up to now is      232.4 secs

     total energy              =   -1882.00983615 Ry
     estimated scf accuracy    <       0.00001622 Ry

     iteration # 11     ecut=    30.00 Ry     beta= 0.70
     Davidson diagonalization with overlap

---- Real-time Memory Report at c_bands before calling an iterative solver
           354 MiB given to the printing process from OS
             0 MiB allocation reported by mallinfo(arena+hblkhd)
        137757 MiB available memory on the node where the printing process lives
------------------
     ethr =  1.45E-08,  avg # of iterations =  3.9

     negative rho (up, down):  2.667E-01 0.000E+00

     total cpu time spent up to now is      261.3 secs

     total energy              =   -1882.00983247 Ry
     estimated scf accuracy    <       0.00004064 Ry

     iteration # 12     ecut=    30.00 Ry     beta= 0.70
     Davidson diagonalization with overlap

---- Real-time Memory Report at c_bands before calling an iterative solver
           354 MiB given to the printing process from OS
             0 MiB allocation reported by mallinfo(arena+hblkhd)
        137744 MiB available memory on the node where the printing process lives
------------------
     ethr =  1.45E-08,  avg # of iterations =  2.0

     negative rho (up, down):  2.668E-01 0.000E+00

     total cpu time spent up to now is      278.6 secs

     total energy              =   -1882.00983249 Ry
     estimated scf accuracy    <       0.00000636 Ry

     iteration # 13     ecut=    30.00 Ry     beta= 0.70
     Davidson diagonalization with overlap

---- Real-time Memory Report at c_bands before calling an iterative solver
           354 MiB given to the printing process from OS
             0 MiB allocation reported by mallinfo(arena+hblkhd)
        137761 MiB available memory on the node where the printing process lives
------------------
     ethr =  5.68E-09,  avg # of iterations =  3.0

     negative rho (up, down):  2.668E-01 0.000E+00

     total cpu time spent up to now is      297.4 secs

     End of self-consistent calculation

          k = 0.0000 0.0000 0.0000 (  5151 PWs)   bands (ev):

   -25.1379 -25.1259 -24.9490 -24.8958 -17.4196 -17.4017 -17.3259  -8.3544
    -8.1062  -8.0078  -7.7314  -7.5620  -7.4282  -7.3023  -7.2785  -7.2540
    -7.2377  -7.0422  -7.0135  -6.9147  -6.8775  -6.7461  -6.6880  -6.3616
    -6.0928  -6.0384  -2.8533  -2.8437  -2.8071  -2.4009  -2.3368  -2.3145
    -2.2649  -2.2548  -2.1688   6.3393   6.3975   6.6742   6.6978   6.7884
     6.9214   6.9790   7.0817   7.0938   7.2297   7.3306   7.4348   7.4428
     7.5192   7.5486   7.6395   7.6926   7.7289   7.9271   7.9626   7.9947
    10.9300  11.1501  11.3162  12.7095  12.8555  12.9196  13.0042  13.2238

     occupation numbers 
     1.0000   1.0000   1.0000   1.0000   1.0000   1.0000   1.0000   1.0000
     1.0000   1.0000   1.0000   1.0000   1.0000   1.0000   1.0000   1.0000
     1.0000   1.0000   1.0000   1.0000   1.0000   1.0000   1.0000   1.0000
     1.0000   1.0000   1.0000   1.0000   1.0000   1.0000   1.0000   1.0000
     1.0000   1.0000   1.0000   1.0000   1.0000   1.0000   1.0000   1.0000
     1.0000   1.0000   1.0000   1.0000   1.0000   1.0000   1.0000   1.0000
     1.0000   1.0000   1.0000   1.0000   1.0000   1.0000   1.0000   1.0000
     0.0000   0.0000   0.0000   0.0000   0.0000   0.0000   0.0000   0.0000

          k = 0.0000 0.0000 1.4760 (  5157 PWs)   bands (ev):

   -25.1180 -25.1072 -24.9090 -24.8956 -17.3258 -17.3114 -17.2404  -8.3289
    -8.3149  -8.2240  -8.0833  -8.0498  -8.0307  -7.9503  -7.2367  -7.0882
    -7.0617  -6.9492  -6.9189  -6.6863  -6.6207  -6.5906  -6.4921  -6.3220
    -6.0407  -6.0240  -2.9973  -2.9623  -2.7043  -2.6551  -2.3528  -2.3229
    -2.3065  -2.2841  -2.2412   6.0788   6.2338   6.3779   6.4487   6.5851
     6.7566   6.8682   6.8795   6.9100   6.9250   6.9572   6.9620   7.0238
     7.0788   7.0848   7.1120   7.1476   7.4212   7.4215   7.7444   7.7679
    12.2692  12.2971  12.3927  12.5308  13.1867  13.3090  13.3859  14.0166

     occupation numbers 
     1.0000   1.0000   1.0000   1.0000   1.0000   1.0000   1.0000   1.0000
     1.0000   1.0000   1.0000   1.0000   1.0000   1.0000   1.0000   1.0000
     1.0000   1.0000   1.0000   1.0000   1.0000   1.0000   1.0000   1.0000
     1.0000   1.0000   1.0000   1.0000   1.0000   1.0000   1.0000   1.0000
     1.0000   1.0000   1.0000   1.0000   1.0000   1.0000   1.0000   1.0000
     1.0000   1.0000   1.0000   1.0000   1.0000   1.0000   1.0000   1.0000
     1.0000   1.0000   1.0000   1.0000   1.0000   1.0000   1.0000   1.0000
     0.0000   0.0000   0.0000   0.0000   0.0000   0.0000   0.0000   0.0000

          k = 0.0000 0.7159 0.9862 (  5122 PWs)   bands (ev):

   -25.1186 -25.1077 -24.9162 -24.8895 -17.3317 -17.3173 -17.2467  -8.1801
    -8.1180  -8.0492  -7.8797  -7.8261  -7.5740  -7.5106  -7.2512  -7.2444
    -7.2279  -7.1294  -7.0830  -7.0202  -6.9602  -6.6962  -6.5036  -6.3518
    -6.1882  -6.1433  -2.9792  -2.9433  -2.7990  -2.7757  -2.7169  -2.6961
    -2.6447  -2.3527  -2.2870   6.4769   6.6051   6.6315   6.7071   6.8414
     6.9711   7.0195   7.1565   7.1696   7.2390   7.2541   7.2768   7.2921
     7.4261   7.4935   7.5451   7.7741   7.8536   7.9390   7.9864   8.0248
    11.0670  11.0956  11.4861  11.6333  12.6763  12.9890  13.0624  13.3255

     occupation numbers 
     1.0000   1.0000   1.0000   1.0000   1.0000   1.0000   1.0000   1.0000
     1.0000   1.0000   1.0000   1.0000   1.0000   1.0000   1.0000   1.0000
     1.0000   1.0000   1.0000   1.0000   1.0000   1.0000   1.0000   1.0000
     1.0000   1.0000   1.0000   1.0000   1.0000   1.0000   1.0000   1.0000
     1.0000   1.0000   1.0000   1.0000   1.0000   1.0000   1.0000   1.0000
     1.0000   1.0000   1.0000   1.0000   1.0000   1.0000   1.0000   1.0000
     1.0000   1.0000   1.0000   1.0000   1.0000   1.0000   1.0000   1.0000
     0.0000   0.0000   0.0000   0.0000   0.0000   0.0000   0.0000   0.0000

          k = 0.0000 0.7159 2.4622 (  5133 PWs)   bands (ev):

   -25.1180 -25.1072 -24.9090 -24.8956 -17.3260 -17.3111 -17.2404  -8.3407
    -8.3106  -8.2040  -8.0849  -8.0595  -8.0370  -7.9467  -7.2280  -7.1245
    -7.0243  -6.9398  -6.9247  -6.7137  -6.6221  -6.5910  -6.4631  -6.3340
    -6.0394  -6.0245  -3.0033  -2.9633  -2.6978  -2.6475  -2.3546  -2.3230
    -2.3079  -2.2883  -2.2409   6.0986   6.2196   6.3482   6.4719   6.5577
     6.8169   6.8525   6.8764   6.9229   6.9385   6.9783   6.9869   7.0052
     7.0502   7.1078   7.1164   7.1747   7.3699   7.4338   7.7458   7.7837
    12.1342  12.1482  12.6923  12.8274  13.0766  13.1169  13.3959  13.8594

     occupation numbers 
     1.0000   1.0000   1.0000   1.0000   1.0000   1.0000   1.0000   1.0000
     1.0000   1.0000   1.0000   1.0000   1.0000   1.0000   1.0000   1.0000
     1.0000   1.0000   1.0000   1.0000   1.0000   1.0000   1.0000   1.0000
     1.0000   1.0000   1.0000   1.0000   1.0000   1.0000   1.0000   1.0000
     1.0000   1.0000   1.0000   1.0000   1.0000   1.0000   1.0000   1.0000
     1.0000   1.0000   1.0000   1.0000   1.0000   1.0000   1.0000   1.0000
     1.0000   1.0000   1.0000   1.0000   1.0000   1.0000   1.0000   1.0000
     0.0000   0.0000   0.0000   0.0000   0.0000   0.0000   0.0000   0.0000

          k = 0.0000 0.7159-0.4897 (  5163 PWs)   bands (ev):

   -25.1372 -25.1253 -24.9352 -24.9086 -17.4168 -17.3966 -17.3200  -8.4651
    -8.3384  -8.2153  -8.0819  -7.9912  -7.9181  -7.5676  -7.0390  -7.0111
    -6.9673  -6.8435  -6.8144  -6.7776  -6.6422  -6.5825  -6.5601  -6.2917
    -6.0187  -5.9701  -2.4191  -2.4120  -2.3826  -2.3462  -2.3284  -2.3181
    -2.2678  -2.2458  -2.1634   5.8746   6.1440   6.3264   6.5177   6.7150
     6.7567   6.8205   6.8516   6.8584   6.8758   6.9047   6.9170   6.9460
     7.0734   7.1636   7.2114   7.3405   7.5235   7.5407   7.6304   7.6657
    11.1583  11.7362  12.4341  12.5190  12.9944  13.1837  13.2940  13.6034

     occupation numbers 
     1.0000   1.0000   1.0000   1.0000   1.0000   1.0000   1.0000   1.0000
     1.0000   1.0000   1.0000   1.0000   1.0000   1.0000   1.0000   1.0000
     1.0000   1.0000   1.0000   1.0000   1.0000   1.0000   1.0000   1.0000
     1.0000   1.0000   1.0000   1.0000   1.0000   1.0000   1.0000   1.0000
     1.0000   1.0000   1.0000   1.0000   1.0000   1.0000   1.0000   1.0000
     1.0000   1.0000   1.0000   1.0000   1.0000   1.0000   1.0000   1.0000
     1.0000   1.0000   1.0000   1.0000   1.0000   1.0000   1.0000   1.0000
     0.0000   0.0000   0.0000   0.0000   0.0000   0.0000   0.0000   0.0000

          k = 0.3333-0.6335 0.4897 (  5163 PWs)   bands (ev):

   -25.1372 -25.1253 -24.9352 -24.9086 -17.4168 -17.3966 -17.3200  -8.4651
    -8.3384  -8.2153  -8.0819  -7.9912  -7.9181  -7.5676  -7.0390  -7.0111
    -6.9673  -6.8435  -6.8144  -6.7776  -6.6422  -6.5825  -6.5601  -6.2917
    -6.0187  -5.9701  -2.4191  -2.4120  -2.3826  -2.3462  -2.3284  -2.3181
    -2.2678  -2.2458  -2.1634   5.8746   6.1440   6.3264   6.5177   6.7150
     6.7567   6.8205   6.8516   6.8584   6.8758   6.9047   6.9170   6.9460
     7.0734   7.1636   7.2114   7.3405   7.5235   7.5407   7.6304   7.6656
    11.1583  11.7362  12.4341  12.5190  12.9944  13.1837  13.2940  13.6034

     occupation numbers 
     1.0000   1.0000   1.0000   1.0000   1.0000   1.0000   1.0000   1.0000
     1.0000   1.0000   1.0000   1.0000   1.0000   1.0000   1.0000   1.0000
     1.0000   1.0000   1.0000   1.0000   1.0000   1.0000   1.0000   1.0000
     1.0000   1.0000   1.0000   1.0000   1.0000   1.0000   1.0000   1.0000
     1.0000   1.0000   1.0000   1.0000   1.0000   1.0000   1.0000   1.0000
     1.0000   1.0000   1.0000   1.0000   1.0000   1.0000   1.0000   1.0000
     1.0000   1.0000   1.0000   1.0000   1.0000   1.0000   1.0000   1.0000
     0.0000   0.0000   0.0000   0.0000   0.0000   0.0000   0.0000   0.0000

          k = 0.3333-0.6335 1.9657 (  5133 PWs)   bands (ev):

   -25.1180 -25.1072 -24.9090 -24.8956 -17.3260 -17.3111 -17.2404  -8.3407
    -8.3106  -8.2040  -8.0849  -8.0595  -8.0370  -7.9467  -7.2280  -7.1245
    -7.0243  -6.9398  -6.9247  -6.7137  -6.6221  -6.5910  -6.4631  -6.3340
    -6.0394  -6.0245  -3.0033  -2.9633  -2.6978  -2.6475  -2.3546  -2.3230
    -2.3079  -2.2883  -2.2409   6.0986   6.2196   6.3482   6.4719   6.5577
     6.8169   6.8525   6.8764   6.9229   6.9385   6.9783   6.9869   7.0052
     7.0502   7.1078   7.1164   7.1747   7.3699   7.4338   7.7458   7.7837
    12.1342  12.1482  12.6923  12.8274  13.0766  13.1169  13.3959  13.8594

     occupation numbers 
     1.0000   1.0000   1.0000   1.0000   1.0000   1.0000   1.0000   1.0000
     1.0000   1.0000   1.0000   1.0000   1.0000   1.0000   1.0000   1.0000
     1.0000   1.0000   1.0000   1.0000   1.0000   1.0000   1.0000   1.0000
     1.0000   1.0000   1.0000   1.0000   1.0000   1.0000   1.0000   1.0000
     1.0000   1.0000   1.0000   1.0000   1.0000   1.0000   1.0000   1.0000
     1.0000   1.0000   1.0000   1.0000   1.0000   1.0000   1.0000   1.0000
     1.0000   1.0000   1.0000   1.0000   1.0000   1.0000   1.0000   1.0000
     0.0000   0.0000   0.0000   0.0000   0.0000   0.0000   0.0000   0.0000

          k = 0.3333-0.6335-0.9862 (  5122 PWs)   bands (ev):

   -25.1186 -25.1077 -24.9162 -24.8895 -17.3317 -17.3173 -17.2467  -8.1801
    -8.1180  -8.0492  -7.8797  -7.8261  -7.5740  -7.5106  -7.2512  -7.2444
    -7.2279  -7.1294  -7.0830  -7.0202  -6.9602  -6.6962  -6.5036  -6.3518
    -6.1882  -6.1433  -2.9792  -2.9433  -2.7990  -2.7757  -2.7169  -2.6961
    -2.6447  -2.3527  -2.2870   6.4769   6.6051   6.6315   6.7071   6.8414
     6.9711   7.0195   7.1565   7.1696   7.2390   7.2541   7.2768   7.2921
     7.4261   7.4935   7.5451   7.7741   7.8536   7.9390   7.9864   8.0248
    11.0670  11.0956  11.4861  11.6333  12.6763  12.9890  13.0624  13.3255

     occupation numbers 
     1.0000   1.0000   1.0000   1.0000   1.0000   1.0000   1.0000   1.0000
     1.0000   1.0000   1.0000   1.0000   1.0000   1.0000   1.0000   1.0000
     1.0000   1.0000   1.0000   1.0000   1.0000   1.0000   1.0000   1.0000
     1.0000   1.0000   1.0000   1.0000   1.0000   1.0000   1.0000   1.0000
     1.0000   1.0000   1.0000   1.0000   1.0000   1.0000   1.0000   1.0000
     1.0000   1.0000   1.0000   1.0000   1.0000   1.0000   1.0000   1.0000
     1.0000   1.0000   1.0000   1.0000   1.0000   1.0000   1.0000   1.0000
     0.0000   0.0000   0.0000   0.0000   0.0000   0.0000   0.0000   0.0000

          k = 0.3333 0.0823 1.4760 (  5133 PWs)   bands (ev):

   -25.1180 -25.1072 -24.9090 -24.8956 -17.3260 -17.3111 -17.2404  -8.3407
    -8.3106  -8.2040  -8.0849  -8.0595  -8.0370  -7.9467  -7.2280  -7.1245
    -7.0243  -6.9398  -6.9247  -6.7137  -6.6221  -6.5910  -6.4631  -6.3340
    -6.0394  -6.0245  -3.0033  -2.9633  -2.6978  -2.6475  -2.3546  -2.3230
    -2.3079  -2.2883  -2.2409   6.0986   6.2196   6.3482   6.4719   6.5577
     6.8169   6.8525   6.8764   6.9229   6.9385   6.9783   6.9869   7.0052
     7.0502   7.1078   7.1164   7.1747   7.3699   7.4338   7.7458   7.7837
    12.1342  12.1482  12.6923  12.8274  13.0766  13.1169  13.3959  13.8594

     occupation numbers 
     1.0000   1.0000   1.0000   1.0000   1.0000   1.0000   1.0000   1.0000
     1.0000   1.0000   1.0000   1.0000   1.0000   1.0000   1.0000   1.0000
     1.0000   1.0000   1.0000   1.0000   1.0000   1.0000   1.0000   1.0000
     1.0000   1.0000   1.0000   1.0000   1.0000   1.0000   1.0000   1.0000
     1.0000   1.0000   1.0000   1.0000   1.0000   1.0000   1.0000   1.0000
     1.0000   1.0000   1.0000   1.0000   1.0000   1.0000   1.0000   1.0000
     1.0000   1.0000   1.0000   1.0000   1.0000   1.0000   1.0000   1.0000
     0.0000   0.0000   0.0000   0.0000   0.0000   0.0000   0.0000   0.0000

          k = 0.3333 0.0823 2.9520 (  5133 PWs)   bands (ev):

   -25.1180 -25.1072 -24.9090 -24.8956 -17.3260 -17.3111 -17.2404  -8.3407
    -8.3106  -8.2040  -8.0849  -8.0595  -8.0370  -7.9467  -7.2280  -7.1245
    -7.0243  -6.9398  -6.9247  -6.7137  -6.6221  -6.5910  -6.4631  -6.3340
    -6.0394  -6.0245  -3.0033  -2.9633  -2.6978  -2.6475  -2.3546  -2.3230
    -2.3079  -2.2883  -2.2409   6.0986   6.2196   6.3482   6.4719   6.5577
     6.8169   6.8525   6.8764   6.9229   6.9385   6.9783   6.9869   7.0052
     7.0502   7.1078   7.1164   7.1747   7.3699   7.4338   7.7458   7.7837
    12.1342  12.1482  12.6923  12.8274  13.0766  13.1169  13.3959  13.8594

     occupation numbers 
     1.0000   1.0000   1.0000   1.0000   1.0000   1.0000   1.0000   1.0000
     1.0000   1.0000   1.0000   1.0000   1.0000   1.0000   1.0000   1.0000
     1.0000   1.0000   1.0000   1.0000   1.0000   1.0000   1.0000   1.0000
     1.0000   1.0000   1.0000   1.0000   1.0000   1.0000   1.0000   1.0000
     1.0000   1.0000   1.0000   1.0000   1.0000   1.0000   1.0000   1.0000
     1.0000   1.0000   1.0000   1.0000   1.0000   1.0000   1.0000   1.0000
     1.0000   1.0000   1.0000   1.0000   1.0000   1.0000   1.0000   1.0000
     0.0000   0.0000   0.0000   0.0000   0.0000   0.0000   0.0000   0.0000

          k = 0.3333 0.0823-0.0000 (  5138 PWs)   bands (ev):

   -25.1379 -25.1259 -24.9490 -24.8959 -17.4205 -17.4005 -17.3262  -8.3201
    -8.2005  -7.9419  -7.7124  -7.6009  -7.3554  -7.3214  -7.3068  -7.2690
    -7.2428  -7.0427  -7.0129  -6.9146  -6.8778  -6.7460  -6.6758  -6.3583
    -6.1148  -6.0230  -2.8515  -2.8460  -2.8067  -2.3897  -2.3533  -2.3114
    -2.2696  -2.2491  -2.1672   6.2617   6.4155   6.6540   6.7814   6.8812
     6.9894   7.0318   7.0426   7.1071   7.1902   7.2989   7.3664   7.3724
     7.5015   7.5960   7.6356   7.7060   7.7189   7.9292   7.9708   7.9916
    10.6121  11.5592  11.7913  12.2219  12.7187  12.7309  12.9301  13.1415

     occupation numbers 
     1.0000   1.0000   1.0000   1.0000   1.0000   1.0000   1.0000   1.0000
     1.0000   1.0000   1.0000   1.0000   1.0000   1.0000   1.0000   1.0000
     1.0000   1.0000   1.0000   1.0000   1.0000   1.0000   1.0000   1.0000
     1.0000   1.0000   1.0000   1.0000   1.0000   1.0000   1.0000   1.0000
     1.0000   1.0000   1.0000   1.0000   1.0000   1.0000   1.0000   1.0000
     1.0000   1.0000   1.0000   1.0000   1.0000   1.0000   1.0000   1.0000
     1.0000   1.0000   1.0000   1.0000   1.0000   1.0000   1.0000   1.0000
     0.0000   0.0000   0.0000   0.0000   0.0000   0.0000   0.0000   0.0000

          k = 0.3333-1.3494-0.4965 (  5157 PWs)   bands (ev):

   -25.1180 -25.1072 -24.9090 -24.8956 -17.3258 -17.3114 -17.2404  -8.3289
    -8.3149  -8.2240  -8.0833  -8.0498  -8.0307  -7.9503  -7.2367  -7.0882
    -7.0617  -6.9492  -6.9189  -6.6863  -6.6207  -6.5906  -6.4921  -6.3220
    -6.0407  -6.0240  -2.9973  -2.9623  -2.7043  -2.6551  -2.3528  -2.3229
    -2.3065  -2.2841  -2.2412   6.0788   6.2338   6.3779   6.4487   6.5851
     6.7566   6.8682   6.8795   6.9100   6.9250   6.9572   6.9620   7.0238
     7.0788   7.0848   7.1120   7.1476   7.4212   7.4215   7.7444   7.7679
    12.2692  12.2971  12.3927  12.5308  13.1867  13.3090  13.3859  14.0166

     occupation numbers 
     1.0000   1.0000   1.0000   1.0000   1.0000   1.0000   1.0000   1.0000
     1.0000   1.0000   1.0000   1.0000   1.0000   1.0000   1.0000   1.0000
     1.0000   1.0000   1.0000   1.0000   1.0000   1.0000   1.0000   1.0000
     1.0000   1.0000   1.0000   1.0000   1.0000   1.0000   1.0000   1.0000
     1.0000   1.0000   1.0000   1.0000   1.0000   1.0000   1.0000   1.0000
     1.0000   1.0000   1.0000   1.0000   1.0000   1.0000   1.0000   1.0000
     1.0000   1.0000   1.0000   1.0000   1.0000   1.0000   1.0000   1.0000
     0.0000   0.0000   0.0000   0.0000   0.0000   0.0000   0.0000   0.0000

          k = 0.3333-1.3494 0.9795 (  5141 PWs)   bands (ev):

   -25.1371 -25.1253 -24.9352 -24.9086 -17.4173 -17.3960 -17.3201  -8.4309
    -8.3839  -8.2087  -8.1260  -7.9424  -7.8859  -7.6103  -7.0392  -7.0108
    -6.9248  -6.8518  -6.8436  -6.7775  -6.6394  -6.5749  -6.5611  -6.2992
    -5.9979  -5.9870  -2.4184  -2.4058  -2.3853  -2.3541  -2.3268  -2.3164
    -2.2703  -2.2431  -2.1625   5.8758   6.0577   6.5317   6.5431   6.6587
     6.7430   6.7516   6.7835   6.8383   6.8813   6.9334   6.9916   7.0098
     7.0521   7.0863   7.3411   7.3712   7.4281   7.4481   7.6861   7.7022
    10.9753  12.2399  12.6534  12.7050  12.8997  12.9057  13.0005  13.2789

     occupation numbers 
     1.0000   1.0000   1.0000   1.0000   1.0000   1.0000   1.0000   1.0000
     1.0000   1.0000   1.0000   1.0000   1.0000   1.0000   1.0000   1.0000
     1.0000   1.0000   1.0000   1.0000   1.0000   1.0000   1.0000   1.0000
     1.0000   1.0000   1.0000   1.0000   1.0000   1.0000   1.0000   1.0000
     1.0000   1.0000   1.0000   1.0000   1.0000   1.0000   1.0000   1.0000
     1.0000   1.0000   1.0000   1.0000   1.0000   1.0000   1.0000   1.0000
     1.0000   1.0000   1.0000   1.0000   1.0000   1.0000   1.0000   1.0000
     0.0000   0.0000   0.0000   0.0000   0.0000   0.0000   0.0000   0.0000

          k = 0.3333-1.3494-1.9725 (  5134 PWs)   bands (ev):

   -25.1186 -25.1077 -24.9162 -24.8895 -17.3321 -17.3169 -17.2468  -8.1926
    -8.1189  -7.9912  -7.9427  -7.8114  -7.5706  -7.5149  -7.2518  -7.2272
    -7.2243  -7.1297  -7.1243  -6.9880  -6.9602  -6.6966  -6.5212  -6.3418
    -6.1670  -6.1633  -2.9898  -2.9464  -2.7965  -2.7795  -2.7162  -2.6815
    -2.6320  -2.3579  -2.2959   6.4878   6.5256   6.6017   6.7883   6.8293
     7.0479   7.0844   7.1523   7.1584   7.2054   7.2396   7.2800   7.2956
     7.4340   7.4373   7.4878   7.8117   7.8439   7.9328   7.9819   8.0161
    10.9420  10.9707  12.0113  12.0334  12.2862  12.3277  12.8296  13.3458

     occupation numbers 
     1.0000   1.0000   1.0000   1.0000   1.0000   1.0000   1.0000   1.0000
     1.0000   1.0000   1.0000   1.0000   1.0000   1.0000   1.0000   1.0000
     1.0000   1.0000   1.0000   1.0000   1.0000   1.0000   1.0000   1.0000
     1.0000   1.0000   1.0000   1.0000   1.0000   1.0000   1.0000   1.0000
     1.0000   1.0000   1.0000   1.0000   1.0000   1.0000   1.0000   1.0000
     1.0000   1.0000   1.0000   1.0000   1.0000   1.0000   1.0000   1.0000
     1.0000   1.0000   1.0000   1.0000   1.0000   1.0000   1.0000   1.0000
     0.0000   0.0000   0.0000   0.0000   0.0000   0.0000   0.0000   0.0000

     highest occupied, lowest unoccupied level (ev):     8.0248   10.6121

!    total energy              =   -1882.00983392 Ry
     estimated scf accuracy    <       0.00000075 Ry

     The total energy is the sum of the following terms:
     one-electron contribution =    -101.52814335 Ry
     hartree contribution      =     115.16712888 Ry
     xc contribution           =    -186.72499031 Ry
     ewald contribution        =    -517.35807707 Ry
     one-center paw contrib.   =   -1191.56575206 Ry
      -> PAW hartree energy AE =      58.15079615 Ry
      -> PAW hartree energy PS =     -57.92902694 Ry
      -> PAW xc energy AE      =    -788.57916892 Ry
      -> PAW xc energy PS      =      38.43279591 Ry
      -> total E_H with PAW    =     115.38889808 Ry
      -> total E_XC with PAW   =    -936.87136333 Ry

     convergence has been achieved in  13 iterations

     Writing all to output data dir calculations_bands/myprefix.save/
 
     init_run     :     46.30s CPU     16.33s WALL (       1 calls)
     electrons    :    765.79s CPU    281.12s WALL (       1 calls)

     Called by init_run:
     wfcinit      :     31.45s CPU      9.46s WALL (       1 calls)
     wfcinit:atom :      0.02s CPU      0.01s WALL (       7 calls)
     wfcinit:wfcr :     31.22s CPU      9.39s WALL (       7 calls)
     potinit      :      6.63s CPU      2.58s WALL (       1 calls)
     hinit0       :      4.71s CPU      2.15s WALL (       1 calls)

     Called by electrons:
     c_bands      :    621.07s CPU    230.68s WALL (      13 calls)
     sum_band     :     96.95s CPU     34.50s WALL (      13 calls)
     v_of_rho     :     16.73s CPU      5.43s WALL (      14 calls)
     v_h          :      0.71s CPU      0.24s WALL (      14 calls)
     v_xc         :     16.01s CPU      5.19s WALL (      14 calls)
     newd         :     13.63s CPU      4.50s WALL (      14 calls)
     PAW_pot      :     15.84s CPU      5.10s WALL (      14 calls)
     mix_rho      :      1.78s CPU      0.62s WALL (      13 calls)

     Called by c_bands:
     init_us_2    :      0.55s CPU      0.19s WALL (     189 calls)
     init_us_2:cp :      0.55s CPU      0.19s WALL (     189 calls)
     cegterg      :    510.69s CPU    152.95s WALL (      91 calls)

     Called by sum_band:
     sum_band:wei :      0.09s CPU      0.08s WALL (      13 calls)
     sum_band:loo :     71.55s CPU     22.37s WALL (      13 calls)
     sum_band:buf :      0.14s CPU      0.06s WALL (      91 calls)
     sum_band:ini :      0.18s CPU      0.05s WALL (      91 calls)
     sum_band:cal :      1.89s CPU      0.61s WALL (      91 calls)
     sum_band:bec :      0.14s CPU      0.05s WALL (      91 calls)
     addusdens    :      5.55s CPU      1.95s WALL (      13 calls)
     addusd:skk   :      0.30s CPU      0.11s WALL (      39 calls)
     addusd:dgemm :      0.70s CPU      0.42s WALL (      39 calls)
     addusd:qvan2 :      2.46s CPU      0.75s WALL (      39 calls)

     Called by *egterg:
     cdiaghg      :     35.44s CPU     10.86s WALL (     520 calls)
     cegterg:over :     24.32s CPU      7.27s WALL (     429 calls)
     cegterg:upda :      6.58s CPU      2.00s WALL (     429 calls)
     cegterg:last :      6.76s CPU      2.00s WALL (     194 calls)
     cdiaghg:chol :      3.35s CPU      1.02s WALL (     520 calls)
     cdiaghg:inve :      0.42s CPU      0.14s WALL (     520 calls)
     cdiaghg:para :     11.41s CPU      3.53s WALL (    1040 calls)
     h_psi        :    454.54s CPU    135.71s WALL (     527 calls)
     s_psi        :      1.65s CPU      0.52s WALL (     527 calls)
     g_psi        :      0.07s CPU      0.02s WALL (     429 calls)

     Called by h_psi:
     h_psi:calbec :      8.24s CPU      2.46s WALL (     527 calls)
     vloc_psi     :    444.29s CPU    132.63s WALL (     527 calls)
     add_vuspsi   :      1.84s CPU      0.57s WALL (     527 calls)

     General routines
     calbec       :     10.11s CPU      3.06s WALL (     618 calls)
     fft          :     12.14s CPU      3.87s WALL (     180 calls)
     ffts         :      3.17s CPU      1.18s WALL (      27 calls)
     fftw         :    489.41s CPU    146.75s WALL (   36940 calls)
     interpolate  :      3.08s CPU      1.17s WALL (      14 calls)
 
     Parallel routines

     PAW routines
     PAW_pot      :     15.84s CPU      5.10s WALL (      14 calls)
     PAW_symme    :      0.97s CPU      0.29s WALL (      27 calls)
 
     PWSCF        :  13m34.43s CPU   5m 0.33s WALL

 
   This run was terminated on:  19:22:51   4Jun2023            

=------------------------------------------------------------------------------=
   JOB DONE.
=------------------------------------------------------------------------------=
