
     Program PWSCF v.7.0 starts on  4Jun2023 at 18:13: 5 

     This program is part of the open-source Quantum ESPRESSO suite
     for quantum simulation of materials; please cite
         "P. Giannozzi et al., J. Phys.:Condens. Matter 21 395502 (2009);
         "P. Giannozzi et al., J. Phys.:Condens. Matter 29 465901 (2017);
         "P. Giannozzi et al., J. Chem. Phys. 152 154105 (2020);
          URL http://www.quantum-espresso.org", 
     in publications or presentations arising from this work. More details at
     http://www.quantum-espresso.org/quote

     Parallel version (MPI & OpenMP), running on      32 processor cores
     Number of MPI processes:                 8
     Threads/MPI process:                     4

     MPI processes distributed on     1 nodes
     K-points division:     npool     =       2
     R & G space division:  proc/nbgrp/npool/nimage =       4
     125986 MiB available memory on the printing compute node when the environment starts
 
     Reading input from espresso_10031.pwi
Warning: card &CELL ignored
Warning: card / ignored

     Current dimensions of program PWSCF are:
     Max number of different atomic species (ntypx) = 10
     Max number of k-points (npk) =  40000
     Max angular momentum in pseudopotentials (lmaxx) =  4
     Message from routine setup:
     using ibrav=0 with symmetry is DISCOURAGED, use correct ibrav instead

     Subspace diagonalization in iterative solution of the eigenvalue problem:
     one sub-group per band group will be used
     scalapack distributed-memory algorithm (size of sub-group:  2*  2 procs)

 
     Parallelization info
     --------------------
     sticks:   dense  smooth     PW     G-vecs:    dense   smooth      PW
     Min        1056     526    158                21959     7751    1284
     Max        1057     527    159                21960     7752    1285
     Sum        4225    2107    633                87839    31005    5137
 
     Using Slab Decomposition
 


     bravais-lattice index     =            0
     lattice parameter (alat)  =      18.6083  a.u.
     unit-cell volume          =    1399.6208 (a.u.)^3
     number of atoms/cell      =            6
     number of atomic types    =            2
     number of electrons       =        74.00
     number of Kohn-Sham states=           64
     kinetic-energy cutoff     =      30.0000  Ry
     charge density cutoff     =     240.0000  Ry
     scf convergence threshold =      1.0E-06
     mixing beta               =       0.7000
     number of iterations used =            8  plain     mixing
     Exchange-correlation= SLA  PW   PBE  PBE
                           (   1   4   3   4   0   0   0)

     celldm(1)=  18.608346  celldm(2)=   0.000000  celldm(3)=   0.000000
     celldm(4)=   0.000000  celldm(5)=   0.000000  celldm(6)=   0.000000

     crystal axes: (cart. coord. in units of alat)
               a(1) = (   1.000000   0.000000   0.000000 )  
               a(2) = (   0.769042   0.639198   0.000000 )  
               a(3) = (  -0.884521  -0.319599   0.339822 )  

     reciprocal axes: (cart. coord. in units 2 pi/alat)
               b(1) = (  1.000000 -1.203135  1.471359 )  
               b(2) = (  0.000000  1.564460  1.471359 )  
               b(3) = (  0.000000  0.000000  2.942717 )  


     PseudoPot. # 1 for La read from file:
     /home/pragov/projects/rrg-bengioy-ad/pragov/crystal_structure_design/SSSP/La.GGA-PBE-paw-v1.0.UPF
     MD5 check sum: 436541e95c1ad8901025bd0b0ed42ae2
     Pseudo is Projector augmented-wave + core cor, Zval = 11.0
     Generated using ATOMPAW code
     Shape of augmentation charge: BESSEL
     Using radial grid of 1101 points,  8 beta functions with: 
                l(1) =   0
                l(2) =   0
                l(3) =   1
                l(4) =   1
                l(5) =   2
                l(6) =   2
                l(7) =   3
                l(8) =   3
     Q(r) pseudized with 0 coefficients 


     PseudoPot. # 2 for Bi read from file:
     /home/pragov/projects/rrg-bengioy-ad/pragov/crystal_structure_design/SSSP/Bi_pbe_v1.uspp.F.UPF
     MD5 check sum: cceb9f28ec65b6d7ff33140f5b0b1758
     Pseudo is Ultrasoft + core correction, Zval = 15.0
     Generated by new atomic code, or converted to UPF format
     Using radial grid of  899 points,  6 beta functions with: 
                l(1) =   0
                l(2) =   0
                l(3) =   1
                l(4) =   1
                l(5) =   2
                l(6) =   2
     Q(r) pseudized with  6 coefficients,  rinner =    1.000   1.000   1.000
                                                       1.000   1.000

     atomic species   valence    mass     pseudopotential
        La            11.00   138.90547     La( 1.00)
        Bi            15.00   208.98040     Bi( 1.00)

      4 Sym. Ops., with inversion, found


                                    s                        frac. trans.

      isym =  1     identity                                     

 cryst.   s( 1) = (     1          0          0      )
                  (     0          1          0      )
                  (     0          0          1      )

 cart.    s( 1) = (  1.0000000 -0.0000000  0.0000000 )
                  (  0.0000000  1.0000000 -0.0000000 )
                  (  0.0000000  0.0000000  1.0000000 )


      isym =  2     180 deg rotation - cart. axis [0,0,1]        

 cryst.   s( 2) = (    -1          0          0      )
                  (     0         -1          0      )
                  (     1          1          1      )

 cart.    s( 2) = ( -1.0000000  0.0000000 -0.0000000 )
                  (  0.0000000 -1.0000000 -0.0000000 )
                  (  0.0000000  0.0000000  1.0000000 )


      isym =  3     inversion                                    

 cryst.   s( 3) = (    -1          0          0      )
                  (     0         -1          0      )
                  (     0          0         -1      )

 cart.    s( 3) = ( -1.0000000  0.0000000 -0.0000000 )
                  (  0.0000000 -1.0000000  0.0000000 )
                  (  0.0000000  0.0000000 -1.0000000 )


      isym =  4     inv. 180 deg rotation - cart. axis [0,0,1]   

 cryst.   s( 4) = (     1          0          0      )
                  (     0          1          0      )
                  (    -1         -1         -1      )

 cart.    s( 4) = (  1.0000000 -0.0000000  0.0000000 )
                  (  0.0000000  1.0000000  0.0000000 )
                  (  0.0000000  0.0000000 -1.0000000 )


   Cartesian axes

     site n.     atom                  positions (alat units)
         1           La  tau(   1) = (  -0.0577395   0.1597996   0.1699110  )
         2           La  tau(   2) = (   0.0577395  -0.1597996   0.1699110  )
         3           La  tau(   3) = (   1.1995237   0.4334173   0.0000000  )
         4           La  tau(   4) = (   0.5695183   0.2057809   0.0000000  )
         5           Bi  tau(   5) = (   1.5241359   0.5507076   0.0000000  )
         6           Bi  tau(   6) = (   0.2449062   0.0884906   0.0000000  )

   Crystallographic axes

     site n.     atom                  positions (cryst. coord.)
         1           La  tau(   1) = ( -0.0000000  0.5000000  0.5000000  )
         2           La  tau(   2) = (  0.5000000 -0.0000000  0.5000000  )
         3           La  tau(   3) = (  0.6780640  0.6780640  0.0000000  )
         4           La  tau(   4) = (  0.3219360  0.3219360  0.0000000  )
         5           Bi  tau(   5) = (  0.8615600  0.8615600  0.0000000  )
         6           Bi  tau(   6) = (  0.1384400  0.1384400  0.0000000  )

     number of k points=    10
                       cart. coord. in units 2pi/alat
        k(    1) = (   0.0000000   0.0000000   0.0000000), wk =   0.0740741
        k(    2) = (   0.0000000   0.0000000   0.9809057), wk =   0.1481481
        k(    3) = (   0.0000000   0.5214867   0.4904529), wk =   0.2962963
        k(    4) = (   0.0000000   0.5214867   1.4713586), wk =   0.1481481
        k(    5) = (   0.3333333  -0.4010452   0.4904529), wk =   0.2962963
        k(    6) = (   0.3333333  -0.4010452   1.4713586), wk =   0.1481481
        k(    7) = (   0.3333333   0.1204415   0.9809057), wk =   0.2962963
        k(    8) = (   0.3333333   0.1204415   0.0000000), wk =   0.1481481
        k(    9) = (   0.3333333  -0.9225318  -0.0000000), wk =   0.1481481
        k(   10) = (   0.3333333  -0.9225318   0.9809057), wk =   0.2962963

                       cryst. coord.
        k(    1) = (   0.0000000   0.0000000   0.0000000), wk =   0.0740741
        k(    2) = (   0.0000000   0.0000000   0.3333333), wk =   0.1481481
        k(    3) = (   0.0000000   0.3333333   0.0000000), wk =   0.2962963
        k(    4) = (   0.0000000   0.3333333   0.3333333), wk =   0.1481481
        k(    5) = (   0.3333333   0.0000000   0.0000000), wk =   0.2962963
        k(    6) = (   0.3333333   0.0000000   0.3333333), wk =   0.1481481
        k(    7) = (   0.3333333   0.3333333   0.0000000), wk =   0.2962963
        k(    8) = (   0.3333333   0.3333333  -0.3333333), wk =   0.1481481
        k(    9) = (   0.3333333  -0.3333333  -0.0000000), wk =   0.1481481
        k(   10) = (   0.3333333  -0.3333333   0.3333333), wk =   0.2962963

     Dense  grid:    87839 G-vectors     FFT dimensions: (  96,  96,  96)

     Smooth grid:    31005 G-vectors     FFT dimensions: (  72,  72,  72)

     Dynamical RAM for                 wfc:       0.95 MB

     Dynamical RAM for     wfc (w. buffer):       5.69 MB

     Dynamical RAM for           str. fact:       0.67 MB

     Dynamical RAM for           local pot:       0.00 MB

     Dynamical RAM for          nlocal pot:       2.43 MB

     Dynamical RAM for                qrad:       5.97 MB

     Dynamical RAM for          rho,v,vnew:       6.07 MB

     Dynamical RAM for               rhoin:       2.02 MB

     Dynamical RAM for            rho*nmix:       5.36 MB

     Dynamical RAM for           G-vectors:       1.32 MB

     Dynamical RAM for          h,s,v(r/c):       0.19 MB

     Dynamical RAM for          <psi|beta>:       0.16 MB

     Dynamical RAM for                 psi:       1.90 MB

     Dynamical RAM for                hpsi:       1.90 MB

     Dynamical RAM for                spsi:       1.90 MB

     Dynamical RAM for      wfcinit/wfcrot:       4.82 MB

     Dynamical RAM for           addusdens:      93.82 MB

     Estimated static dynamical RAM per process >      33.61 MB

     Estimated max dynamical RAM per process >     132.79 MB

     Estimated total dynamical RAM >       1.02 GB

     Check: negative core charge=   -0.000003

     Initial potential from superposition of free atoms

     starting charge      71.9658, renormalised to      74.0000

     negative rho (up, down):  8.329E-02 0.000E+00
     Starting wfcs are  146 randomized atomic wfcs
     Checking if some PAW data can be deallocated... 
       PAW data deallocated on    2 nodes for type:  1

     total cpu time spent up to now is        8.9 secs

     Self-consistent Calculation

     iteration #  1     ecut=    30.00 Ry     beta= 0.70
     Davidson diagonalization with overlap

---- Real-time Memory Report at c_bands before calling an iterative solver
           259 MiB given to the printing process from OS
             0 MiB allocation reported by mallinfo(arena+hblkhd)
        125309 MiB available memory on the node where the printing process lives
------------------
     ethr =  1.00E-02,  avg # of iterations =  2.0

     Threshold (ethr) on eigenvalues was too large:
     Diagonalizing with lowered threshold

     Davidson diagonalization with overlap

---- Real-time Memory Report at c_bands before calling an iterative solver
           286 MiB given to the printing process from OS
             0 MiB allocation reported by mallinfo(arena+hblkhd)
        125246 MiB available memory on the node where the printing process lives
------------------
     ethr =  6.93E-04,  avg # of iterations =  4.0

     negative rho (up, down):  8.419E-02 0.000E+00

     total cpu time spent up to now is       27.8 secs

     total energy              =   -2203.50510154 Ry
     estimated scf accuracy    <       0.57857220 Ry

     iteration #  2     ecut=    30.00 Ry     beta= 0.70
     Davidson diagonalization with overlap

---- Real-time Memory Report at c_bands before calling an iterative solver
           318 MiB given to the printing process from OS
             0 MiB allocation reported by mallinfo(arena+hblkhd)
        125030 MiB available memory on the node where the printing process lives
------------------
     ethr =  7.82E-04,  avg # of iterations = 13.4

     negative rho (up, down):  8.412E-02 0.000E+00

     total cpu time spent up to now is       41.0 secs

     total energy              =   -2202.25309390 Ry
     estimated scf accuracy    <      15.30899900 Ry

     iteration #  3     ecut=    30.00 Ry     beta= 0.70
     Davidson diagonalization with overlap

---- Real-time Memory Report at c_bands before calling an iterative solver
           332 MiB given to the printing process from OS
             0 MiB allocation reported by mallinfo(arena+hblkhd)
        124946 MiB available memory on the node where the printing process lives
------------------
     ethr =  7.82E-04,  avg # of iterations = 16.0

     negative rho (up, down):  8.732E-02 0.000E+00

     total cpu time spent up to now is       52.9 secs

     total energy              =   -2203.75074799 Ry
     estimated scf accuracy    <       0.57392254 Ry

     iteration #  4     ecut=    30.00 Ry     beta= 0.70
     Davidson diagonalization with overlap

---- Real-time Memory Report at c_bands before calling an iterative solver
           337 MiB given to the printing process from OS
             0 MiB allocation reported by mallinfo(arena+hblkhd)
        124939 MiB available memory on the node where the printing process lives
------------------
     ethr =  7.76E-04,  avg # of iterations =  1.3

     negative rho (up, down):  8.764E-02 0.000E+00

     total cpu time spent up to now is       59.6 secs

     total energy              =   -2203.77556282 Ry
     estimated scf accuracy    <       0.06449116 Ry

     iteration #  5     ecut=    30.00 Ry     beta= 0.70
     Davidson diagonalization with overlap

---- Real-time Memory Report at c_bands before calling an iterative solver
           337 MiB given to the printing process from OS
             0 MiB allocation reported by mallinfo(arena+hblkhd)
        124893 MiB available memory on the node where the printing process lives
------------------
     c_bands:  2 eigenvalues not converged
     ethr =  8.72E-05,  avg # of iterations =  9.1

     negative rho (up, down):  8.804E-02 0.000E+00

     total cpu time spent up to now is       68.4 secs

     total energy              =   -2203.77299949 Ry
     estimated scf accuracy    <       0.04733558 Ry

     iteration #  6     ecut=    30.00 Ry     beta= 0.70
     Davidson diagonalization with overlap

---- Real-time Memory Report at c_bands before calling an iterative solver
           337 MiB given to the printing process from OS
             0 MiB allocation reported by mallinfo(arena+hblkhd)
        124874 MiB available memory on the node where the printing process lives
------------------
     ethr =  6.40E-05,  avg # of iterations =  7.6

     negative rho (up, down):  8.837E-02 0.000E+00

     total cpu time spent up to now is       74.2 secs

     total energy              =   -2203.77240834 Ry
     estimated scf accuracy    <       0.01025801 Ry

     iteration #  7     ecut=    30.00 Ry     beta= 0.70
     Davidson diagonalization with overlap

---- Real-time Memory Report at c_bands before calling an iterative solver
           339 MiB given to the printing process from OS
             0 MiB allocation reported by mallinfo(arena+hblkhd)
        124754 MiB available memory on the node where the printing process lives
------------------
     c_bands:  1 eigenvalues not converged
     c_bands:  1 eigenvalues not converged
     ethr =  1.39E-05,  avg # of iterations = 17.7

     negative rho (up, down):  8.848E-02 0.000E+00

     total cpu time spent up to now is       89.2 secs

     total energy              =   -2203.77369374 Ry
     estimated scf accuracy    <       0.00112464 Ry

     iteration #  8     ecut=    30.00 Ry     beta= 0.70
     Davidson diagonalization with overlap

---- Real-time Memory Report at c_bands before calling an iterative solver
           340 MiB given to the printing process from OS
             0 MiB allocation reported by mallinfo(arena+hblkhd)
        124755 MiB available memory on the node where the printing process lives
------------------
     c_bands:  1 eigenvalues not converged
     c_bands:  1 eigenvalues not converged
     c_bands:  2 eigenvalues not converged
     c_bands:  2 eigenvalues not converged
     ethr =  1.52E-06,  avg # of iterations = 18.2

     negative rho (up, down):  8.845E-02 0.000E+00

     total cpu time spent up to now is       99.6 secs

     total energy              =   -2203.77395938 Ry
     estimated scf accuracy    <       0.00002461 Ry

     iteration #  9     ecut=    30.00 Ry     beta= 0.70
     Davidson diagonalization with overlap

---- Real-time Memory Report at c_bands before calling an iterative solver
           343 MiB given to the printing process from OS
             0 MiB allocation reported by mallinfo(arena+hblkhd)
        124757 MiB available memory on the node where the printing process lives
------------------
     c_bands:  1 eigenvalues not converged
     c_bands:  1 eigenvalues not converged
     ethr =  3.33E-08,  avg # of iterations = 12.9

     negative rho (up, down):  8.844E-02 0.000E+00

     total cpu time spent up to now is      109.7 secs

     total energy              =   -2203.77397991 Ry
     estimated scf accuracy    <       0.00000558 Ry

     iteration # 10     ecut=    30.00 Ry     beta= 0.70
     Davidson diagonalization with overlap

---- Real-time Memory Report at c_bands before calling an iterative solver
           344 MiB given to the printing process from OS
             0 MiB allocation reported by mallinfo(arena+hblkhd)
        124712 MiB available memory on the node where the printing process lives
------------------
     c_bands:  2 eigenvalues not converged
     ethr =  7.54E-09,  avg # of iterations =  6.6

     negative rho (up, down):  8.844E-02 0.000E+00

     total cpu time spent up to now is      116.8 secs

     total energy              =   -2203.77397985 Ry
     estimated scf accuracy    <       0.00000380 Ry

     iteration # 11     ecut=    30.00 Ry     beta= 0.70
     Davidson diagonalization with overlap

---- Real-time Memory Report at c_bands before calling an iterative solver
           344 MiB given to the printing process from OS
             0 MiB allocation reported by mallinfo(arena+hblkhd)
        124835 MiB available memory on the node where the printing process lives
------------------
     ethr =  5.14E-09,  avg # of iterations =  2.7

     negative rho (up, down):  8.843E-02 0.000E+00

     total cpu time spent up to now is      131.8 secs

     total energy              =   -2203.77397990 Ry
     estimated scf accuracy    <       0.00000131 Ry

     iteration # 12     ecut=    30.00 Ry     beta= 0.70
     Davidson diagonalization with overlap

---- Real-time Memory Report at c_bands before calling an iterative solver
           344 MiB given to the printing process from OS
             0 MiB allocation reported by mallinfo(arena+hblkhd)
        124749 MiB available memory on the node where the printing process lives
------------------
     ethr =  1.77E-09,  avg # of iterations =  4.8

     negative rho (up, down):  8.843E-02 0.000E+00

     total cpu time spent up to now is      162.8 secs

     End of self-consistent calculation

          k = 0.0000 0.0000 0.0000 (  3895 PWs)   bands (ev):

   -21.6424 -21.6139 -21.3951 -20.9576 -10.7457 -10.7366 -10.7364 -10.7361
   -10.7304 -10.7304 -10.7290 -10.7290 -10.7192 -10.7161  -5.7388  -5.7388
    -5.4908  -5.3497  -5.3464  -5.3464  -5.2303  -5.2303  -4.9551  -4.6306
    -4.2013  -4.2013   0.6874   1.1316   7.9756   9.5725   9.6758   9.7809
     9.7809  10.5073  10.5074  10.6738  10.9402  11.0792  11.5456  12.0720
    12.0720  12.5494  12.7534  12.9020  12.9307  12.9357  12.9872  12.9872
    12.9954  13.0827  13.0827  13.2636  13.2666  13.2682  13.2683  13.2694
    13.3256  13.4497  13.4497  13.5340  13.5341  13.5587  13.5658  13.5661

     occupation numbers 
     1.0000   1.0000   1.0000   1.0000   1.0000   1.0000   1.0000   1.0000
     1.0000   1.0000   1.0000   1.0000   1.0000   1.0000   1.0000   1.0000
     1.0000   1.0000   1.0000   1.0000   1.0000   1.0000   1.0000   1.0000
     1.0000   1.0000   1.0000   1.0000   1.0000   1.0000   1.0000   1.0000
     1.0000   1.0000   1.0000   1.0000   1.0000   0.0000   0.0000   0.0000
     0.0000   0.0000   0.0000   0.0000   0.0000   0.0000   0.0000   0.0000
     0.0000   0.0000   0.0000   0.0000   0.0000   0.0000   0.0000   0.0000
     0.0000   0.0000   0.0000   0.0000   0.0000   0.0000   0.0000   0.0000

          k = 0.0000 0.0000 0.9809 (  3873 PWs)   bands (ev):

   -21.6251 -21.6182 -21.2311 -21.1213 -10.7437 -10.7428 -10.7403 -10.7348
   -10.7331 -10.7302 -10.7282 -10.7275 -10.7098 -10.7093  -6.0105  -5.6452
    -5.4533  -5.4508  -5.4144  -5.2885  -5.2162  -5.2073  -4.8858  -4.7867
    -4.5117  -4.0519   1.1063   1.1647   8.7436   9.0168   9.0662   9.0775
     9.2748   9.7290  10.7445  11.0770  11.4075  11.4359  12.2806  12.4807
    12.8608  12.8699  12.8800  12.9058  13.0171  13.0340  13.0506  13.0681
    13.0880  13.1129  13.1429  13.1559  13.1605  13.1754  13.2122  13.3601
    13.3647  13.3892  13.4076  13.5099  13.5154  13.7336  13.7419  13.7482

     occupation numbers 
     1.0000   1.0000   1.0000   1.0000   1.0000   1.0000   1.0000   1.0000
     1.0000   1.0000   1.0000   1.0000   1.0000   1.0000   1.0000   1.0000
     1.0000   1.0000   1.0000   1.0000   1.0000   1.0000   1.0000   1.0000
     1.0000   1.0000   1.0000   1.0000   1.0000   1.0000   1.0000   1.0000
     1.0000   1.0000   1.0000   1.0000   1.0000   0.0000   0.0000   0.0000
     0.0000   0.0000   0.0000   0.0000   0.0000   0.0000   0.0000   0.0000
     0.0000   0.0000   0.0000   0.0000   0.0000   0.0000   0.0000   0.0000
     0.0000   0.0000   0.0000   0.0000   0.0000   0.0000   0.0000   0.0000

          k = 0.0000 0.5215 0.4905 (  3895 PWs)   bands (ev):

   -21.6312 -21.6176 -21.2884 -21.0693 -10.7455 -10.7434 -10.7432 -10.7399
   -10.7313 -10.7302 -10.7274 -10.7274 -10.7144 -10.7126  -5.5450  -5.5294
    -5.4206  -5.3803  -5.2914  -5.2877  -5.2324  -5.2278  -4.9308  -4.7377
    -4.6692  -4.6270   1.1110   1.2543   8.2471   8.6784   9.0151   9.4473
     9.5277   9.8355  10.6675  11.3907  11.5126  11.7726  11.8899  12.3612
    12.3746  12.6456  12.7835  12.8911  12.9192  13.0478  13.0566  13.0655
    13.1156  13.1366  13.1587  13.1703  13.2011  13.2402  13.2687  13.2967
    13.3192  13.3407  13.4528  13.4997  13.5416  13.5457  13.6918  13.8207

     occupation numbers 
     1.0000   1.0000   1.0000   1.0000   1.0000   1.0000   1.0000   1.0000
     1.0000   1.0000   1.0000   1.0000   1.0000   1.0000   1.0000   1.0000
     1.0000   1.0000   1.0000   1.0000   1.0000   1.0000   1.0000   1.0000
     1.0000   1.0000   1.0000   1.0000   1.0000   1.0000   1.0000   1.0000
     1.0000   1.0000   1.0000   1.0000   1.0000   0.0000   0.0000   0.0000
     0.0000   0.0000   0.0000   0.0000   0.0000   0.0000   0.0000   0.0000
     0.0000   0.0000   0.0000   0.0000   0.0000   0.0000   0.0000   0.0000
     0.0000   0.0000   0.0000   0.0000   0.0000   0.0000   0.0000   0.0000

          k = 0.0000 0.5215 1.4714 (  3890 PWs)   bands (ev):

   -21.6249 -21.6185 -21.2311 -21.1213 -10.7443 -10.7411 -10.7402 -10.7363
   -10.7318 -10.7309 -10.7290 -10.7273 -10.7097 -10.7094  -6.0081  -5.6453
    -5.4502  -5.4354  -5.3929  -5.3112  -5.2885  -5.1659  -4.8800  -4.7818
    -4.5118  -4.0520   1.0798   1.1988   8.4544   8.6786   9.1721   9.4151
     9.6399   9.6669  10.8153  11.2427  11.3248  11.5502  11.8106  12.5199
    12.7853  12.8504  12.9136  12.9672  12.9939  13.0072  13.0433  13.1017
    13.1067  13.1253  13.1355  13.1378  13.1694  13.1773  13.2209  13.3018
    13.3575  13.3908  13.3958  13.5139  13.6147  13.7129  13.7481  13.8569

     occupation numbers 
     1.0000   1.0000   1.0000   1.0000   1.0000   1.0000   1.0000   1.0000
     1.0000   1.0000   1.0000   1.0000   1.0000   1.0000   1.0000   1.0000
     1.0000   1.0000   1.0000   1.0000   1.0000   1.0000   1.0000   1.0000
     1.0000   1.0000   1.0000   1.0000   1.0000   1.0000   1.0000   1.0000
     1.0000   1.0000   1.0000   1.0000   1.0000   0.0000   0.0000   0.0000
     0.0000   0.0000   0.0000   0.0000   0.0000   0.0000   0.0000   0.0000
     0.0000   0.0000   0.0000   0.0000   0.0000   0.0000   0.0000   0.0000
     0.0000   0.0000   0.0000   0.0000   0.0000   0.0000   0.0000   0.0000

          k = 0.3333-0.4010 0.4905 (  3895 PWs)   bands (ev):

   -21.6312 -21.6176 -21.2884 -21.0693 -10.7455 -10.7434 -10.7432 -10.7399
   -10.7313 -10.7302 -10.7274 -10.7274 -10.7144 -10.7126  -5.5450  -5.5294
    -5.4206  -5.3803  -5.2914  -5.2877  -5.2324  -5.2278  -4.9308  -4.7377
    -4.6692  -4.6270   1.1110   1.2543   8.2471   8.6784   9.0151   9.4473
     9.5277   9.8355  10.6675  11.3907  11.5126  11.7725  11.8899  12.3612
    12.3746  12.6456  12.7834  12.8911  12.9192  13.0478  13.0567  13.0655
    13.1156  13.1365  13.1587  13.1703  13.2011  13.2401  13.2687  13.2967
    13.3191  13.3406  13.4527  13.4995  13.5412  13.5454  13.6788  13.6904

     occupation numbers 
     1.0000   1.0000   1.0000   1.0000   1.0000   1.0000   1.0000   1.0000
     1.0000   1.0000   1.0000   1.0000   1.0000   1.0000   1.0000   1.0000
     1.0000   1.0000   1.0000   1.0000   1.0000   1.0000   1.0000   1.0000
     1.0000   1.0000   1.0000   1.0000   1.0000   1.0000   1.0000   1.0000
     1.0000   1.0000   1.0000   1.0000   1.0000   0.0000   0.0000   0.0000
     0.0000   0.0000   0.0000   0.0000   0.0000   0.0000   0.0000   0.0000
     0.0000   0.0000   0.0000   0.0000   0.0000   0.0000   0.0000   0.0000
     0.0000   0.0000   0.0000   0.0000   0.0000   0.0000   0.0000   0.0000

          k = 0.3333-0.4010 1.4714 (  3890 PWs)   bands (ev):

   -21.6249 -21.6185 -21.2311 -21.1213 -10.7443 -10.7411 -10.7402 -10.7363
   -10.7318 -10.7309 -10.7290 -10.7273 -10.7097 -10.7094  -6.0081  -5.6453
    -5.4502  -5.4354  -5.3929  -5.3112  -5.2885  -5.1659  -4.8800  -4.7818
    -4.5118  -4.0520   1.0798   1.1988   8.4544   8.6786   9.1721   9.4151
     9.6399   9.6669  10.8153  11.2427  11.3248  11.5502  11.8106  12.5199
    12.7853  12.8504  12.9136  12.9672  12.9938  13.0072  13.0433  13.1017
    13.1067  13.1253  13.1355  13.1378  13.1694  13.1773  13.2209  13.3017
    13.3576  13.3907  13.3958  13.5139  13.6148  13.7113  13.7423  13.8005

     occupation numbers 
     1.0000   1.0000   1.0000   1.0000   1.0000   1.0000   1.0000   1.0000
     1.0000   1.0000   1.0000   1.0000   1.0000   1.0000   1.0000   1.0000
     1.0000   1.0000   1.0000   1.0000   1.0000   1.0000   1.0000   1.0000
     1.0000   1.0000   1.0000   1.0000   1.0000   1.0000   1.0000   1.0000
     1.0000   1.0000   1.0000   1.0000   1.0000   0.0000   0.0000   0.0000
     0.0000   0.0000   0.0000   0.0000   0.0000   0.0000   0.0000   0.0000
     0.0000   0.0000   0.0000   0.0000   0.0000   0.0000   0.0000   0.0000
     0.0000   0.0000   0.0000   0.0000   0.0000   0.0000   0.0000   0.0000

          k = 0.3333 0.1204 0.9809 (  3890 PWs)   bands (ev):

   -21.6249 -21.6185 -21.2311 -21.1213 -10.7443 -10.7411 -10.7402 -10.7362
   -10.7318 -10.7309 -10.7290 -10.7273 -10.7097 -10.7094  -6.0081  -5.6453
    -5.4502  -5.4354  -5.3929  -5.3112  -5.2885  -5.1659  -4.8800  -4.7818
    -4.5118  -4.0520   1.0798   1.1988   8.4544   8.6786   9.1721   9.4151
     9.6399   9.6669  10.8153  11.2427  11.3248  11.5502  11.8106  12.5199
    12.7853  12.8504  12.9136  12.9672  12.9939  13.0071  13.0433  13.1017
    13.1067  13.1253  13.1355  13.1378  13.1694  13.1773  13.2209  13.3017
    13.3575  13.3908  13.3958  13.5138  13.6149  13.7115  13.7423  13.7971

     occupation numbers 
     1.0000   1.0000   1.0000   1.0000   1.0000   1.0000   1.0000   1.0000
     1.0000   1.0000   1.0000   1.0000   1.0000   1.0000   1.0000   1.0000
     1.0000   1.0000   1.0000   1.0000   1.0000   1.0000   1.0000   1.0000
     1.0000   1.0000   1.0000   1.0000   1.0000   1.0000   1.0000   1.0000
     1.0000   1.0000   1.0000   1.0000   1.0000   0.0000   0.0000   0.0000
     0.0000   0.0000   0.0000   0.0000   0.0000   0.0000   0.0000   0.0000
     0.0000   0.0000   0.0000   0.0000   0.0000   0.0000   0.0000   0.0000
     0.0000   0.0000   0.0000   0.0000   0.0000   0.0000   0.0000   0.0000

          k = 0.3333 0.1204 0.0000 (  3854 PWs)   bands (ev):

   -21.6406 -21.6160 -21.3949 -20.9576 -10.7450 -10.7372 -10.7364 -10.7361
   -10.7320 -10.7320 -10.7273 -10.7273 -10.7190 -10.7163  -5.7415  -5.7415
    -5.5124  -5.3357  -5.3357  -5.2767  -5.2380  -5.2380  -5.0144  -4.6306
    -4.2015  -4.2014   0.7920   1.0417   8.0682   9.2385   9.6406   9.6406
     9.6799  10.6752  10.7261  10.7261  10.7650  11.0645  11.9141  12.2649
    12.2649  12.6238  12.7599  12.7599  12.8274  12.8746  12.9488  12.9503
    13.1192  13.1192  13.1689  13.1763  13.2483  13.2483  13.2695  13.4369
    13.4527  13.4588  13.4588  13.5340  13.5341  13.5376  13.5743  13.5743

     occupation numbers 
     1.0000   1.0000   1.0000   1.0000   1.0000   1.0000   1.0000   1.0000
     1.0000   1.0000   1.0000   1.0000   1.0000   1.0000   1.0000   1.0000
     1.0000   1.0000   1.0000   1.0000   1.0000   1.0000   1.0000   1.0000
     1.0000   1.0000   1.0000   1.0000   1.0000   1.0000   1.0000   1.0000
     1.0000   1.0000   1.0000   1.0000   1.0000   0.0000   0.0000   0.0000
     0.0000   0.0000   0.0000   0.0000   0.0000   0.0000   0.0000   0.0000
     0.0000   0.0000   0.0000   0.0000   0.0000   0.0000   0.0000   0.0000
     0.0000   0.0000   0.0000   0.0000   0.0000   0.0000   0.0000   0.0000

          k = 0.3333-0.9225-0.0000 (  3873 PWs)   bands (ev):

   -21.6251 -21.6182 -21.2311 -21.1213 -10.7437 -10.7428 -10.7403 -10.7348
   -10.7331 -10.7302 -10.7282 -10.7275 -10.7098 -10.7093  -6.0105  -5.6452
    -5.4533  -5.4508  -5.4144  -5.2885  -5.2162  -5.2073  -4.8858  -4.7867
    -4.5117  -4.0519   1.1063   1.1647   8.7436   9.0168   9.0662   9.0775
     9.2748   9.7290  10.7445  11.0770  11.4075  11.4359  12.2806  12.4807
    12.8609  12.8698  12.8800  12.9058  13.0171  13.0340  13.0506  13.0681
    13.0880  13.1129  13.1429  13.1559  13.1604  13.1754  13.2122  13.3600
    13.3647  13.3891  13.4078  13.5099  13.5153  13.7344  13.7424  13.7519

     occupation numbers 
     1.0000   1.0000   1.0000   1.0000   1.0000   1.0000   1.0000   1.0000
     1.0000   1.0000   1.0000   1.0000   1.0000   1.0000   1.0000   1.0000
     1.0000   1.0000   1.0000   1.0000   1.0000   1.0000   1.0000   1.0000
     1.0000   1.0000   1.0000   1.0000   1.0000   1.0000   1.0000   1.0000
     1.0000   1.0000   1.0000   1.0000   1.0000   0.0000   0.0000   0.0000
     0.0000   0.0000   0.0000   0.0000   0.0000   0.0000   0.0000   0.0000
     0.0000   0.0000   0.0000   0.0000   0.0000   0.0000   0.0000   0.0000
     0.0000   0.0000   0.0000   0.0000   0.0000   0.0000   0.0000   0.0000

          k = 0.3333-0.9225 0.9809 (  3898 PWs)   bands (ev):

   -21.6304 -21.6185 -21.2884 -21.0693 -10.7435 -10.7434 -10.7432 -10.7420
   -10.7308 -10.7305 -10.7282 -10.7269 -10.7143 -10.7126  -5.5144  -5.4602
    -5.4472  -5.4267  -5.3765  -5.2694  -5.2396  -5.1929  -4.9174  -4.7433
    -4.6666  -4.6275   1.1727   1.2028   8.2720   8.4342   8.9720   9.3434
     9.9075   9.9362  10.5349  11.4735  11.6714  11.9260  12.0453  12.1516
    12.5425  12.5736  12.6250  12.7241  12.8000  13.0603  13.0737  13.0900
    13.0986  13.1079  13.1653  13.1720  13.2188  13.2708  13.2763  13.2926
    13.3135  13.3518  13.3692  13.4251  13.4691  13.4922  13.6853  13.7328

     occupation numbers 
     1.0000   1.0000   1.0000   1.0000   1.0000   1.0000   1.0000   1.0000
     1.0000   1.0000   1.0000   1.0000   1.0000   1.0000   1.0000   1.0000
     1.0000   1.0000   1.0000   1.0000   1.0000   1.0000   1.0000   1.0000
     1.0000   1.0000   1.0000   1.0000   1.0000   1.0000   1.0000   1.0000
     1.0000   1.0000   1.0000   1.0000   1.0000   0.0000   0.0000   0.0000
     0.0000   0.0000   0.0000   0.0000   0.0000   0.0000   0.0000   0.0000
     0.0000   0.0000   0.0000   0.0000   0.0000   0.0000   0.0000   0.0000
     0.0000   0.0000   0.0000   0.0000   0.0000   0.0000   0.0000   0.0000

     highest occupied, lowest unoccupied level (ev):    11.6714   11.0645

!    total energy              =   -2203.77398010 Ry
     estimated scf accuracy    <       0.00000007 Ry

     The total energy is the sum of the following terms:
     one-electron contribution =    -126.10549335 Ry
     hartree contribution      =     106.75997455 Ry
     xc contribution           =    -164.36595228 Ry
     ewald contribution        =    -427.78078068 Ry
     one-center paw contrib.   =   -1592.28172833 Ry
      -> PAW hartree energy AE =      35.67207934 Ry
      -> PAW hartree energy PS =     -35.70528065 Ry
      -> PAW xc energy AE      =    -405.43214219 Ry
      -> PAW xc energy PS      =       7.38448627 Ry
      -> total E_H with PAW    =     106.72677323 Ry
      -> total E_XC with PAW   =    -562.41360819 Ry

     convergence has been achieved in  12 iterations

     Writing all to output data dir calculations_bands/myprefix.save/
 
     init_run     :     26.39s CPU      8.61s WALL (       1 calls)
     electrons    :    542.66s CPU    154.20s WALL (       1 calls)

     Called by init_run:
     wfcinit      :     17.01s CPU      5.20s WALL (       1 calls)
     wfcinit:atom :      0.02s CPU      0.01s WALL (       5 calls)
     wfcinit:wfcr :     16.88s CPU      5.16s WALL (       5 calls)
     potinit      :      4.32s CPU      1.44s WALL (       1 calls)
     hinit0       :      3.22s CPU      1.37s WALL (       1 calls)

     Called by electrons:
     c_bands      :    442.35s CPU    122.35s WALL (      13 calls)
     sum_band     :     53.50s CPU     16.77s WALL (      13 calls)
     v_of_rho     :      8.54s CPU      2.55s WALL (      13 calls)
     v_h          :      0.65s CPU      0.19s WALL (      13 calls)
     v_xc         :      7.89s CPU      2.36s WALL (      13 calls)
     newd         :     16.85s CPU      5.72s WALL (      13 calls)
     PAW_pot      :     22.05s CPU      6.69s WALL (      13 calls)
     mix_rho      :      1.43s CPU      0.42s WALL (      13 calls)

     Called by c_bands:
     init_us_2    :      0.28s CPU      0.09s WALL (     135 calls)
     init_us_2:cp :      0.28s CPU      0.09s WALL (     135 calls)
     cegterg      :    429.97s CPU    118.58s WALL (      65 calls)

     Called by sum_band:
     sum_band:wei :      0.07s CPU      0.02s WALL (      13 calls)
     sum_band:loo :     33.95s CPU      9.81s WALL (      13 calls)
     sum_band:buf :      0.06s CPU      0.02s WALL (      65 calls)
     sum_band:ini :      0.10s CPU      0.03s WALL (      65 calls)
     sum_band:cal :      1.04s CPU      0.30s WALL (      65 calls)
     sum_band:bec :      0.06s CPU      0.02s WALL (      65 calls)
     addusdens    :      6.84s CPU      2.42s WALL (      13 calls)
     addusd:skk   :      0.30s CPU      0.11s WALL (      26 calls)
     addusd:dgemm :      0.94s CPU      0.59s WALL (      26 calls)
     addusd:qvan2 :      3.92s CPU      1.19s WALL (      26 calls)

     Called by *egterg:
     cdiaghg      :     51.06s CPU     13.99s WALL (     641 calls)
     cegterg:over :     34.93s CPU      9.49s WALL (     581 calls)
     cegterg:upda :     10.86s CPU      2.97s WALL (     581 calls)
     cegterg:last :      7.88s CPU      2.13s WALL (     186 calls)
     cdiaghg:chol :      4.65s CPU      1.28s WALL (     641 calls)
     cdiaghg:inve :      0.34s CPU      0.09s WALL (     641 calls)
     cdiaghg:para :     17.23s CPU      4.72s WALL (    1282 calls)
     h_psi        :    329.81s CPU     91.68s WALL (     651 calls)
     s_psi        :      0.50s CPU      0.13s WALL (     651 calls)
     g_psi        :      0.05s CPU      0.01s WALL (     581 calls)

     Called by h_psi:
     h_psi:calbec :     10.64s CPU      2.89s WALL (     651 calls)
     vloc_psi     :    318.17s CPU     88.50s WALL (     651 calls)
     add_vuspsi   :      0.87s CPU      0.24s WALL (     651 calls)

     General routines
     calbec       :     11.66s CPU      3.19s WALL (     716 calls)
     fft          :      8.86s CPU      2.81s WALL (     168 calls)
     ffts         :      2.32s CPU      0.89s WALL (      26 calls)
     fftw         :    343.93s CPU     96.01s WALL (   31236 calls)
     interpolate  :      2.39s CPU      0.90s WALL (      13 calls)
 
     Parallel routines

     PAW routines
     PAW_pot      :     22.05s CPU      6.69s WALL (      13 calls)
     PAW_symme    :      0.97s CPU      0.27s WALL (      26 calls)
 
     PWSCF        :   9m30.49s CPU   2m43.75s WALL

 
   This run was terminated on:  18:15:48   4Jun2023            

=------------------------------------------------------------------------------=
   JOB DONE.
=------------------------------------------------------------------------------=
