
     Program PWSCF v.7.0 starts on  5Jun2023 at 22:52: 4 

     This program is part of the open-source Quantum ESPRESSO suite
     for quantum simulation of materials; please cite
         "P. Giannozzi et al., J. Phys.:Condens. Matter 21 395502 (2009);
         "P. Giannozzi et al., J. Phys.:Condens. Matter 29 465901 (2017);
         "P. Giannozzi et al., J. Chem. Phys. 152 154105 (2020);
          URL http://www.quantum-espresso.org", 
     in publications or presentations arising from this work. More details at
     http://www.quantum-espresso.org/quote

     Parallel version (MPI & OpenMP), running on      32 processor cores
     Number of MPI processes:                 8
     Threads/MPI process:                     4

     MPI processes distributed on     1 nodes
     K-points division:     npool     =       2
     R & G space division:  proc/nbgrp/npool/nimage =       4
     1631 MiB available memory on the printing compute node when the environment starts
 
     Reading input from espresso_12200.pwi
Warning: card &CELL ignored
Warning: card / ignored

     Current dimensions of program PWSCF are:
     Max number of different atomic species (ntypx) = 10
     Max number of k-points (npk) =  40000
     Max angular momentum in pseudopotentials (lmaxx) =  4
     file Mg.pbe-n-kjpaw_psl.0.3.0.UPF: wavefunction(s)  3S renormalized
     Message from routine setup:
     using ibrav=0 with symmetry is DISCOURAGED, use correct ibrav instead

     Subspace diagonalization in iterative solution of the eigenvalue problem:
     one sub-group per band group will be used
     scalapack distributed-memory algorithm (size of sub-group:  2*  2 procs)

 
     Parallelization info
     --------------------
     sticks:   dense  smooth     PW     G-vecs:    dense   smooth      PW
     Min         646     321     91                41773    14765    2245
     Max         648     322     93                41774    14772    2247
     Sum        2587    1285    367               167095    59073    8983
 
     Using Slab Decomposition
 


     bravais-lattice index     =            0
     lattice parameter (alat)  =      12.4901  a.u.
     unit-cell volume          =    2661.0182 (a.u.)^3
     number of atoms/cell      =           16
     number of atomic types    =            2
     number of electrons       =        40.00
     number of Kohn-Sham states=           64
     kinetic-energy cutoff     =      30.0000  Ry
     charge density cutoff     =     240.0000  Ry
     scf convergence threshold =      1.0E-06
     mixing beta               =       0.7000
     number of iterations used =            8  plain     mixing
     Exchange-correlation= SLA  PW   PBX  PBC
                           (   1   4   3   4   0   0   0)

     celldm(1)=  12.490081  celldm(2)=   0.000000  celldm(3)=   0.000000
     celldm(4)=   0.000000  celldm(5)=   0.000000  celldm(6)=   0.000000

     crystal axes: (cart. coord. in units of alat)
               a(1) = (   1.000000   0.000000   0.000000 )  
               a(2) = (  -0.500000   0.866025   0.000000 )  
               a(3) = (   0.000000   0.000000   1.576963 )  

     reciprocal axes: (cart. coord. in units 2 pi/alat)
               b(1) = (  1.000000  0.577350  0.000000 )  
               b(2) = (  0.000000  1.154701  0.000000 )  
               b(3) = (  0.000000  0.000000  0.634130 )  


     PseudoPot. # 1 for Sr read from file:
     /home/pragov/projects/rrg-bengioy-ad/pragov/crystal_structure_design/SSSP/Sr_pbe_v1.uspp.F.UPF
     MD5 check sum: 6b418c05fbe9db5448babca5e47b7a5b
     Pseudo is Ultrasoft + core correction, Zval = 10.0
     Generated by new atomic code, or converted to UPF format
     Using radial grid of  883 points,  6 beta functions with: 
                l(1) =   0
                l(2) =   0
                l(3) =   1
                l(4) =   1
                l(5) =   2
                l(6) =   2
     Q(r) pseudized with  6 coefficients,  rinner =    1.400   1.400   1.400
                                                       1.400   1.400

     PseudoPot. # 2 for Mg read from file:
     /home/pragov/projects/rrg-bengioy-ad/pragov/crystal_structure_design/SSSP/Mg.pbe-n-kjpaw_psl.0.3.0.UPF
     MD5 check sum: 24ecedc7f3e3cbe212e682f4413594e4
     Pseudo is Projector augmented-wave + core cor, Zval =  2.0
     Generated using "atomic" code by A. Dal Corso  v.5.0.99 svn rev. 10869
     Shape of augmentation charge: PSQ
     Using radial grid of 1129 points,  4 beta functions with: 
                l(1) =   0
                l(2) =   0
                l(3) =   1
                l(4) =   1
     Q(r) pseudized with 0 coefficients 


     atomic species   valence    mass     pseudopotential
        Sr            10.00    87.62000     Sr( 1.00)
        Mg             2.00    24.30500     Mg( 1.00)

     12 Sym. Ops. (no inversion) found


                                    s                        frac. trans.

      isym =  1     identity                                     

 cryst.   s( 1) = (     1          0          0      )
                  (     0          1          0      )
                  (     0          0          1      )

 cart.    s( 1) = (  1.0000000 -0.0000000  0.0000000 )
                  (  0.0000000  1.0000000  0.0000000 )
                  (  0.0000000  0.0000000  1.0000000 )


      isym =  2     180 deg rotation - cart. axis [0,1,0]        

 cryst.   s( 2) = (    -1          0          0      )
                  (     1          1          0      )
                  (     0          0         -1      )

 cart.    s( 2) = ( -1.0000000 -0.0000002  0.0000000 )
                  (  0.0000000  1.0000000  0.0000000 )
                  (  0.0000000  0.0000000 -1.0000000 )


      isym =  3     120 deg rotation - cryst. axis [0,0,1]       

 cryst.   s( 3) = (     0          1          0      )
                  (    -1         -1          0      )
                  (     0          0          1      )

 cart.    s( 3) = ( -0.5000001 -0.8660254  0.0000000 )
                  (  0.8660254 -0.4999999  0.0000000 )
                  (  0.0000000  0.0000000  1.0000000 )


      isym =  4     120 deg rotation - cryst. axis [0,0,-1]      

 cryst.   s( 4) = (    -1         -1          0      )
                  (     1          0          0      )
                  (     0          0          1      )

 cart.    s( 4) = ( -0.4999999  0.8660254  0.0000000 )
                  ( -0.8660254 -0.5000001  0.0000000 )
                  (  0.0000000  0.0000000  1.0000000 )


      isym =  5     180 deg rotation - cryst. axis [1,-1,0]      

 cryst.   s( 5) = (     0         -1          0      )
                  (    -1          0          0      )
                  (     0          0         -1      )

 cart.    s( 5) = (  0.5000001 -0.8660254  0.0000000 )
                  ( -0.8660254 -0.5000001  0.0000000 )
                  (  0.0000000  0.0000000 -1.0000000 )


      isym =  6     180 deg rotation - cryst. axis [2,1,0]       

 cryst.   s( 6) = (     1          1          0      )
                  (     0         -1          0      )
                  (     0          0         -1      )

 cart.    s( 6) = (  0.4999999  0.8660255  0.0000000 )
                  (  0.8660254 -0.4999999  0.0000000 )
                  (  0.0000000  0.0000000 -1.0000000 )


      isym =  7     inv. 180 deg rotation - cart. axis [0,0,1]   

 cryst.   s( 7) = (     1          0          0      )
                  (     0          1          0      )
                  (     0          0         -1      )

 cart.    s( 7) = (  1.0000000 -0.0000000  0.0000000 )
                  (  0.0000000  1.0000000  0.0000000 )
                  (  0.0000000  0.0000000 -1.0000000 )


      isym =  8     inv. 180 deg rotation - cart. axis [1,0,0]   

 cryst.   s( 8) = (    -1          0          0      )
                  (     1          1          0      )
                  (     0          0          1      )

 cart.    s( 8) = ( -1.0000000 -0.0000002  0.0000000 )
                  (  0.0000000  1.0000000  0.0000000 )
                  (  0.0000000  0.0000000  1.0000000 )


      isym =  9     inv.  60 deg rotation - cryst. axis [0,0,1]  

 cryst.   s( 9) = (    -1         -1          0      )
                  (     1          0          0      )
                  (     0          0         -1      )

 cart.    s( 9) = ( -0.4999999  0.8660254  0.0000000 )
                  ( -0.8660254 -0.5000001  0.0000000 )
                  (  0.0000000  0.0000000 -1.0000000 )


      isym = 10     inv.  60 deg rotation - cryst. axis [0,0,-1] 

 cryst.   s(10) = (     0          1          0      )
                  (    -1         -1          0      )
                  (     0          0         -1      )

 cart.    s(10) = ( -0.5000001 -0.8660254  0.0000000 )
                  (  0.8660254 -0.4999999  0.0000000 )
                  (  0.0000000  0.0000000 -1.0000000 )


      isym = 11     inv. 180 deg rotation - cryst. axis [0,1,0]  

 cryst.   s(11) = (     1          1          0      )
                  (     0         -1          0      )
                  (     0          0          1      )

 cart.    s(11) = (  0.4999999  0.8660255  0.0000000 )
                  (  0.8660254 -0.4999999  0.0000000 )
                  (  0.0000000  0.0000000  1.0000000 )


      isym = 12     inv. 180 deg rotation - cryst. axis [1,1,0]  

 cryst.   s(12) = (     0         -1          0      )
                  (    -1          0          0      )
                  (     0          0          1      )

 cart.    s(12) = (  0.5000001 -0.8660254  0.0000000 )
                  ( -0.8660254 -0.5000001  0.0000000 )
                  (  0.0000000  0.0000000  1.0000000 )


   Cartesian axes

     site n.     atom                  positions (alat units)
         1           Sr  tau(   1) = (   0.0000000   0.0000000   0.7884813  )
         2           Mg  tau(   2) = (   0.0000000   0.0000000   0.0000000  )
         3           Mg  tau(   3) = (  -0.2428970   0.4371142   0.7884813  )
         4           Mg  tau(   4) = (   0.7487685   0.4323017   0.0000000  )
         5           Mg  tau(   5) = (   0.2428960   0.4371142   0.7884813  )
         6           Mg  tau(   6) = (   0.2512315   0.4323017   0.0000000  )
         7           Mg  tau(   7) = (  -0.0000006   0.8578232   0.7884813  )
         8           Mg  tau(   8) = (   0.5000000   0.0014220   0.0000000  )
         9           Mg  tau(   9) = (  -0.0000000   0.2950219   0.3791523  )
        10           Mg  tau(  10) = (  -0.0000000   0.2950219   1.1978104  )
        11           Mg  tau(  11) = (  -0.2445036   0.7185144   0.3791523  )
        12           Mg  tau(  12) = (  -0.2445036   0.7185144   1.1978104  )
        13           Mg  tau(  13) = (   0.2445034   0.7185144   0.3791523  )
        14           Mg  tau(  14) = (   0.2445034   0.7185144   1.1978104  )
        15           Mg  tau(  15) = (   0.5000005   0.2886748   0.3999461  )
        16           Mg  tau(  16) = (   0.5000005   0.2886748   1.1770166  )

   Crystallographic axes

     site n.     atom                  positions (cryst. coord.)
         1           Sr  tau(   1) = (  0.0000000  0.0000000  0.5000000  )
         2           Mg  tau(   2) = (  0.0000000  0.0000000  0.0000000  )
         3           Mg  tau(   3) = (  0.0094710  0.5047360  0.5000000  )
         4           Mg  tau(   4) = (  0.9983580  0.4991790  0.0000000  )
         5           Mg  tau(   5) = (  0.4952640  0.5047360  0.5000000  )
         6           Mg  tau(   6) = (  0.5008210  0.4991790  0.0000000  )
         7           Mg  tau(   7) = (  0.4952640  0.9905290  0.5000000  )
         8           Mg  tau(   8) = (  0.5008210  0.0016420  0.0000000  )
         9           Mg  tau(   9) = (  0.1703310  0.3406620  0.2404320  )
        10           Mg  tau(  10) = (  0.1703310  0.3406620  0.7595680  )
        11           Mg  tau(  11) = (  0.1703310  0.8296690  0.2404320  )
        12           Mg  tau(  12) = (  0.1703310  0.8296690  0.7595680  )
        13           Mg  tau(  13) = (  0.6593380  0.8296690  0.2404320  )
        14           Mg  tau(  14) = (  0.6593380  0.8296690  0.7595680  )
        15           Mg  tau(  15) = (  0.6666670  0.3333330  0.2536180  )
        16           Mg  tau(  16) = (  0.6666670  0.3333330  0.7463820  )

     number of k points=     6
                       cart. coord. in units 2pi/alat
        k(    1) = (   0.0000000   0.0000000   0.0000000), wk =   0.0740741
        k(    2) = (   0.0000000   0.0000000   0.2113768), wk =   0.1481481
        k(    3) = (   0.0000000   0.3849002   0.0000000), wk =   0.4444444
        k(    4) = (   0.0000000   0.3849002   0.2113768), wk =   0.8888889
        k(    5) = (   0.3333333   0.5773503   0.0000000), wk =   0.1481481
        k(    6) = (   0.3333333   0.5773503   0.2113768), wk =   0.2962963

                       cryst. coord.
        k(    1) = (   0.0000000   0.0000000   0.0000000), wk =   0.0740741
        k(    2) = (   0.0000000   0.0000000   0.3333333), wk =   0.1481481
        k(    3) = (   0.0000000   0.3333333   0.0000000), wk =   0.4444444
        k(    4) = (   0.0000000   0.3333333   0.3333333), wk =   0.8888889
        k(    5) = (   0.3333333   0.3333333   0.0000000), wk =   0.1481481
        k(    6) = (   0.3333333   0.3333333   0.3333333), wk =   0.2962963

     Dense  grid:   167095 G-vectors     FFT dimensions: (  64,  64, 100)

     Smooth grid:    59073 G-vectors     FFT dimensions: (  45,  45,  72)

     Dynamical RAM for                 wfc:       1.80 MB

     Dynamical RAM for     wfc (w. buffer):       7.21 MB

     Dynamical RAM for           str. fact:       1.27 MB

     Dynamical RAM for           local pot:       0.00 MB

     Dynamical RAM for          nlocal pot:       3.89 MB

     Dynamical RAM for                qrad:       2.49 MB

     Dynamical RAM for          rho,v,vnew:       4.26 MB

     Dynamical RAM for               rhoin:       1.42 MB

     Dynamical RAM for            rho*nmix:      10.20 MB

     Dynamical RAM for           G-vectors:       2.50 MB

     Dynamical RAM for          h,s,v(r/c):       0.19 MB

     Dynamical RAM for          <psi|beta>:       0.13 MB

     Dynamical RAM for                 psi:       3.61 MB

     Dynamical RAM for                hpsi:       3.61 MB

     Dynamical RAM for                spsi:       3.61 MB

     Dynamical RAM for      wfcinit/wfcrot:       4.24 MB

     Dynamical RAM for           addusdens:      64.38 MB

     Estimated static dynamical RAM per process >      28.86 MB

     Estimated max dynamical RAM per process >     103.44 MB

     Estimated total dynamical RAM >     786.69 MB

     Initial potential from superposition of free atoms

     starting charge      39.9525, renormalised to      40.0000

     negative rho (up, down):  6.486E-02 0.000E+00
     Starting wfcs are   73 randomized atomic wfcs
     Checking if some PAW data can be deallocated... 

     total cpu time spent up to now is        2.1 secs

     Self-consistent Calculation

     iteration #  1     ecut=    30.00 Ry     beta= 0.70
     Davidson diagonalization with overlap

---- Real-time Memory Report at c_bands before calling an iterative solver
           201 MiB given to the printing process from OS
             0 MiB allocation reported by mallinfo(arena+hblkhd)
           689 MiB available memory on the node where the printing process lives
------------------
     ethr =  1.00E-02,  avg # of iterations =  6.8

     Threshold (ethr) on eigenvalues was too large:
     Diagonalizing with lowered threshold

     Davidson diagonalization with overlap

---- Real-time Memory Report at c_bands before calling an iterative solver
           229 MiB given to the printing process from OS
             0 MiB allocation reported by mallinfo(arena+hblkhd)
          1006 MiB available memory on the node where the printing process lives
------------------
     ethr =  5.54E-04,  avg # of iterations =  4.5

     negative rho (up, down):  6.635E-02 0.000E+00

     total cpu time spent up to now is        4.1 secs

     total energy              =    -574.19157018 Ry
     estimated scf accuracy    <       0.22160111 Ry

     iteration #  2     ecut=    30.00 Ry     beta= 0.70
     Davidson diagonalization with overlap

---- Real-time Memory Report at c_bands before calling an iterative solver
           237 MiB given to the printing process from OS
             0 MiB allocation reported by mallinfo(arena+hblkhd)
           964 MiB available memory on the node where the printing process lives
------------------
     ethr =  5.54E-04,  avg # of iterations =  5.3

     negative rho (up, down):  6.640E-02 0.000E+00

     total cpu time spent up to now is        4.9 secs

     total energy              =    -573.90455574 Ry
     estimated scf accuracy    <       5.04710359 Ry

     iteration #  3     ecut=    30.00 Ry     beta= 0.70
     Davidson diagonalization with overlap

---- Real-time Memory Report at c_bands before calling an iterative solver
           255 MiB given to the printing process from OS
             0 MiB allocation reported by mallinfo(arena+hblkhd)
         10293 MiB available memory on the node where the printing process lives
------------------
     ethr =  5.54E-04,  avg # of iterations =  4.0

     negative rho (up, down):  6.704E-02 0.000E+00

     total cpu time spent up to now is        5.7 secs

     total energy              =    -574.30280460 Ry
     estimated scf accuracy    <       0.02606358 Ry

     iteration #  4     ecut=    30.00 Ry     beta= 0.70
     Davidson diagonalization with overlap

---- Real-time Memory Report at c_bands before calling an iterative solver
           256 MiB given to the printing process from OS
             0 MiB allocation reported by mallinfo(arena+hblkhd)
         17831 MiB available memory on the node where the printing process lives
------------------
     ethr =  6.52E-05,  avg # of iterations =  5.5

     negative rho (up, down):  6.760E-02 0.000E+00

     total cpu time spent up to now is        6.5 secs

     total energy              =    -574.30763899 Ry
     estimated scf accuracy    <       0.00929197 Ry

     iteration #  5     ecut=    30.00 Ry     beta= 0.70
     Davidson diagonalization with overlap

---- Real-time Memory Report at c_bands before calling an iterative solver
           256 MiB given to the printing process from OS
             0 MiB allocation reported by mallinfo(arena+hblkhd)
         26327 MiB available memory on the node where the printing process lives
------------------
     ethr =  2.32E-05,  avg # of iterations =  3.3

     negative rho (up, down):  6.763E-02 0.000E+00

     total cpu time spent up to now is        7.2 secs

     total energy              =    -574.30946674 Ry
     estimated scf accuracy    <       0.00042608 Ry

     iteration #  6     ecut=    30.00 Ry     beta= 0.70
     Davidson diagonalization with overlap

---- Real-time Memory Report at c_bands before calling an iterative solver
           257 MiB given to the printing process from OS
             0 MiB allocation reported by mallinfo(arena+hblkhd)
         31961 MiB available memory on the node where the printing process lives
------------------
     ethr =  1.07E-06,  avg # of iterations =  7.2

     negative rho (up, down):  6.763E-02 0.000E+00

     total cpu time spent up to now is        8.2 secs

     total energy              =    -574.31051288 Ry
     estimated scf accuracy    <       0.00002416 Ry

     iteration #  7     ecut=    30.00 Ry     beta= 0.70
     Davidson diagonalization with overlap

---- Real-time Memory Report at c_bands before calling an iterative solver
           259 MiB given to the printing process from OS
             0 MiB allocation reported by mallinfo(arena+hblkhd)
         37695 MiB available memory on the node where the printing process lives
------------------
     ethr =  6.04E-08,  avg # of iterations =  4.0

     negative rho (up, down):  6.762E-02 0.000E+00

     total cpu time spent up to now is        8.9 secs

     total energy              =    -574.31051467 Ry
     estimated scf accuracy    <       0.00000104 Ry

     iteration #  8     ecut=    30.00 Ry     beta= 0.70
     Davidson diagonalization with overlap

---- Real-time Memory Report at c_bands before calling an iterative solver
           260 MiB given to the printing process from OS
             0 MiB allocation reported by mallinfo(arena+hblkhd)
         37669 MiB available memory on the node where the printing process lives
------------------
     ethr =  2.60E-09,  avg # of iterations =  5.0

     negative rho (up, down):  6.762E-02 0.000E+00

     total cpu time spent up to now is        9.7 secs

     End of self-consistent calculation

          k = 0.0000 0.0000 0.0000 (  7403 PWs)   bands (ev):

   -31.5299 -13.6845 -13.6563 -13.6563  -2.7779  -1.4030  -1.2775   1.4715
     1.4715   1.6410   1.8549   1.8740   1.8740   2.4519   2.6362   2.6717
     2.6717   2.7846   2.8880   2.8880   2.9604   2.9604   2.9928   3.3712
     3.5167   3.5167   4.6104   5.8470   5.8471   6.4924   6.4924   6.6486
     6.7032   6.7032   7.0787   7.3064   7.3731   7.3731   7.4807   8.4535
     9.3566   9.4912   9.4912   9.8651  10.0034  10.0034  10.2293  10.2293
    10.6440  10.9602  11.1645  11.3158  11.3158  11.4210  11.4210  11.5517
    11.7990  11.9504  11.9504  12.2115  12.2115  12.8022  12.8022  13.2271

     occupation numbers 
     1.0000   1.0000   1.0000   1.0000   1.0000   1.0000   1.0000   1.0000
     1.0000   1.0000   1.0000   1.0000   1.0000   1.0000   1.0000   1.0000
     1.0000   1.0000   1.0000   1.0000   0.0000   0.0000   0.0000   0.0000
     0.0000   0.0000   0.0000   0.0000   0.0000   0.0000   0.0000   0.0000
     0.0000   0.0000   0.0000   0.0000   0.0000   0.0000   0.0000   0.0000
     0.0000   0.0000   0.0000   0.0000   0.0000   0.0000   0.0000   0.0000
     0.0000   0.0000   0.0000   0.0000   0.0000   0.0000   0.0000   0.0000
     0.0000   0.0000   0.0000   0.0000   0.0000   0.0000   0.0000   0.0000

          k = 0.0000 0.0000 0.2114 (  7330 PWs)   bands (ev):

   -31.5299 -13.6845 -13.6563 -13.6563  -2.6332  -2.0987  -0.2917   1.0151
     1.6123   1.6123   1.7854   1.8892   1.8892   2.0108   2.0869   2.0869
     2.2150   2.7140   2.7140   2.7506   3.7655   3.7655   3.9483   3.9483
     4.0409   4.2137   5.0908   5.0908   5.2795   5.3254   5.3254   5.4180
     6.0778   6.8014   7.9182   7.9182   8.1676   8.2070   8.2071   8.7356
     9.4728   9.4728   9.7347   9.7347   9.9887  10.0828  10.4049  10.4049
    10.4070  10.6773  10.8231  10.8231  11.0488  11.0488  11.4265  11.7633
    11.7633  11.9838  12.0611  12.0611  12.3366  12.4835  12.4836  13.0013

     occupation numbers 
     1.0000   1.0000   1.0000   1.0000   1.0000   1.0000   1.0000   1.0000
     1.0000   1.0000   1.0000   1.0000   1.0000   1.0000   1.0000   1.0000
     1.0000   1.0000   1.0000   1.0000   0.0000   0.0000   0.0000   0.0000
     0.0000   0.0000   0.0000   0.0000   0.0000   0.0000   0.0000   0.0000
     0.0000   0.0000   0.0000   0.0000   0.0000   0.0000   0.0000   0.0000
     0.0000   0.0000   0.0000   0.0000   0.0000   0.0000   0.0000   0.0000
     0.0000   0.0000   0.0000   0.0000   0.0000   0.0000   0.0000   0.0000
     0.0000   0.0000   0.0000   0.0000   0.0000   0.0000   0.0000   0.0000

          k = 0.0000 0.3849 0.0000 (  7377 PWs)   bands (ev):

   -31.5299 -13.6844 -13.6592 -13.6572  -2.2575  -0.9251  -0.8122  -0.6710
     0.5377   0.5560   0.7710   1.0156   1.8465   2.0794   2.2787   2.2837
     2.9587   3.1660   3.5692   3.7221   4.1709   4.4294   4.5373   4.5858
     4.9111   5.0735   5.3303   5.4658   5.8116   5.8707   6.0834   6.3252
     6.7248   6.7352   7.3409   7.3757   7.5694   7.6479   8.0271   8.0633
     8.4068   8.6152   8.8246   9.1372   9.2960   9.5438   9.5469   9.9350
    10.2661  10.3498  10.4856  10.6043  10.6551  10.8648  10.9888  11.1412
    11.4417  11.7649  11.8198  11.9778  11.9950  12.3376  12.3899  12.4932

     occupation numbers 
     1.0000   1.0000   1.0000   1.0000   1.0000   1.0000   1.0000   1.0000
     1.0000   1.0000   1.0000   1.0000   1.0000   1.0000   1.0000   1.0000
     1.0000   1.0000   1.0000   1.0000   0.0000   0.0000   0.0000   0.0000
     0.0000   0.0000   0.0000   0.0000   0.0000   0.0000   0.0000   0.0000
     0.0000   0.0000   0.0000   0.0000   0.0000   0.0000   0.0000   0.0000
     0.0000   0.0000   0.0000   0.0000   0.0000   0.0000   0.0000   0.0000
     0.0000   0.0000   0.0000   0.0000   0.0000   0.0000   0.0000   0.0000
     0.0000   0.0000   0.0000   0.0000   0.0000   0.0000   0.0000   0.0000

          k = 0.0000 0.3849 0.2114 (  7401 PWs)   bands (ev):

   -31.5299 -13.6844 -13.6592 -13.6572  -2.1195  -1.5809  -0.6098  -0.0838
     0.1942   0.8659   0.9210   1.2656   1.4183   1.6561   1.8151   2.9509
     2.9577   3.1689   3.6604   3.6960   4.0215   4.2136   4.2652   4.6092
     4.8832   5.1657   5.5104   5.5729   5.9557   6.1377   6.5205   6.5994
     6.7808   6.9105   6.9719   7.3430   7.4017   7.5779   7.9484   8.0004
     8.2833   8.4956   8.6299   8.9604   9.2536   9.5085   9.6183   9.8427
     9.9438   9.9921  10.6180  10.6911  10.7261  10.7373  11.0708  11.2460
    11.4029  11.6115  11.8224  11.8322  12.0594  12.0729  12.4462  12.8253

     occupation numbers 
     1.0000   1.0000   1.0000   1.0000   1.0000   1.0000   1.0000   1.0000
     1.0000   1.0000   1.0000   1.0000   1.0000   1.0000   1.0000   1.0000
     1.0000   1.0000   1.0000   1.0000   0.0000   0.0000   0.0000   0.0000
     0.0000   0.0000   0.0000   0.0000   0.0000   0.0000   0.0000   0.0000
     0.0000   0.0000   0.0000   0.0000   0.0000   0.0000   0.0000   0.0000
     0.0000   0.0000   0.0000   0.0000   0.0000   0.0000   0.0000   0.0000
     0.0000   0.0000   0.0000   0.0000   0.0000   0.0000   0.0000   0.0000
     0.0000   0.0000   0.0000   0.0000   0.0000   0.0000   0.0000   0.0000

          k = 0.3333 0.5774 0.0000 (  7383 PWs)   bands (ev):

   -31.5299 -13.6843 -13.6592 -13.6590  -1.3388  -1.2503  -1.1152  -0.1087
    -0.0177   0.1221   0.1854   0.2999   0.6904   3.0712   3.1007   3.1932
     3.4800   3.5984   3.8540   3.8781   3.9950   4.0736   4.3136   4.4326
     4.5241   4.6670   4.7503   5.6229   6.6276   6.8900   7.0371   7.2466
     7.2925   7.6083   7.7065   7.8222   7.8882   7.9925   8.0497   8.0580
     8.1633   8.3775   8.3933   8.3987   8.5672   8.5882   8.8811   8.9230
     9.1214   9.7345   9.8261   9.9988  10.0419  10.5664  10.7629  10.8098
    10.9250  11.3772  11.3871  11.5679  11.6707  11.8540  11.9219  12.3333

     occupation numbers 
     1.0000   1.0000   1.0000   1.0000   1.0000   1.0000   1.0000   1.0000
     1.0000   1.0000   1.0000   1.0000   1.0000   1.0000   1.0000   1.0000
     1.0000   1.0000   1.0000   1.0000   0.0000   0.0000   0.0000   0.0000
     0.0000   0.0000   0.0000   0.0000   0.0000   0.0000   0.0000   0.0000
     0.0000   0.0000   0.0000   0.0000   0.0000   0.0000   0.0000   0.0000
     0.0000   0.0000   0.0000   0.0000   0.0000   0.0000   0.0000   0.0000
     0.0000   0.0000   0.0000   0.0000   0.0000   0.0000   0.0000   0.0000
     0.0000   0.0000   0.0000   0.0000   0.0000   0.0000   0.0000   0.0000

          k = 0.3333 0.5774 0.2114 (  7404 PWs)   bands (ev):

   -31.5299 -13.6843 -13.6592 -13.6590  -1.2063  -1.1126  -1.0040  -0.7136
    -0.6406  -0.2508   1.0206   1.0961   1.5345   2.2806   2.3619   2.6939
     3.2344   3.3169   3.3320   3.6145   3.7239   3.8570   5.2111   5.2200
     5.2882   5.6134   5.7874   6.1304   6.2791   6.3209   7.0152   7.1107
     7.1604   7.2870   7.3179   7.4511   7.5210   7.7207   7.7224   7.9227
     8.1188   8.1637   8.3175   8.3324   8.4278   8.9870   9.0913   9.3209
     9.5735   9.6078   9.7327   9.9997  10.2012  10.2861  10.7170  10.7941
    11.0069  11.1451  11.2424  11.4742  11.5687  11.9470  12.0423  12.3561

     occupation numbers 
     1.0000   1.0000   1.0000   1.0000   1.0000   1.0000   1.0000   1.0000
     1.0000   1.0000   1.0000   1.0000   1.0000   1.0000   1.0000   1.0000
     1.0000   1.0000   1.0000   1.0000   0.0000   0.0000   0.0000   0.0000
     0.0000   0.0000   0.0000   0.0000   0.0000   0.0000   0.0000   0.0000
     0.0000   0.0000   0.0000   0.0000   0.0000   0.0000   0.0000   0.0000
     0.0000   0.0000   0.0000   0.0000   0.0000   0.0000   0.0000   0.0000
     0.0000   0.0000   0.0000   0.0000   0.0000   0.0000   0.0000   0.0000
     0.0000   0.0000   0.0000   0.0000   0.0000   0.0000   0.0000   0.0000

     highest occupied, lowest unoccupied level (ev):     3.8781    2.9604

!    total energy              =    -574.31051718 Ry
     estimated scf accuracy    <       0.00000052 Ry

     The total energy is the sum of the following terms:
     one-electron contribution =     -23.28980819 Ry
     hartree contribution      =      23.55266471 Ry
     xc contribution           =     -42.03887517 Ry
     ewald contribution        =     -63.10631267 Ry
     one-center paw contrib.   =    -469.42818586 Ry
      -> PAW hartree energy AE =       0.73477024 Ry
      -> PAW hartree energy PS =      -0.73293231 Ry
      -> PAW xc energy AE      =     -32.57811077 Ry
      -> PAW xc energy PS      =       1.28332277 Ry
      -> total E_H with PAW    =      23.55450264 Ry
      -> total E_XC with PAW   =     -73.33366317 Ry

     convergence has been achieved in   8 iterations

     Writing all to output data dir calculations_bands/myprefix.save/
 
     init_run     :      6.61s CPU      1.92s WALL (       1 calls)
     electrons    :     27.85s CPU      7.65s WALL (       1 calls)

     Called by init_run:
     wfcinit      :      0.89s CPU      0.23s WALL (       1 calls)
     wfcinit:atom :      0.01s CPU      0.00s WALL (       3 calls)
     wfcinit:wfcr :      0.80s CPU      0.21s WALL (       3 calls)
     potinit      :      1.64s CPU      0.43s WALL (       1 calls)
     hinit0       :      3.17s CPU      1.00s WALL (       1 calls)

     Called by electrons:
     c_bands      :     18.46s CPU      4.81s WALL (       9 calls)
     sum_band     :      4.22s CPU      1.33s WALL (       9 calls)
     v_of_rho     :      1.13s CPU      0.30s WALL (       9 calls)
     v_h          :      0.08s CPU      0.02s WALL (       9 calls)
     v_xc         :      1.04s CPU      0.28s WALL (       9 calls)
     newd         :      2.97s CPU      0.91s WALL (       9 calls)
     PAW_pot      :      1.24s CPU      0.33s WALL (       9 calls)
     mix_rho      :      0.25s CPU      0.07s WALL (       9 calls)

     Called by c_bands:
     init_us_2    :      0.10s CPU      0.03s WALL (      57 calls)
     init_us_2:cp :      0.09s CPU      0.03s WALL (      57 calls)
     cegterg      :     17.72s CPU      4.62s WALL (      27 calls)

     Called by sum_band:
     sum_band:wei :      0.02s CPU      0.01s WALL (       9 calls)
     sum_band:loo :      2.24s CPU      0.57s WALL (       9 calls)
     sum_band:buf :      0.04s CPU      0.01s WALL (      27 calls)
     sum_band:ini :      0.04s CPU      0.01s WALL (      27 calls)
     sum_band:cal :      0.17s CPU      0.04s WALL (      27 calls)
     sum_band:bec :      0.01s CPU      0.00s WALL (      27 calls)
     addusdens    :      1.56s CPU      0.64s WALL (       9 calls)
     addusd:skk   :      0.02s CPU      0.01s WALL (      18 calls)
     addusd:dgemm :      0.29s CPU      0.28s WALL (      18 calls)
     addusd:qvan2 :      0.76s CPU      0.19s WALL (      18 calls)

     Called by *egterg:
     cdiaghg      :      2.79s CPU      0.73s WALL (     179 calls)
     cegterg:over :      0.84s CPU      0.22s WALL (     155 calls)
     cegterg:upda :      0.46s CPU      0.12s WALL (     155 calls)
     cegterg:last :      0.71s CPU      0.19s WALL (      63 calls)
     cdiaghg:chol :      0.21s CPU      0.05s WALL (     179 calls)
     cdiaghg:inve :      0.04s CPU      0.01s WALL (     179 calls)
     cdiaghg:para :      0.44s CPU      0.12s WALL (     358 calls)
     h_psi        :     13.03s CPU      3.39s WALL (     185 calls)
     s_psi        :      0.31s CPU      0.08s WALL (     185 calls)
     g_psi        :      0.03s CPU      0.01s WALL (     155 calls)

     Called by h_psi:
     h_psi:calbec :      0.62s CPU      0.16s WALL (     185 calls)
     vloc_psi     :     12.00s CPU      3.12s WALL (     185 calls)
     add_vuspsi   :      0.36s CPU      0.09s WALL (     185 calls)

     General routines
     calbec       :      0.78s CPU      0.20s WALL (     212 calls)
     fft          :      1.88s CPU      0.50s WALL (     116 calls)
     ffts         :      0.86s CPU      0.23s WALL (      18 calls)
     fftw         :     12.46s CPU      3.24s WALL (   11618 calls)
     interpolate  :      0.92s CPU      0.24s WALL (       9 calls)
 
     Parallel routines

     PAW routines
     PAW_pot      :      1.24s CPU      0.33s WALL (       9 calls)
     PAW_symme    :      0.13s CPU      0.03s WALL (      18 calls)
 
     PWSCF        :     35.27s CPU     10.66s WALL

 
   This run was terminated on:  22:52:15   5Jun2023            

=------------------------------------------------------------------------------=
   JOB DONE.
=------------------------------------------------------------------------------=
