
     Program PWSCF v.7.0 starts on  4Jun2023 at 22:52:39 

     This program is part of the open-source Quantum ESPRESSO suite
     for quantum simulation of materials; please cite
         "P. Giannozzi et al., J. Phys.:Condens. Matter 21 395502 (2009);
         "P. Giannozzi et al., J. Phys.:Condens. Matter 29 465901 (2017);
         "P. Giannozzi et al., J. Chem. Phys. 152 154105 (2020);
          URL http://www.quantum-espresso.org", 
     in publications or presentations arising from this work. More details at
     http://www.quantum-espresso.org/quote

     Parallel version (MPI & OpenMP), running on      32 processor cores
     Number of MPI processes:                 8
     Threads/MPI process:                     4

     MPI processes distributed on     1 nodes
     K-points division:     npool     =       2
     R & G space division:  proc/nbgrp/npool/nimage =       4
     165813 MiB available memory on the printing compute node when the environment starts
 
     Reading input from espresso_5258.pwi
Warning: card &CELL ignored
Warning: card / ignored

     Current dimensions of program PWSCF are:
     Max number of different atomic species (ntypx) = 10
     Max number of k-points (npk) =  40000
     Max angular momentum in pseudopotentials (lmaxx) =  4
     file Fe.pbe-spn-kjpaw_psl.0.2.1.UPF: wavefunction(s)  3D renormalized
     file O.pbe-n-kjpaw_psl.0.1.UPF: wavefunction(s)  2P renormalized
     Message from routine setup:
     using ibrav=0 with symmetry is DISCOURAGED, use correct ibrav instead

     Subspace diagonalization in iterative solution of the eigenvalue problem:
     one sub-group per band group will be used
     scalapack distributed-memory algorithm (size of sub-group:  2*  2 procs)

 
     Parallelization info
     --------------------
     sticks:   dense  smooth     PW     G-vecs:    dense   smooth      PW
     Min         256     126     37                15474     5450     859
     Max         257     127     39                15483     5455     862
     Sum        1025     507    151                61907    21813    3441
 
     Using Slab Decomposition
 


     bravais-lattice index     =            0
     lattice parameter (alat)  =       5.8691  a.u.
     unit-cell volume          =     985.1430 (a.u.)^3
     number of atoms/cell      =           12
     number of atomic types    =            3
     number of electrons       =       118.00
     number of Kohn-Sham states=           64
     kinetic-energy cutoff     =      30.0000  Ry
     charge density cutoff     =     240.0000  Ry
     scf convergence threshold =      1.0E-06
     mixing beta               =       0.7000
     number of iterations used =            8  plain     mixing
     Exchange-correlation=  SLA  PW   PBX  PBC
                           (   1   4   3   4   0   0   0)

     celldm(1)=   5.869127  celldm(2)=   0.000000  celldm(3)=   0.000000
     celldm(4)=   0.000000  celldm(5)=   0.000000  celldm(6)=   0.000000

     crystal axes: (cart. coord. in units of alat)
               a(1) = (   1.000000   0.000000   0.000000 )  
               a(2) = (   0.000000   1.561982   0.000000 )  
               a(3) = (   0.000000   0.000000   3.119628 )  

     reciprocal axes: (cart. coord. in units 2 pi/alat)
               b(1) = (  1.000000  0.000000  0.000000 )  
               b(2) = (  0.000000  0.640212  0.000000 )  
               b(3) = (  0.000000  0.000000  0.320551 )  


     PseudoPot. # 1 for Fe read from file:
     /home/pragov/projects/rrg-bengioy-ad/pragov/crystal_structure_design/SSSP/Fe.pbe-spn-kjpaw_psl.0.2.1.UPF
     MD5 check sum: e86618425769142926afa95317d90200
     Pseudo is Projector augmented-wave + core cor, Zval = 16.0
     Generated using "atomic" code by A. Dal Corso  v.5.0.99 svn rev. 10869
     Shape of augmentation charge: PSQ
     Using radial grid of 1191 points,  6 beta functions with: 
                l(1) =   0
                l(2) =   0
                l(3) =   1
                l(4) =   1
                l(5) =   2
                l(6) =   2
     Q(r) pseudized with 0 coefficients 


     PseudoPot. # 2 for O  read from file:
     /home/pragov/projects/rrg-bengioy-ad/pragov/crystal_structure_design/SSSP/O.pbe-n-kjpaw_psl.0.1.UPF
     MD5 check sum: 0234752ac141de4415c5fc33072bef88
     Pseudo is Projector augmented-wave + core cor, Zval =  6.0
     Generated using "atomic" code by A. Dal Corso  v.5.0.99 svn rev. 10869
     Shape of augmentation charge: BESSEL
     Using radial grid of 1095 points,  4 beta functions with: 
                l(1) =   0
                l(2) =   0
                l(3) =   1
                l(4) =   1
     Q(r) pseudized with 0 coefficients 


     PseudoPot. # 3 for F  read from file:
     /home/pragov/projects/rrg-bengioy-ad/pragov/crystal_structure_design/SSSP/f_pbe_v1.4.uspp.F.UPF
     MD5 check sum: 4c38b6a325caf53ec0e86aed9459de46
     Pseudo is Ultrasoft, Zval =  7.0
     Generated by new atomic code, or converted to UPF format
     Using radial grid of  799 points,  4 beta functions with: 
                l(1) =   0
                l(2) =   0
                l(3) =   1
                l(4) =   1
     Q(r) pseudized with  8 coefficients,  rinner =    0.950   0.950   0.950


     atomic species   valence    mass     pseudopotential
        Fe            16.00    55.84500     Fe( 1.00)
        O              6.00    15.99900     O ( 1.00)
        F              7.00    18.99840     F ( 1.00)

      4 Sym. Ops. (no inversion) found ( 2 have fractional translation)


                                    s                        frac. trans.

      isym =  1     identity                                     

 cryst.   s( 1) = (     1          0          0      )
                  (     0          1          0      )
                  (     0          0          1      )

 cart.    s( 1) = (  1.0000000  0.0000000  0.0000000 )
                  (  0.0000000  1.0000000  0.0000000 )
                  (  0.0000000  0.0000000  1.0000000 )


      isym =  2     180 deg rotation - cart. axis [0,1,0]        

 cryst.   s( 2) = (    -1          0          0      )    f =(  0.5000000 )
                  (     0          1          0      )       (  0.5000000 )
                  (     0          0         -1      )       ( -0.0000000 )

 cart.    s( 2) = ( -1.0000000  0.0000000  0.0000000 )    f =(  0.5000000 )
                  (  0.0000000  1.0000000  0.0000000 )       (  0.7809911 )
                  (  0.0000000  0.0000000 -1.0000000 )       ( -0.0000000 )


      isym =  3     inv. 180 deg rotation - cart. axis [0,0,1]   

 cryst.   s( 3) = (     1          0          0      )    f =(  0.5000000 )
                  (     0          1          0      )       (  0.5000000 )
                  (     0          0         -1      )       ( -0.0000000 )

 cart.    s( 3) = (  1.0000000  0.0000000  0.0000000 )    f =(  0.5000000 )
                  (  0.0000000  1.0000000  0.0000000 )       (  0.7809911 )
                  (  0.0000000  0.0000000 -1.0000000 )       ( -0.0000000 )


      isym =  4     inv. 180 deg rotation - cart. axis [1,0,0]   

 cryst.   s( 4) = (    -1          0          0      )
                  (     0          1          0      )
                  (     0          0          1      )

 cart.    s( 4) = ( -1.0000000  0.0000000  0.0000000 )
                  (  0.0000000  1.0000000  0.0000000 )
                  (  0.0000000  0.0000000  1.0000000 )


   Cartesian axes

     site n.     atom                  positions (alat units)
         1           Fe  tau(   1) = (   0.5000000   0.8309839   1.1293240  )
         2           Fe  tau(   2) = (   0.5000000   0.7446001   2.7146502  )
         3           Fe  tau(   3) = (   0.0000000   0.0499928   1.9903038  )
         4           Fe  tau(   4) = (   0.0000000   1.5255912   0.4049776  )
         5           O   tau(   5) = (   0.0000000   1.0801701   0.8868291  )
         6           O   tau(   6) = (   0.5000000   0.2991790   2.2327987  )
         7           F   tau(   7) = (   0.0000000   1.0967427   2.3946201  )
         8           F   tau(   8) = (   0.5000000   1.2551293   1.6489167  )
         9           F   tau(   9) = (   0.5000000   1.2403045   0.0624737  )
        10           F   tau(  10) = (   0.5000000   0.3157516   0.7250077  )
        11           F   tau(  11) = (   0.0000000   0.4593134   3.0571541  )
        12           F   tau(  12) = (   0.0000000   0.4741382   1.4707111  )

   Crystallographic axes

     site n.     atom                  positions (cryst. coord.)
         1           Fe  tau(   1) = (  0.5000000  0.5320060  0.3620060  )
         2           Fe  tau(   2) = (  0.5000000  0.4767020  0.8701840  )
         3           Fe  tau(   3) = (  0.0000000  0.0320060  0.6379940  )
         4           Fe  tau(   4) = (  0.0000000  0.9767020  0.1298160  )
         5           O   tau(   5) = (  0.0000000  0.6915380  0.2842740  )
         6           O   tau(   6) = (  0.5000000  0.1915380  0.7157260  )
         7           F   tau(   7) = (  0.0000000  0.7021480  0.7675980  )
         8           F   tau(   8) = (  0.5000000  0.8035490  0.5285620  )
         9           F   tau(   9) = (  0.5000000  0.7940580  0.0200260  )
        10           F   tau(  10) = (  0.5000000  0.2021480  0.2324020  )
        11           F   tau(  11) = (  0.0000000  0.2940580  0.9799740  )
        12           F   tau(  12) = (  0.0000000  0.3035490  0.4714380  )

     number of k points=     8
                       cart. coord. in units 2pi/alat
        k(    1) = (   0.0000000   0.0000000   0.0000000), wk =   0.0740741
        k(    2) = (   0.0000000   0.0000000   0.1068504), wk =   0.1481481
        k(    3) = (   0.0000000   0.2134040   0.0000000), wk =   0.1481481
        k(    4) = (   0.0000000   0.2134040   0.1068504), wk =   0.2962963
        k(    5) = (   0.3333333   0.0000000   0.0000000), wk =   0.1481481
        k(    6) = (   0.3333333   0.0000000   0.1068504), wk =   0.2962963
        k(    7) = (   0.3333333   0.2134040   0.0000000), wk =   0.2962963
        k(    8) = (   0.3333333   0.2134040   0.1068504), wk =   0.5925926

                       cryst. coord.
        k(    1) = (   0.0000000   0.0000000   0.0000000), wk =   0.0740741
        k(    2) = (   0.0000000   0.0000000   0.3333333), wk =   0.1481481
        k(    3) = (   0.0000000   0.3333333   0.0000000), wk =   0.1481481
        k(    4) = (   0.0000000   0.3333333   0.3333333), wk =   0.2962963
        k(    5) = (   0.3333333   0.0000000   0.0000000), wk =   0.1481481
        k(    6) = (   0.3333333   0.0000000   0.3333333), wk =   0.2962963
        k(    7) = (   0.3333333   0.3333333   0.0000000), wk =   0.2962963
        k(    8) = (   0.3333333   0.3333333   0.3333333), wk =   0.5925926

     Dense  grid:    61907 G-vectors     FFT dimensions: (  30,  48,  96)

     Smooth grid:    21813 G-vectors     FFT dimensions: (  24,  32,  64)

     Dynamical RAM for                 wfc:       0.67 MB

     Dynamical RAM for     wfc (w. buffer):       3.33 MB

     Dynamical RAM for           str. fact:       0.71 MB

     Dynamical RAM for           local pot:       0.00 MB

     Dynamical RAM for          nlocal pot:       1.42 MB

     Dynamical RAM for                qrad:       3.73 MB

     Dynamical RAM for          rho,v,vnew:       1.50 MB

     Dynamical RAM for               rhoin:       0.50 MB

     Dynamical RAM for            rho*nmix:       3.78 MB

     Dynamical RAM for           G-vectors:       0.93 MB

     Dynamical RAM for          h,s,v(r/c):       0.19 MB

     Dynamical RAM for          <psi|beta>:       0.13 MB

     Dynamical RAM for                 psi:       1.33 MB

     Dynamical RAM for                hpsi:       1.33 MB

     Dynamical RAM for                spsi:       1.33 MB

     Dynamical RAM for      wfcinit/wfcrot:       1.91 MB

     Dynamical RAM for           addusdens:      22.79 MB

     Estimated static dynamical RAM per process >      14.38 MB

     Estimated max dynamical RAM per process >      40.95 MB

     Estimated total dynamical RAM >     312.48 MB

     Check: negative core charge=   -0.000164

     Initial potential from superposition of free atoms

     starting charge     117.9982, renormalised to     118.0000
     Starting wfcs are   84 randomized atomic wfcs
     Checking if some PAW data can be deallocated... 
       PAW data deallocated on    6 nodes for type:  1
       PAW data deallocated on    7 nodes for type:  2

     total cpu time spent up to now is       11.5 secs

     Self-consistent Calculation

     iteration #  1     ecut=    30.00 Ry     beta= 0.70
     Davidson diagonalization with overlap

---- Real-time Memory Report at c_bands before calling an iterative solver
           159 MiB given to the printing process from OS
             0 MiB allocation reported by mallinfo(arena+hblkhd)
        165394 MiB available memory on the node where the printing process lives
------------------
     ethr =  1.00E-02,  avg # of iterations =  2.0

     total cpu time spent up to now is       14.3 secs

     total energy              =   -1689.87556854 Ry
     estimated scf accuracy    <       1.70035578 Ry

     iteration #  2     ecut=    30.00 Ry     beta= 0.70
     Davidson diagonalization with overlap

---- Real-time Memory Report at c_bands before calling an iterative solver
           184 MiB given to the printing process from OS
             0 MiB allocation reported by mallinfo(arena+hblkhd)
        165340 MiB available memory on the node where the printing process lives
------------------
     ethr =  1.44E-03,  avg # of iterations =  5.5

     negative rho (up, down):  1.006E-05 0.000E+00

     total cpu time spent up to now is       21.6 secs

     total energy              =   -1687.48475491 Ry
     estimated scf accuracy    <      31.78205592 Ry

     iteration #  3     ecut=    30.00 Ry     beta= 0.70
     Davidson diagonalization with overlap

---- Real-time Memory Report at c_bands before calling an iterative solver
           189 MiB given to the printing process from OS
             0 MiB allocation reported by mallinfo(arena+hblkhd)
        165293 MiB available memory on the node where the printing process lives
------------------
     ethr =  1.44E-03,  avg # of iterations =  6.4

     negative rho (up, down):  3.159E-04 0.000E+00

     total cpu time spent up to now is       31.8 secs

     total energy              =   -1688.79976532 Ry
     estimated scf accuracy    <      56.32192753 Ry

     iteration #  4     ecut=    30.00 Ry     beta= 0.70
     Davidson diagonalization with overlap

---- Real-time Memory Report at c_bands before calling an iterative solver
           192 MiB given to the printing process from OS
             0 MiB allocation reported by mallinfo(arena+hblkhd)
        165292 MiB available memory on the node where the printing process lives
------------------
     ethr =  1.44E-03,  avg # of iterations =  5.9

     total cpu time spent up to now is       36.1 secs

     total energy              =   -1690.38417155 Ry
     estimated scf accuracy    <      21.09088303 Ry

     iteration #  5     ecut=    30.00 Ry     beta= 0.70
     Davidson diagonalization with overlap

---- Real-time Memory Report at c_bands before calling an iterative solver
           196 MiB given to the printing process from OS
             0 MiB allocation reported by mallinfo(arena+hblkhd)
        165283 MiB available memory on the node where the printing process lives
------------------
     ethr =  1.44E-03,  avg # of iterations =  2.0

     total cpu time spent up to now is       42.4 secs

     total energy              =   -1690.74768676 Ry
     estimated scf accuracy    <       1.22824187 Ry

     iteration #  6     ecut=    30.00 Ry     beta= 0.70
     Davidson diagonalization with overlap

---- Real-time Memory Report at c_bands before calling an iterative solver
           196 MiB given to the printing process from OS
             0 MiB allocation reported by mallinfo(arena+hblkhd)
        165284 MiB available memory on the node where the printing process lives
------------------
     ethr =  1.04E-03,  avg # of iterations =  1.0

     total cpu time spent up to now is       48.0 secs

     total energy              =   -1690.75868572 Ry
     estimated scf accuracy    <       0.64976957 Ry

     iteration #  7     ecut=    30.00 Ry     beta= 0.70
     Davidson diagonalization with overlap

---- Real-time Memory Report at c_bands before calling an iterative solver
           196 MiB given to the printing process from OS
             0 MiB allocation reported by mallinfo(arena+hblkhd)
        165287 MiB available memory on the node where the printing process lives
------------------
     ethr =  5.51E-04,  avg # of iterations =  4.0

     total cpu time spent up to now is       52.1 secs

     total energy              =   -1690.76735961 Ry
     estimated scf accuracy    <       0.14451611 Ry

     iteration #  8     ecut=    30.00 Ry     beta= 0.70
     Davidson diagonalization with overlap

---- Real-time Memory Report at c_bands before calling an iterative solver
           196 MiB given to the printing process from OS
             0 MiB allocation reported by mallinfo(arena+hblkhd)
        165287 MiB available memory on the node where the printing process lives
------------------
     ethr =  1.22E-04,  avg # of iterations =  6.5

     total cpu time spent up to now is       55.8 secs

     total energy              =   -1690.77612022 Ry
     estimated scf accuracy    <       0.03067843 Ry

     iteration #  9     ecut=    30.00 Ry     beta= 0.70
     Davidson diagonalization with overlap

---- Real-time Memory Report at c_bands before calling an iterative solver
           201 MiB given to the printing process from OS
             0 MiB allocation reported by mallinfo(arena+hblkhd)
        165282 MiB available memory on the node where the printing process lives
------------------
     ethr =  2.60E-05,  avg # of iterations =  4.5

     total cpu time spent up to now is       58.4 secs

     total energy              =   -1690.77868237 Ry
     estimated scf accuracy    <       0.00741138 Ry

     iteration # 10     ecut=    30.00 Ry     beta= 0.70
     Davidson diagonalization with overlap

---- Real-time Memory Report at c_bands before calling an iterative solver
           201 MiB given to the printing process from OS
             0 MiB allocation reported by mallinfo(arena+hblkhd)
        165282 MiB available memory on the node where the printing process lives
------------------
     ethr =  6.28E-06,  avg # of iterations =  6.8

     total cpu time spent up to now is       61.5 secs

     total energy              =   -1690.77872648 Ry
     estimated scf accuracy    <       0.00135878 Ry

     iteration # 11     ecut=    30.00 Ry     beta= 0.70
     Davidson diagonalization with overlap

---- Real-time Memory Report at c_bands before calling an iterative solver
           201 MiB given to the printing process from OS
             0 MiB allocation reported by mallinfo(arena+hblkhd)
        165281 MiB available memory on the node where the printing process lives
------------------
     ethr =  1.15E-06,  avg # of iterations =  4.2

     negative rho (up, down):  1.188E-07 0.000E+00

     total cpu time spent up to now is       71.3 secs

     total energy              =   -1690.77919648 Ry
     estimated scf accuracy    <       0.00097281 Ry

     iteration # 12     ecut=    30.00 Ry     beta= 0.70
     Davidson diagonalization with overlap

---- Real-time Memory Report at c_bands before calling an iterative solver
           201 MiB given to the printing process from OS
             0 MiB allocation reported by mallinfo(arena+hblkhd)
        165286 MiB available memory on the node where the printing process lives
------------------
     ethr =  8.24E-07,  avg # of iterations =  1.6

     negative rho (up, down):  1.527E-07 0.000E+00

     total cpu time spent up to now is       76.1 secs

     total energy              =   -1690.77927608 Ry
     estimated scf accuracy    <       0.00003380 Ry

     iteration # 13     ecut=    30.00 Ry     beta= 0.70
     Davidson diagonalization with overlap

---- Real-time Memory Report at c_bands before calling an iterative solver
           201 MiB given to the printing process from OS
             0 MiB allocation reported by mallinfo(arena+hblkhd)
        165284 MiB available memory on the node where the printing process lives
------------------
     ethr =  2.86E-08,  avg # of iterations =  5.0

     negative rho (up, down):  7.674E-08 0.000E+00

     total cpu time spent up to now is       79.6 secs

     total energy              =   -1690.77929400 Ry
     estimated scf accuracy    <       0.00003225 Ry

     iteration # 14     ecut=    30.00 Ry     beta= 0.70
     Davidson diagonalization with overlap

---- Real-time Memory Report at c_bands before calling an iterative solver
           201 MiB given to the printing process from OS
             0 MiB allocation reported by mallinfo(arena+hblkhd)
        165284 MiB available memory on the node where the printing process lives
------------------
     ethr =  2.73E-08,  avg # of iterations =  1.1

     negative rho (up, down):  8.001E-08 0.000E+00

     total cpu time spent up to now is       82.4 secs

     total energy              =   -1690.77929399 Ry
     estimated scf accuracy    <       0.00006788 Ry

     iteration # 15     ecut=    30.00 Ry     beta= 0.70
     Davidson diagonalization with overlap

---- Real-time Memory Report at c_bands before calling an iterative solver
           201 MiB given to the printing process from OS
             0 MiB allocation reported by mallinfo(arena+hblkhd)
        165278 MiB available memory on the node where the printing process lives
------------------
     ethr =  2.73E-08,  avg # of iterations =  1.8

     negative rho (up, down):  6.687E-08 0.000E+00

     total cpu time spent up to now is       85.7 secs

     total energy              =   -1690.77929470 Ry
     estimated scf accuracy    <       0.00001355 Ry

     iteration # 16     ecut=    30.00 Ry     beta= 0.70
     Davidson diagonalization with overlap

---- Real-time Memory Report at c_bands before calling an iterative solver
           201 MiB given to the printing process from OS
             0 MiB allocation reported by mallinfo(arena+hblkhd)
        165275 MiB available memory on the node where the printing process lives
------------------
     ethr =  1.15E-08,  avg # of iterations =  3.5

     negative rho (up, down):  1.403E-07 0.000E+00

     total cpu time spent up to now is       88.1 secs

     total energy              =   -1690.77929565 Ry
     estimated scf accuracy    <       0.00000546 Ry

     iteration # 17     ecut=    30.00 Ry     beta= 0.70
     Davidson diagonalization with overlap

---- Real-time Memory Report at c_bands before calling an iterative solver
           201 MiB given to the printing process from OS
             0 MiB allocation reported by mallinfo(arena+hblkhd)
        165286 MiB available memory on the node where the printing process lives
------------------
     ethr =  4.63E-09,  avg # of iterations =  4.5

     negative rho (up, down):  1.143E-07 0.000E+00

     total cpu time spent up to now is       91.3 secs

     total energy              =   -1690.77929641 Ry
     estimated scf accuracy    <       0.00000189 Ry

     iteration # 18     ecut=    30.00 Ry     beta= 0.70
     Davidson diagonalization with overlap

---- Real-time Memory Report at c_bands before calling an iterative solver
           201 MiB given to the printing process from OS
             0 MiB allocation reported by mallinfo(arena+hblkhd)
        165277 MiB available memory on the node where the printing process lives
------------------
     ethr =  1.60E-09,  avg # of iterations =  2.4

     negative rho (up, down):  8.078E-08 0.000E+00

     total cpu time spent up to now is       96.1 secs

     End of self-consistent calculation

          k = 0.0000 0.0000 0.0000 (  2711 PWs)   bands (ev):

   -80.8657 -80.8638 -80.5791 -80.5769 -46.5310 -46.5194 -46.5189 -46.5133
   -46.2386 -46.2322 -46.1875 -46.1777 -46.1434 -46.1371 -46.0898 -46.0876
   -17.3542 -16.9744 -16.8947 -16.8589 -16.3025 -16.0125 -11.6777 -11.6340
    -0.6665   0.1100   0.4078   0.7401   0.8157   1.0612   1.0789   1.1125
     1.2527   1.6941   1.7226   1.8103   1.8731   1.8929   2.1137   2.1764
     2.2060   2.6949   2.8667   3.0340   3.3411   3.5017   4.0157   4.0536
     5.4380   5.4471   5.5393   5.5686   5.7631   5.8449   5.9220   6.0113
     6.0800   6.0901   6.5358   6.6621   6.7665   7.3681   7.4683   7.4867

     occupation numbers 
     1.0000   1.0000   1.0000   1.0000   1.0000   1.0000   1.0000   1.0000
     1.0000   1.0000   1.0000   1.0000   1.0000   1.0000   1.0000   1.0000
     1.0000   1.0000   1.0000   1.0000   1.0000   1.0000   1.0000   1.0000
     1.0000   1.0000   1.0000   1.0000   1.0000   1.0000   1.0000   1.0000
     1.0000   1.0000   1.0000   1.0000   1.0000   1.0000   1.0000   1.0000
     1.0000   1.0000   1.0000   1.0000   1.0000   1.0000   1.0000   1.0000
     1.0000   1.0000   1.0000   1.0000   1.0000   1.0000   1.0000   1.0000
     1.0000   1.0000   1.0000   0.0000   0.0000   0.0000   0.0000   0.0000

          k = 0.0000 0.0000 0.1069 (  2714 PWs)   bands (ev):

   -80.8663 -80.8637 -80.5795 -80.5772 -46.5331 -46.5298 -46.5199 -46.5147
   -46.2350 -46.2281 -46.1847 -46.1723 -46.1545 -46.1463 -46.0902 -46.0787
   -17.3518 -16.9772 -16.9124 -16.8384 -16.3038 -16.0122 -11.6728 -11.6374
    -0.5951  -0.0644   0.4593   0.7781   0.8905   1.0164   1.0622   1.1102
     1.2517   1.5272   1.8090   1.8622   1.8891   1.9078   2.1067   2.1122
     2.4558   2.6753   2.8644   2.8978   3.3225   3.4872   3.9758   4.0575
     5.4419   5.4560   5.5526   5.5729   5.8180   5.8380   5.9101   6.0020
     6.0116   6.1168   6.5473   6.6723   6.8712   7.1766   7.4668   7.4902

     occupation numbers 
     1.0000   1.0000   1.0000   1.0000   1.0000   1.0000   1.0000   1.0000
     1.0000   1.0000   1.0000   1.0000   1.0000   1.0000   1.0000   1.0000
     1.0000   1.0000   1.0000   1.0000   1.0000   1.0000   1.0000   1.0000
     1.0000   1.0000   1.0000   1.0000   1.0000   1.0000   1.0000   1.0000
     1.0000   1.0000   1.0000   1.0000   1.0000   1.0000   1.0000   1.0000
     1.0000   1.0000   1.0000   1.0000   1.0000   1.0000   1.0000   1.0000
     1.0000   1.0000   1.0000   1.0000   1.0000   1.0000   1.0000   1.0000
     1.0000   1.0000   1.0000   0.0000   0.0000   0.0000   0.0000   0.0000

          k = 0.0000 0.2134 0.0000 (  2724 PWs)   bands (ev):

   -80.8694 -80.8630 -80.5809 -80.5780 -46.5325 -46.5314 -46.5265 -46.5254
   -46.2377 -46.2314 -46.1840 -46.1826 -46.1529 -46.1525 -46.0964 -46.0869
   -17.2640 -17.0800 -16.8689 -16.8556 -16.2360 -16.0896 -11.6794 -11.6587
    -0.3734  -0.1100   0.3409   0.6637   0.9957   1.0869   1.1418   1.2098
     1.3248   1.8077   1.8119   1.8235   1.8639   1.9496   2.1092   2.1666
     2.4265   2.5790   2.7735   2.9689   3.0060   3.1849   3.7709   3.8200
     5.4430   5.4518   5.5604   5.5721   5.8637   5.8900   5.9602   6.0122
     6.0642   6.1441   6.5356   6.5992   7.1603   7.2522   7.4703   7.4823

     occupation numbers 
     1.0000   1.0000   1.0000   1.0000   1.0000   1.0000   1.0000   1.0000
     1.0000   1.0000   1.0000   1.0000   1.0000   1.0000   1.0000   1.0000
     1.0000   1.0000   1.0000   1.0000   1.0000   1.0000   1.0000   1.0000
     1.0000   1.0000   1.0000   1.0000   1.0000   1.0000   1.0000   1.0000
     1.0000   1.0000   1.0000   1.0000   1.0000   1.0000   1.0000   1.0000
     1.0000   1.0000   1.0000   1.0000   1.0000   1.0000   1.0000   1.0000
     1.0000   1.0000   1.0000   1.0000   1.0000   1.0000   1.0000   1.0000
     1.0000   1.0000   1.0000   0.0000   0.0000   0.0000   0.0000   0.0000

          k = 0.0000 0.2134 0.1069 (  2729 PWs)   bands (ev):

   -80.8680 -80.8653 -80.5810 -80.5788 -46.5326 -46.5323 -46.5275 -46.5253
   -46.2405 -46.2321 -46.1904 -46.1831 -46.1545 -46.1525 -46.0951 -46.0901
   -17.2637 -17.0811 -16.8779 -16.8464 -16.2365 -16.0895 -11.6781 -11.6601
    -0.3850  -0.1142   0.4203   0.6168   1.0307   1.0652   1.1410   1.2109
     1.3210   1.6007   1.7844   1.8236   1.9762   2.0251   2.0908   2.1839
     2.4079   2.5813   2.7842   2.9692   3.0556   3.1900   3.7501   3.8002
     5.4397   5.4492   5.5557   5.5689   5.8624   5.9000   5.9848   6.0070
     6.0702   6.1104   6.5587   6.5944   7.1323   7.2274   7.4669   7.4840

     occupation numbers 
     1.0000   1.0000   1.0000   1.0000   1.0000   1.0000   1.0000   1.0000
     1.0000   1.0000   1.0000   1.0000   1.0000   1.0000   1.0000   1.0000
     1.0000   1.0000   1.0000   1.0000   1.0000   1.0000   1.0000   1.0000
     1.0000   1.0000   1.0000   1.0000   1.0000   1.0000   1.0000   1.0000
     1.0000   1.0000   1.0000   1.0000   1.0000   1.0000   1.0000   1.0000
     1.0000   1.0000   1.0000   1.0000   1.0000   1.0000   1.0000   1.0000
     1.0000   1.0000   1.0000   1.0000   1.0000   1.0000   1.0000   1.0000
     1.0000   1.0000   1.0000   0.0000   0.0000   0.0000   0.0000   0.0000

          k = 0.3333 0.0000 0.0000 (  2732 PWs)   bands (ev):

   -80.8665 -80.8664 -80.5822 -80.5779 -46.5929 -46.5810 -46.5225 -46.5123
   -46.2263 -46.2228 -46.2198 -46.1914 -46.1782 -46.1700 -46.0851 -46.0770
   -17.1526 -16.9726 -16.8227 -16.8131 -16.1665 -16.0197 -11.4915 -11.4816
     0.0434   0.3467   0.4437   0.5385   0.5789   0.8681   1.0794   1.0989
     1.2480   1.3326   1.3796   1.5587   1.6001   1.8179   1.9410   2.2746
     2.4890   2.5278   2.6459   2.8183   2.8479   3.0937   3.5666   3.7047
     5.5912   5.6679   5.7395   5.7917   5.8302   5.8426   5.8689   6.0249
     6.0746   6.0856   6.6836   6.7204   6.8685   7.0492   7.2152   7.4579

     occupation numbers 
     1.0000   1.0000   1.0000   1.0000   1.0000   1.0000   1.0000   1.0000
     1.0000   1.0000   1.0000   1.0000   1.0000   1.0000   1.0000   1.0000
     1.0000   1.0000   1.0000   1.0000   1.0000   1.0000   1.0000   1.0000
     1.0000   1.0000   1.0000   1.0000   1.0000   1.0000   1.0000   1.0000
     1.0000   1.0000   1.0000   1.0000   1.0000   1.0000   1.0000   1.0000
     1.0000   1.0000   1.0000   1.0000   1.0000   1.0000   1.0000   1.0000
     1.0000   1.0000   1.0000   1.0000   1.0000   1.0000   1.0000   1.0000
     1.0000   1.0000   1.0000   0.0000   0.0000   0.0000   0.0000   0.0000

          k = 0.3333 0.0000 0.1069 (  2734 PWs)   bands (ev):

   -80.8667 -80.8665 -80.5817 -80.5786 -46.5894 -46.5773 -46.5220 -46.5176
   -46.2321 -46.2232 -46.2131 -46.1918 -46.1787 -46.1737 -46.0847 -46.0821
   -17.1527 -16.9724 -16.8309 -16.8049 -16.1666 -16.0198 -11.4896 -11.4835
     0.0629   0.2511   0.4886   0.5899   0.6360   0.8137   1.0088   1.1406
     1.2668   1.3330   1.3527   1.4214   1.7288   1.8852   1.9709   2.2061
     2.4670   2.5178   2.6335   2.8114   2.8872   3.0986   3.5255   3.7399
     5.5952   5.6626   5.7068   5.7764   5.8341   5.8467   5.9333   6.0196
     6.0578   6.0691   6.6875   6.7141   6.9144   7.0497   7.1699   7.5234

     occupation numbers 
     1.0000   1.0000   1.0000   1.0000   1.0000   1.0000   1.0000   1.0000
     1.0000   1.0000   1.0000   1.0000   1.0000   1.0000   1.0000   1.0000
     1.0000   1.0000   1.0000   1.0000   1.0000   1.0000   1.0000   1.0000
     1.0000   1.0000   1.0000   1.0000   1.0000   1.0000   1.0000   1.0000
     1.0000   1.0000   1.0000   1.0000   1.0000   1.0000   1.0000   1.0000
     1.0000   1.0000   1.0000   1.0000   1.0000   1.0000   1.0000   1.0000
     1.0000   1.0000   1.0000   1.0000   1.0000   1.0000   1.0000   1.0000
     1.0000   1.0000   1.0000   0.0000   0.0000   0.0000   0.0000   0.0000

          k = 0.3333 0.2134 0.0000 (  2744 PWs)   bands (ev):

   -80.8679 -80.8677 -80.5813 -80.5811 -46.5815 -46.5810 -46.5286 -46.5262
   -46.2367 -46.2319 -46.2045 -46.1950 -46.1848 -46.1828 -46.0954 -46.0882
   -17.1071 -17.0169 -16.8179 -16.8131 -16.1313 -16.0574 -11.4913 -11.4862
    -0.0178   0.0746   0.3751   0.5593   0.5728   0.8202   0.8926   0.9816
     1.2540   1.2924   1.5377   1.6772   1.7036   1.7695   2.1676   2.3651
     2.5187   2.5594   2.6573   2.7857   3.0094   3.1802   3.6015   3.6869
     5.5729   5.6877   5.6958   5.7776   5.8331   5.8709   5.9380   5.9696
     6.0469   6.0695   6.6291   6.6414   6.9999   7.0084   7.2569   7.4601

     occupation numbers 
     1.0000   1.0000   1.0000   1.0000   1.0000   1.0000   1.0000   1.0000
     1.0000   1.0000   1.0000   1.0000   1.0000   1.0000   1.0000   1.0000
     1.0000   1.0000   1.0000   1.0000   1.0000   1.0000   1.0000   1.0000
     1.0000   1.0000   1.0000   1.0000   1.0000   1.0000   1.0000   1.0000
     1.0000   1.0000   1.0000   1.0000   1.0000   1.0000   1.0000   1.0000
     1.0000   1.0000   1.0000   1.0000   1.0000   1.0000   1.0000   1.0000
     1.0000   1.0000   1.0000   1.0000   1.0000   1.0000   1.0000   1.0000
     1.0000   1.0000   1.0000   0.0000   0.0000   0.0000   0.0000   0.0000

          k = 0.3333 0.2134 0.1069 (  2747 PWs)   bands (ev):

   -80.8686 -80.8679 -80.5827 -80.5804 -46.5806 -46.5773 -46.5318 -46.5296
   -46.2403 -46.2339 -46.2022 -46.1946 -46.1880 -46.1853 -46.0979 -46.0934
   -17.1070 -17.0172 -16.8219 -16.8091 -16.1313 -16.0575 -11.4901 -11.4869
    -0.0220   0.0864   0.4015   0.5151   0.5688   0.7671   0.9579   1.0083
     1.1997   1.2876   1.5419   1.6177   1.7894   1.8588   2.1132   2.3164
     2.5341   2.5548   2.6559   2.7703   3.0243   3.1840   3.5814   3.7108
     5.5624   5.6369   5.7592   5.7819   5.8407   5.8896   5.9240   5.9697
     6.0052   6.0900   6.6250   6.6502   6.9109   7.0756   7.3047   7.5114

     occupation numbers 
     1.0000   1.0000   1.0000   1.0000   1.0000   1.0000   1.0000   1.0000
     1.0000   1.0000   1.0000   1.0000   1.0000   1.0000   1.0000   1.0000
     1.0000   1.0000   1.0000   1.0000   1.0000   1.0000   1.0000   1.0000
     1.0000   1.0000   1.0000   1.0000   1.0000   1.0000   1.0000   1.0000
     1.0000   1.0000   1.0000   1.0000   1.0000   1.0000   1.0000   1.0000
     1.0000   1.0000   1.0000   1.0000   1.0000   1.0000   1.0000   1.0000
     1.0000   1.0000   1.0000   1.0000   1.0000   1.0000   1.0000   1.0000
     1.0000   1.0000   1.0000   0.0000   0.0000   0.0000   0.0000   0.0000

     highest occupied, lowest unoccupied level (ev):     6.6875    6.5944

!    total energy              =   -1690.77929663 Ry
     estimated scf accuracy    <       0.00000007 Ry

     The total energy is the sum of the following terms:
     one-electron contribution =    -848.50324803 Ry
     hartree contribution      =     477.57507660 Ry
     xc contribution           =    -208.99438229 Ry
     ewald contribution        =    -787.51815608 Ry
     one-center paw contrib.   =    -323.33858682 Ry
      -> PAW hartree energy AE =     413.03854646 Ry
      -> PAW hartree energy PS =    -411.46623980 Ry
      -> PAW xc energy AE      =    -221.98052056 Ry
      -> PAW xc energy PS      =      68.26811021 Ry
      -> total E_H with PAW    =     479.14738326 Ry
      -> total E_XC with PAW   =    -362.70679265 Ry

     convergence has been achieved in  18 iterations

     Writing all to output data dir calculations_bands/myprefix.save/
 
     init_run     :     28.92s CPU     11.24s WALL (       1 calls)
     electrons    :    189.79s CPU     85.04s WALL (       1 calls)

     Called by init_run:
     wfcinit      :     19.75s CPU      8.41s WALL (       1 calls)
     wfcinit:atom :      0.02s CPU      0.01s WALL (       4 calls)
     wfcinit:wfcr :     19.69s CPU      8.38s WALL (       4 calls)
     potinit      :      3.78s CPU      1.07s WALL (       1 calls)
     hinit0       :      3.27s CPU      0.89s WALL (       1 calls)

     Called by electrons:
     c_bands      :    136.23s CPU     60.48s WALL (      18 calls)
     sum_band     :     28.12s CPU     13.25s WALL (      18 calls)
     v_of_rho     :      3.38s CPU      1.61s WALL (      19 calls)
     v_h          :      0.51s CPU      0.23s WALL (      19 calls)
     v_xc         :      2.87s CPU      1.37s WALL (      19 calls)
     newd         :      5.48s CPU      2.30s WALL (      19 calls)
     PAW_pot      :     16.08s CPU      6.51s WALL (      19 calls)
     mix_rho      :      1.12s CPU      0.53s WALL (      18 calls)

     Called by c_bands:
     init_us_2    :      0.24s CPU      0.14s WALL (     148 calls)
     init_us_2:cp :      0.24s CPU      0.14s WALL (     148 calls)
     cegterg      :    125.73s CPU     54.99s WALL (      72 calls)

     Called by sum_band:
     sum_band:wei :      0.02s CPU      0.01s WALL (      18 calls)
     sum_band:loo :     20.49s CPU      9.10s WALL (      18 calls)
     sum_band:buf :      0.10s CPU      0.06s WALL (      72 calls)
     sum_band:ini :      0.11s CPU      0.06s WALL (      72 calls)
     sum_band:cal :      0.69s CPU      0.30s WALL (      72 calls)
     sum_band:bec :      0.22s CPU      0.12s WALL (      72 calls)
     addusdens    :      4.43s CPU      2.64s WALL (      18 calls)
     addusd:skk   :      0.36s CPU      0.24s WALL (      54 calls)
     addusd:dgemm :      0.28s CPU      0.25s WALL (      54 calls)
     addusd:qvan2 :      3.38s CPU      1.87s WALL (      54 calls)

     Called by *egterg:
     cdiaghg      :     18.80s CPU      7.99s WALL (     365 calls)
     cegterg:over :      7.76s CPU      3.32s WALL (     293 calls)
     cegterg:upda :      2.65s CPU      1.18s WALL (     293 calls)
     cegterg:last :      1.94s CPU      0.80s WALL (     140 calls)
     cdiaghg:chol :      1.99s CPU      0.82s WALL (     365 calls)
     cdiaghg:inve :      0.21s CPU      0.09s WALL (     365 calls)
     cdiaghg:para :      6.19s CPU      2.71s WALL (     730 calls)
     h_psi        :    108.05s CPU     47.20s WALL (     369 calls)
     s_psi        :      0.49s CPU      0.20s WALL (     369 calls)
     g_psi        :      0.07s CPU      0.03s WALL (     293 calls)

     Called by h_psi:
     h_psi:calbec :      2.91s CPU      1.25s WALL (     369 calls)
     vloc_psi     :    104.06s CPU     45.43s WALL (     369 calls)
     add_vuspsi   :      0.95s CPU      0.45s WALL (     369 calls)

     General routines
     calbec       :      3.59s CPU      1.54s WALL (     441 calls)
     fft          :      5.27s CPU      2.12s WALL (     245 calls)
     ffts         :      1.15s CPU      0.37s WALL (      37 calls)
     fftw         :    114.66s CPU     49.63s WALL (   26950 calls)
     interpolate  :      1.29s CPU      0.42s WALL (      19 calls)
 
     Parallel routines

     PAW routines
     PAW_pot      :     16.08s CPU      6.51s WALL (      19 calls)
     PAW_symme    :      0.90s CPU      0.27s WALL (      37 calls)
 
     PWSCF        :   3m39.70s CPU   1m37.19s WALL

 
   This run was terminated on:  22:54:16   4Jun2023            

=------------------------------------------------------------------------------=
   JOB DONE.
=------------------------------------------------------------------------------=
