
     Program PWSCF v.7.0 starts on  6Jun2023 at  5:29:17 

     This program is part of the open-source Quantum ESPRESSO suite
     for quantum simulation of materials; please cite
         "P. Giannozzi et al., J. Phys.:Condens. Matter 21 395502 (2009);
         "P. Giannozzi et al., J. Phys.:Condens. Matter 29 465901 (2017);
         "P. Giannozzi et al., J. Chem. Phys. 152 154105 (2020);
          URL http://www.quantum-espresso.org", 
     in publications or presentations arising from this work. More details at
     http://www.quantum-espresso.org/quote

     Parallel version (MPI & OpenMP), running on      32 processor cores
     Number of MPI processes:                 8
     Threads/MPI process:                     4

     MPI processes distributed on     1 nodes
     K-points division:     npool     =       2
     R & G space division:  proc/nbgrp/npool/nimage =       4
     131854 MiB available memory on the printing compute node when the environment starts
 
     Reading input from espresso_13647.pwi
Warning: card &CELL ignored
Warning: card / ignored

     Current dimensions of program PWSCF are:
     Max number of different atomic species (ntypx) = 10
     Max number of k-points (npk) =  40000
     Max angular momentum in pseudopotentials (lmaxx) =  4
     file K.pbe-spn-kjpaw_psl.1.0.0.UPF: wavefunction(s)  3S renormalized
     Message from routine setup:
     using ibrav=0 with symmetry is DISCOURAGED, use correct ibrav instead

     Subspace diagonalization in iterative solution of the eigenvalue problem:
     one sub-group per band group will be used
     scalapack distributed-memory algorithm (size of sub-group:  2*  2 procs)

 
     Parallelization info
     --------------------
     sticks:   dense  smooth     PW     G-vecs:    dense   smooth      PW
     Min         288     144     44                11224     3974     625
     Max         289     145     45                11227     3979     626
     Sum        1153     577    177                44899    15905    2503
 
     Using Slab Decomposition
 


     bravais-lattice index     =            0
     lattice parameter (alat)  =       7.7803  a.u.
     unit-cell volume          =     716.0761 (a.u.)^3
     number of atoms/cell      =            6
     number of atomic types    =            3
     number of electrons       =        48.00
     number of Kohn-Sham states=           64
     kinetic-energy cutoff     =      30.0000  Ry
     charge density cutoff     =     240.0000  Ry
     scf convergence threshold =      1.0E-06
     mixing beta               =       0.7000
     number of iterations used =            8  plain     mixing
     Exchange-correlation=  SLA  PW   PBX  PBC
                           (   1   4   3   4   0   0   0)

     celldm(1)=   7.780250  celldm(2)=   0.000000  celldm(3)=   0.000000
     celldm(4)=   0.000000  celldm(5)=   0.000000  celldm(6)=   0.000000

     crystal axes: (cart. coord. in units of alat)
               a(1) = (   1.000000   0.000000   0.000000 )  
               a(2) = (   0.000000   1.000000   0.000000 )  
               a(3) = (   0.000000   0.000000   1.520472 )  

     reciprocal axes: (cart. coord. in units 2 pi/alat)
               b(1) = (  1.000000  0.000000  0.000000 )  
               b(2) = (  0.000000  1.000000  0.000000 )  
               b(3) = (  0.000000  0.000000  0.657690 )  


     PseudoPot. # 1 for K  read from file:
     /home/pragov/projects/rrg-bengioy-ad/pragov/crystal_structure_design/SSSP/K.pbe-spn-kjpaw_psl.1.0.0.UPF
     MD5 check sum: 7d58810084cac21f60fbe77ea2b688fd
     Pseudo is Projector augmented-wave + core cor, Zval =  9.0
     Generated using "atomic" code by A. Dal Corso  v.5.1
     Shape of augmentation charge: PSQ
     Using radial grid of 1165 points,  6 beta functions with: 
                l(1) =   0
                l(2) =   0
                l(3) =   1
                l(4) =   1
                l(5) =   2
                l(6) =   2
     Q(r) pseudized with 0 coefficients 


     PseudoPot. # 2 for La read from file:
     /home/pragov/projects/rrg-bengioy-ad/pragov/crystal_structure_design/SSSP/La.GGA-PBE-paw-v1.0.UPF
     MD5 check sum: 436541e95c1ad8901025bd0b0ed42ae2
     Pseudo is Projector augmented-wave + core cor, Zval = 11.0
     Generated using ATOMPAW code
     Shape of augmentation charge: BESSEL
     Using radial grid of 1101 points,  8 beta functions with: 
                l(1) =   0
                l(2) =   0
                l(3) =   1
                l(4) =   1
                l(5) =   2
                l(6) =   2
                l(7) =   3
                l(8) =   3
     Q(r) pseudized with 0 coefficients 


     PseudoPot. # 3 for F  read from file:
     /home/pragov/projects/rrg-bengioy-ad/pragov/crystal_structure_design/SSSP/f_pbe_v1.4.uspp.F.UPF
     MD5 check sum: 4c38b6a325caf53ec0e86aed9459de46
     Pseudo is Ultrasoft, Zval =  7.0
     Generated by new atomic code, or converted to UPF format
     Using radial grid of  799 points,  4 beta functions with: 
                l(1) =   0
                l(2) =   0
                l(3) =   1
                l(4) =   1
     Q(r) pseudized with  8 coefficients,  rinner =    0.950   0.950   0.950


     atomic species   valence    mass     pseudopotential
        K              9.00    39.09830     K ( 1.00)
        La            11.00   138.90547     La( 1.00)
        F              7.00    18.99840     F ( 1.00)

     16 Sym. Ops., with inversion, found


                                    s                        frac. trans.

      isym =  1     identity                                     

 cryst.   s( 1) = (     1          0          0      )
                  (     0          1          0      )
                  (     0          0          1      )

 cart.    s( 1) = (  1.0000000  0.0000000  0.0000000 )
                  (  0.0000000  1.0000000  0.0000000 )
                  (  0.0000000  0.0000000  1.0000000 )


      isym =  2     180 deg rotation - cart. axis [0,0,1]        

 cryst.   s( 2) = (    -1          0          0      )
                  (     0         -1          0      )
                  (     0          0          1      )

 cart.    s( 2) = ( -1.0000000  0.0000000  0.0000000 )
                  (  0.0000000 -1.0000000  0.0000000 )
                  (  0.0000000  0.0000000  1.0000000 )


      isym =  3     180 deg rotation - cart. axis [0,1,0]        

 cryst.   s( 3) = (    -1          0          0      )
                  (     0          1          0      )
                  (     0          0         -1      )

 cart.    s( 3) = ( -1.0000000  0.0000000  0.0000000 )
                  (  0.0000000  1.0000000  0.0000000 )
                  (  0.0000000  0.0000000 -1.0000000 )


      isym =  4     180 deg rotation - cart. axis [1,0,0]        

 cryst.   s( 4) = (     1          0          0      )
                  (     0         -1          0      )
                  (     0          0         -1      )

 cart.    s( 4) = (  1.0000000  0.0000000  0.0000000 )
                  (  0.0000000 -1.0000000  0.0000000 )
                  (  0.0000000  0.0000000 -1.0000000 )


      isym =  5     180 deg rotation - cart. axis [1,1,0]        

 cryst.   s( 5) = (     0          1          0      )
                  (     1          0          0      )
                  (     0          0         -1      )

 cart.    s( 5) = (  0.0000000  1.0000000  0.0000000 )
                  (  1.0000000  0.0000000  0.0000000 )
                  (  0.0000000  0.0000000 -1.0000000 )


      isym =  6     180 deg rotation - cart. axis [1,-1,0]       

 cryst.   s( 6) = (     0         -1          0      )
                  (    -1          0          0      )
                  (     0          0         -1      )

 cart.    s( 6) = (  0.0000000 -1.0000000  0.0000000 )
                  ( -1.0000000  0.0000000  0.0000000 )
                  (  0.0000000  0.0000000 -1.0000000 )


      isym =  7      90 deg rotation - cart. axis [0,0,-1]       

 cryst.   s( 7) = (     0         -1          0      )
                  (     1          0          0      )
                  (     0          0          1      )

 cart.    s( 7) = (  0.0000000  1.0000000  0.0000000 )
                  ( -1.0000000  0.0000000  0.0000000 )
                  (  0.0000000  0.0000000  1.0000000 )


      isym =  8      90 deg rotation - cart. axis [0,0,1]        

 cryst.   s( 8) = (     0          1          0      )
                  (    -1          0          0      )
                  (     0          0          1      )

 cart.    s( 8) = (  0.0000000 -1.0000000  0.0000000 )
                  (  1.0000000  0.0000000  0.0000000 )
                  (  0.0000000  0.0000000  1.0000000 )


      isym =  9     inversion                                    

 cryst.   s( 9) = (    -1          0          0      )
                  (     0         -1          0      )
                  (     0          0         -1      )

 cart.    s( 9) = ( -1.0000000  0.0000000  0.0000000 )
                  (  0.0000000 -1.0000000  0.0000000 )
                  (  0.0000000  0.0000000 -1.0000000 )


      isym = 10     inv. 180 deg rotation - cart. axis [0,0,1]   

 cryst.   s(10) = (     1          0          0      )
                  (     0          1          0      )
                  (     0          0         -1      )

 cart.    s(10) = (  1.0000000  0.0000000  0.0000000 )
                  (  0.0000000  1.0000000  0.0000000 )
                  (  0.0000000  0.0000000 -1.0000000 )


      isym = 11     inv. 180 deg rotation - cart. axis [0,1,0]   

 cryst.   s(11) = (     1          0          0      )
                  (     0         -1          0      )
                  (     0          0          1      )

 cart.    s(11) = (  1.0000000  0.0000000  0.0000000 )
                  (  0.0000000 -1.0000000  0.0000000 )
                  (  0.0000000  0.0000000  1.0000000 )


      isym = 12     inv. 180 deg rotation - cart. axis [1,0,0]   

 cryst.   s(12) = (    -1          0          0      )
                  (     0          1          0      )
                  (     0          0          1      )

 cart.    s(12) = ( -1.0000000  0.0000000  0.0000000 )
                  (  0.0000000  1.0000000  0.0000000 )
                  (  0.0000000  0.0000000  1.0000000 )


      isym = 13     inv. 180 deg rotation - cart. axis [1,1,0]   

 cryst.   s(13) = (     0         -1          0      )
                  (    -1          0          0      )
                  (     0          0          1      )

 cart.    s(13) = (  0.0000000 -1.0000000  0.0000000 )
                  ( -1.0000000  0.0000000  0.0000000 )
                  (  0.0000000  0.0000000  1.0000000 )


      isym = 14     inv. 180 deg rotation - cart. axis [1,-1,0]  

 cryst.   s(14) = (     0          1          0      )
                  (     1          0          0      )
                  (     0          0          1      )

 cart.    s(14) = (  0.0000000  1.0000000  0.0000000 )
                  (  1.0000000  0.0000000  0.0000000 )
                  (  0.0000000  0.0000000  1.0000000 )


      isym = 15     inv.  90 deg rotation - cart. axis [0,0,-1]  

 cryst.   s(15) = (     0          1          0      )
                  (    -1          0          0      )
                  (     0          0         -1      )

 cart.    s(15) = (  0.0000000 -1.0000000  0.0000000 )
                  (  1.0000000  0.0000000  0.0000000 )
                  (  0.0000000  0.0000000 -1.0000000 )


      isym = 16     inv.  90 deg rotation - cart. axis [0,0,1]   

 cryst.   s(16) = (     0         -1          0      )
                  (     1          0          0      )
                  (     0          0         -1      )

 cart.    s(16) = (  0.0000000  1.0000000  0.0000000 )
                  ( -1.0000000  0.0000000  0.0000000 )
                  (  0.0000000  0.0000000 -1.0000000 )


   Cartesian axes

     site n.     atom                  positions (alat units)
         1           K   tau(   1) = (   0.0000000   0.0000000   0.0000000  )
         2           La  tau(   2) = (   0.5000000   0.5000000   0.7602362  )
         3           F   tau(   3) = (   0.5000000   0.0000000   1.0857937  )
         4           F   tau(   4) = (   0.0000000   0.5000000   0.4346787  )
         5           F   tau(   5) = (   0.5000000   0.0000000   0.4346787  )
         6           F   tau(   6) = (   0.0000000   0.5000000   1.0857937  )

   Crystallographic axes

     site n.     atom                  positions (cryst. coord.)
         1           K   tau(   1) = (  0.0000000  0.0000000  0.0000000  )
         2           La  tau(   2) = (  0.5000000  0.5000000  0.5000000  )
         3           F   tau(   3) = (  0.5000000  0.0000000  0.7141160  )
         4           F   tau(   4) = (  0.0000000  0.5000000  0.2858840  )
         5           F   tau(   5) = (  0.5000000  0.0000000  0.2858840  )
         6           F   tau(   6) = (  0.0000000  0.5000000  0.7141160  )

     number of k points=     6
                       cart. coord. in units 2pi/alat
        k(    1) = (   0.0000000   0.0000000   0.0000000), wk =   0.0740741
        k(    2) = (   0.0000000   0.0000000   0.2192301), wk =   0.1481481
        k(    3) = (   0.0000000   0.3333333   0.0000000), wk =   0.2962963
        k(    4) = (   0.0000000   0.3333333   0.2192301), wk =   0.5925926
        k(    5) = (   0.3333333   0.3333333   0.0000000), wk =   0.2962963
        k(    6) = (   0.3333333   0.3333333   0.2192301), wk =   0.5925926

                       cryst. coord.
        k(    1) = (   0.0000000   0.0000000   0.0000000), wk =   0.0740741
        k(    2) = (   0.0000000   0.0000000   0.3333333), wk =   0.1481481
        k(    3) = (   0.0000000   0.3333333   0.0000000), wk =   0.2962963
        k(    4) = (   0.0000000   0.3333333   0.3333333), wk =   0.5925926
        k(    5) = (   0.3333333   0.3333333   0.0000000), wk =   0.2962963
        k(    6) = (   0.3333333   0.3333333   0.3333333), wk =   0.5925926

     Dense  grid:    44899 G-vectors     FFT dimensions: (  40,  40,  60)

     Smooth grid:    15905 G-vectors     FFT dimensions: (  27,  27,  45)

     Dynamical RAM for                 wfc:       0.48 MB

     Dynamical RAM for     wfc (w. buffer):       1.94 MB

     Dynamical RAM for           str. fact:       0.51 MB

     Dynamical RAM for           local pot:       0.00 MB

     Dynamical RAM for          nlocal pot:       0.62 MB

     Dynamical RAM for                qrad:       8.96 MB

     Dynamical RAM for          rho,v,vnew:       1.06 MB

     Dynamical RAM for               rhoin:       0.35 MB

     Dynamical RAM for            rho*nmix:       2.74 MB

     Dynamical RAM for           G-vectors:       0.67 MB

     Dynamical RAM for          h,s,v(r/c):       0.19 MB

     Dynamical RAM for          <psi|beta>:       0.08 MB

     Dynamical RAM for                 psi:       0.97 MB

     Dynamical RAM for                hpsi:       0.97 MB

     Dynamical RAM for                spsi:       0.97 MB

     Dynamical RAM for      wfcinit/wfcrot:       1.06 MB

     Dynamical RAM for           addusdens:      47.95 MB

     Estimated static dynamical RAM per process >      15.72 MB

     Estimated max dynamical RAM per process >      66.41 MB

     Estimated total dynamical RAM >     520.35 MB

     Check: negative core charge=   -0.000002

     Initial potential from superposition of free atoms

     starting charge      47.9726, renormalised to      48.0000
     Starting wfcs are   56 randomized atomic wfcs +    8 random wfcs
     Checking if some PAW data can be deallocated... 
       PAW data deallocated on    6 nodes for type:  1
       PAW data deallocated on    6 nodes for type:  2

     total cpu time spent up to now is        2.9 secs

     Self-consistent Calculation

     iteration #  1     ecut=    30.00 Ry     beta= 0.70
     Davidson diagonalization with overlap

---- Real-time Memory Report at c_bands before calling an iterative solver
           197 MiB given to the printing process from OS
             0 MiB allocation reported by mallinfo(arena+hblkhd)
        131342 MiB available memory on the node where the printing process lives
------------------
     ethr =  1.00E-02,  avg # of iterations =  7.8

     negative rho (up, down):  1.447E-05 0.000E+00

     total cpu time spent up to now is        4.3 secs

     total energy              =    -766.29775170 Ry
     estimated scf accuracy    <       0.78234032 Ry

     iteration #  2     ecut=    30.00 Ry     beta= 0.70
     Davidson diagonalization with overlap

---- Real-time Memory Report at c_bands before calling an iterative solver
           232 MiB given to the printing process from OS
             0 MiB allocation reported by mallinfo(arena+hblkhd)
        131248 MiB available memory on the node where the printing process lives
------------------
     ethr =  1.63E-03,  avg # of iterations =  2.7

     total cpu time spent up to now is        5.3 secs

     total energy              =    -766.32694137 Ry
     estimated scf accuracy    <       1.37164003 Ry

     iteration #  3     ecut=    30.00 Ry     beta= 0.70
     Davidson diagonalization with overlap

---- Real-time Memory Report at c_bands before calling an iterative solver
           240 MiB given to the printing process from OS
             0 MiB allocation reported by mallinfo(arena+hblkhd)
        131211 MiB available memory on the node where the printing process lives
------------------
     ethr =  1.63E-03,  avg # of iterations =  2.0

     total cpu time spent up to now is        6.0 secs

     total energy              =    -766.64338265 Ry
     estimated scf accuracy    <       0.03228485 Ry

     iteration #  4     ecut=    30.00 Ry     beta= 0.70
     Davidson diagonalization with overlap

---- Real-time Memory Report at c_bands before calling an iterative solver
           240 MiB given to the printing process from OS
             0 MiB allocation reported by mallinfo(arena+hblkhd)
        131207 MiB available memory on the node where the printing process lives
------------------
     ethr =  6.73E-05,  avg # of iterations =  3.5

     negative rho (up, down):  6.174E-07 0.000E+00

     total cpu time spent up to now is        7.2 secs

     total energy              =    -766.64724392 Ry
     estimated scf accuracy    <       0.00210073 Ry

     iteration #  5     ecut=    30.00 Ry     beta= 0.70
     Davidson diagonalization with overlap

---- Real-time Memory Report at c_bands before calling an iterative solver
           240 MiB given to the printing process from OS
             0 MiB allocation reported by mallinfo(arena+hblkhd)
        131206 MiB available memory on the node where the printing process lives
------------------
     ethr =  4.38E-06,  avg # of iterations =  8.0

     negative rho (up, down):  2.304E-06 0.000E+00

     total cpu time spent up to now is        8.1 secs

     total energy              =    -766.64767429 Ry
     estimated scf accuracy    <       0.00013890 Ry

     iteration #  6     ecut=    30.00 Ry     beta= 0.70
     Davidson diagonalization with overlap

---- Real-time Memory Report at c_bands before calling an iterative solver
           242 MiB given to the printing process from OS
             0 MiB allocation reported by mallinfo(arena+hblkhd)
        131197 MiB available memory on the node where the printing process lives
------------------
     ethr =  2.89E-07,  avg # of iterations =  1.5

     negative rho (up, down):  5.269E-06 0.000E+00

     total cpu time spent up to now is        8.8 secs

     total energy              =    -766.64768462 Ry
     estimated scf accuracy    <       0.00001117 Ry

     iteration #  7     ecut=    30.00 Ry     beta= 0.70
     Davidson diagonalization with overlap

---- Real-time Memory Report at c_bands before calling an iterative solver
           242 MiB given to the printing process from OS
             0 MiB allocation reported by mallinfo(arena+hblkhd)
        131193 MiB available memory on the node where the printing process lives
------------------
     ethr =  2.33E-08,  avg # of iterations =  2.0

     negative rho (up, down):  6.513E-06 0.000E+00

     total cpu time spent up to now is        9.5 secs

     End of self-consistent calculation

          k = 0.0000 0.0000 0.0000 (  1989 PWs)   bands (ev):

   -25.9673 -22.8860 -17.2477 -16.9440 -16.9141 -16.6869  -9.6145  -9.6145
    -9.0140  -6.3842  -6.3842  -6.2915   0.4016   0.4016   0.4546   0.6459
     1.6508   1.6508   2.1166   2.2071   2.2071   2.2129   2.2129   2.2620
     9.0176   9.1455   9.1455   9.1906   9.1926   9.1926   9.3755   9.4434
     9.9975  10.9394  12.3831  12.7238  13.8889  13.8889  14.6805  15.0772
    15.6085  15.9471  15.9471  17.2844  18.4791  18.4791  18.6451  19.8252
    19.8252  20.1607  22.4792  23.6824  25.3027  25.6815  25.6815  26.4747
    26.7984  26.8696  26.8696  26.8709  27.9972  28.4829  28.8549  28.8549

     occupation numbers 
     1.0000   1.0000   1.0000   1.0000   1.0000   1.0000   1.0000   1.0000
     1.0000   1.0000   1.0000   1.0000   1.0000   1.0000   1.0000   1.0000
     1.0000   1.0000   1.0000   1.0000   1.0000   1.0000   1.0000   1.0000
     0.0000   0.0000   0.0000   0.0000   0.0000   0.0000   0.0000   0.0000
     0.0000   0.0000   0.0000   0.0000   0.0000   0.0000   0.0000   0.0000
     0.0000   0.0000   0.0000   0.0000   0.0000   0.0000   0.0000   0.0000
     0.0000   0.0000   0.0000   0.0000   0.0000   0.0000   0.0000   0.0000
     0.0000   0.0000   0.0000   0.0000   0.0000   0.0000   0.0000   0.0000

          k = 0.0000 0.0000 0.2192 (  2000 PWs)   bands (ev):

   -25.9670 -22.8870 -17.2271 -16.9649 -16.9068 -16.6949  -9.6134  -9.6134
    -9.0111  -6.3880  -6.3880  -6.2995   0.4400   0.4400   0.6704   0.7776
     1.5483   1.5483   1.8192   2.0746   2.2101   2.2101   2.2719   2.2719
     9.0152   9.1449   9.1449   9.1833   9.1917   9.1917   9.3643  10.0459
    10.1979  10.9557  11.8938  12.7522  13.8896  13.8896  14.0127  14.3602
    15.5198  15.9249  15.9249  18.5680  18.5680  18.6625  19.3821  19.8351
    19.8351  20.1034  23.2129  23.4873  24.8747  24.8747  25.2860  25.3487
    25.6736  26.5874  26.5874  27.3553  28.4379  29.0041  29.0042  29.4377

     occupation numbers 
     1.0000   1.0000   1.0000   1.0000   1.0000   1.0000   1.0000   1.0000
     1.0000   1.0000   1.0000   1.0000   1.0000   1.0000   1.0000   1.0000
     1.0000   1.0000   1.0000   1.0000   1.0000   1.0000   1.0000   1.0000
     0.0000   0.0000   0.0000   0.0000   0.0000   0.0000   0.0000   0.0000
     0.0000   0.0000   0.0000   0.0000   0.0000   0.0000   0.0000   0.0000
     0.0000   0.0000   0.0000   0.0000   0.0000   0.0000   0.0000   0.0000
     0.0000   0.0000   0.0000   0.0000   0.0000   0.0000   0.0000   0.0000
     0.0000   0.0000   0.0000   0.0000   0.0000   0.0000   0.0000   0.0000

          k = 0.0000 0.3333 0.0000 (  1984 PWs)   bands (ev):

   -25.9192 -22.8762 -17.2084 -17.0854 -16.9422 -16.7948  -9.5825  -9.2984
    -9.2456  -6.4602  -6.3755  -6.3310   0.5555   0.6169   0.9206   1.1867
     1.6173   1.6381   1.6674   1.9330   2.0425   2.0583   2.1675   2.2633
     8.9771   9.0956   9.1105   9.1378   9.1428   9.2258   9.4108   9.9679
    10.8696  11.1514  12.4073  12.6124  13.2047  13.7203  14.6116  14.6556
    14.9279  15.9504  16.6897  17.1738  17.6240  17.7538  18.8005  20.6211
    21.9065  22.0068  23.0501  23.7055  24.0201  24.0642  24.1037  24.7050
    26.0351  26.3337  26.9987  27.0231  27.4098  29.0113  29.0705  29.5765

     occupation numbers 
     1.0000   1.0000   1.0000   1.0000   1.0000   1.0000   1.0000   1.0000
     1.0000   1.0000   1.0000   1.0000   1.0000   1.0000   1.0000   1.0000
     1.0000   1.0000   1.0000   1.0000   1.0000   1.0000   1.0000   1.0000
     0.0000   0.0000   0.0000   0.0000   0.0000   0.0000   0.0000   0.0000
     0.0000   0.0000   0.0000   0.0000   0.0000   0.0000   0.0000   0.0000
     0.0000   0.0000   0.0000   0.0000   0.0000   0.0000   0.0000   0.0000
     0.0000   0.0000   0.0000   0.0000   0.0000   0.0000   0.0000   0.0000
     0.0000   0.0000   0.0000   0.0000   0.0000   0.0000   0.0000   0.0000

          k = 0.0000 0.3333 0.2192 (  1982 PWs)   bands (ev):

   -25.9191 -22.8763 -17.2164 -17.0810 -16.9325 -16.8016  -9.5820  -9.2990
    -9.2444  -6.4550  -6.3760  -6.3346   0.5691   0.6141   1.0693   1.1919
     1.5119   1.7024   1.7133   1.9156   1.9941   2.0324   2.0629   2.2379
     8.9825   9.0952   9.1131   9.1202   9.1497   9.2254   9.3974  10.2959
    10.8719  11.2281  12.1928  12.9488  13.0384  13.7030  14.0820  14.6406
    15.0153  15.7089  15.9437  16.5592  17.3517  19.9067  20.4402  20.5461
    21.6103  21.9800  22.7309  23.3634  23.6263  23.6865  24.3193  24.6351
    25.8065  26.1385  27.4659  27.7472  28.2452  28.4243  28.7426  29.2815

     occupation numbers 
     1.0000   1.0000   1.0000   1.0000   1.0000   1.0000   1.0000   1.0000
     1.0000   1.0000   1.0000   1.0000   1.0000   1.0000   1.0000   1.0000
     1.0000   1.0000   1.0000   1.0000   1.0000   1.0000   1.0000   1.0000
     0.0000   0.0000   0.0000   0.0000   0.0000   0.0000   0.0000   0.0000
     0.0000   0.0000   0.0000   0.0000   0.0000   0.0000   0.0000   0.0000
     0.0000   0.0000   0.0000   0.0000   0.0000   0.0000   0.0000   0.0000
     0.0000   0.0000   0.0000   0.0000   0.0000   0.0000   0.0000   0.0000
     0.0000   0.0000   0.0000   0.0000   0.0000   0.0000   0.0000   0.0000

          k = 0.3333 0.3333 0.0000 (  1990 PWs)   bands (ev):

   -25.8713 -22.8658 -17.2206 -17.2168 -16.9771 -16.8320  -9.5999  -9.2319
    -9.2124  -6.4361  -6.4332  -6.3741   0.6568   0.8813   0.9588   1.2078
     1.3656   1.4760   1.6030   2.0076   2.0792   2.1860   2.3049   2.4666
     9.0073   9.0501   9.0859   9.1126   9.1545   9.1554   9.4721  10.1121
    10.2940  11.9723  12.2854  12.5092  13.1274  13.8549  14.4977  15.1274
    15.5777  15.8144  17.4063  17.4725  17.9998  18.1413  18.5784  19.2681
    19.4024  20.8446  22.9116  23.1825  23.3773  23.6270  25.1422  25.3996
    26.1800  26.5495  27.3782  27.5457  27.9126  28.3838  29.0715  30.0627

     occupation numbers 
     1.0000   1.0000   1.0000   1.0000   1.0000   1.0000   1.0000   1.0000
     1.0000   1.0000   1.0000   1.0000   1.0000   1.0000   1.0000   1.0000
     1.0000   1.0000   1.0000   1.0000   1.0000   1.0000   1.0000   1.0000
     0.0000   0.0000   0.0000   0.0000   0.0000   0.0000   0.0000   0.0000
     0.0000   0.0000   0.0000   0.0000   0.0000   0.0000   0.0000   0.0000
     0.0000   0.0000   0.0000   0.0000   0.0000   0.0000   0.0000   0.0000
     0.0000   0.0000   0.0000   0.0000   0.0000   0.0000   0.0000   0.0000
     0.0000   0.0000   0.0000   0.0000   0.0000   0.0000   0.0000   0.0000

          k = 0.3333 0.3333 0.2192 (  1985 PWs)   bands (ev):

   -25.8712 -22.8658 -17.2160 -17.2050 -16.9827 -16.8458  -9.6015  -9.2244
    -9.2067  -6.4390  -6.4364  -6.3783   0.7963   0.9363   0.9643   1.1593
     1.3849   1.4699   1.5099   1.9986   2.0579   2.1120   2.2992   2.4821
     9.0107   9.0353   9.0514   9.1279   9.1538   9.1572   9.4685  10.2883
    10.4897  11.5097  12.2451  12.6019  13.2441  13.6523  14.5750  15.2083
    15.4291  15.5422  16.5351  17.7994  17.8325  18.0904  19.3026  20.1295
    20.5305  21.4333  22.8715  23.1802  23.2219  23.6255  24.4445  24.4464
    25.9332  26.1856  26.2231  26.6123  27.3527  29.4431  29.7235  30.3049

     occupation numbers 
     1.0000   1.0000   1.0000   1.0000   1.0000   1.0000   1.0000   1.0000
     1.0000   1.0000   1.0000   1.0000   1.0000   1.0000   1.0000   1.0000
     1.0000   1.0000   1.0000   1.0000   1.0000   1.0000   1.0000   1.0000
     0.0000   0.0000   0.0000   0.0000   0.0000   0.0000   0.0000   0.0000
     0.0000   0.0000   0.0000   0.0000   0.0000   0.0000   0.0000   0.0000
     0.0000   0.0000   0.0000   0.0000   0.0000   0.0000   0.0000   0.0000
     0.0000   0.0000   0.0000   0.0000   0.0000   0.0000   0.0000   0.0000
     0.0000   0.0000   0.0000   0.0000   0.0000   0.0000   0.0000   0.0000

     highest occupied, lowest unoccupied level (ev):     2.4821    8.9771

!    total energy              =    -766.64768744 Ry
     estimated scf accuracy    <       0.00000086 Ry

     The total energy is the sum of the following terms:
     one-electron contribution =    -136.17761040 Ry
     hartree contribution      =      95.74380093 Ry
     xc contribution           =     -57.73907002 Ry
     ewald contribution        =    -214.97192357 Ry
     one-center paw contrib.   =    -453.50288438 Ry
      -> PAW hartree energy AE =      37.83544592 Ry
      -> PAW hartree energy PS =     -37.62478236 Ry
      -> PAW xc energy AE      =     -66.23765649 Ry
      -> PAW xc energy PS      =      10.60871791 Ry
      -> total E_H with PAW    =      95.95446449 Ry
      -> total E_XC with PAW   =    -113.36800861 Ry

     convergence has been achieved in   7 iterations

     Writing all to output data dir calculations_bands/myprefix.save/
 
     init_run     :      5.77s CPU      2.27s WALL (       1 calls)
     electrons    :     24.04s CPU      6.71s WALL (       1 calls)

     Called by init_run:
     wfcinit      :      0.35s CPU      0.13s WALL (       1 calls)
     wfcinit:atom :      0.00s CPU      0.00s WALL (       3 calls)
     wfcinit:wfcr :      0.34s CPU      0.13s WALL (       3 calls)
     potinit      :      1.85s CPU      0.53s WALL (       1 calls)
     hinit0       :      2.49s CPU      1.11s WALL (       1 calls)

     Called by electrons:
     c_bands      :      9.21s CPU      2.53s WALL (       7 calls)
     sum_band     :      5.20s CPU      1.49s WALL (       7 calls)
     v_of_rho     :      0.24s CPU      0.07s WALL (       8 calls)
     v_h          :      0.02s CPU      0.00s WALL (       8 calls)
     v_xc         :      0.22s CPU      0.06s WALL (       8 calls)
     newd         :      3.81s CPU      1.11s WALL (       8 calls)
     PAW_pot      :      7.13s CPU      2.02s WALL (       8 calls)
     mix_rho      :      0.06s CPU      0.02s WALL (       7 calls)

     Called by c_bands:
     init_us_2    :      0.04s CPU      0.01s WALL (      45 calls)
     init_us_2:cp :      0.03s CPU      0.01s WALL (      45 calls)
     cegterg      :      5.89s CPU      1.62s WALL (      21 calls)

     Called by sum_band:
     sum_band:wei :      0.01s CPU      0.00s WALL (       7 calls)
     sum_band:loo :      0.82s CPU      0.23s WALL (       7 calls)
     sum_band:buf :      0.01s CPU      0.00s WALL (      21 calls)
     sum_band:ini :      0.02s CPU      0.01s WALL (      21 calls)
     sum_band:cal :      0.04s CPU      0.01s WALL (      21 calls)
     sum_band:bec :      0.01s CPU      0.00s WALL (      21 calls)
     addusdens    :      1.97s CPU      0.59s WALL (       7 calls)
     addusd:skk   :      0.00s CPU      0.00s WALL (      21 calls)
     addusd:dgemm :      0.11s CPU      0.07s WALL (      21 calls)
     addusd:qvan2 :      1.05s CPU      0.31s WALL (      21 calls)

     Called by *egterg:
     cdiaghg      :      1.49s CPU      0.41s WALL (     105 calls)
     cegterg:over :      0.23s CPU      0.06s WALL (      84 calls)
     cegterg:upda :      0.13s CPU      0.04s WALL (      84 calls)
     cegterg:last :      0.18s CPU      0.05s WALL (      44 calls)
     cdiaghg:chol :      0.10s CPU      0.03s WALL (     105 calls)
     cdiaghg:inve :      0.03s CPU      0.01s WALL (     105 calls)
     cdiaghg:para :      0.24s CPU      0.07s WALL (     210 calls)
     h_psi        :      4.01s CPU      1.14s WALL (     108 calls)
     s_psi        :      0.04s CPU      0.01s WALL (     108 calls)
     g_psi        :      0.01s CPU      0.00s WALL (      84 calls)

     Called by h_psi:
     h_psi:calbec :      0.12s CPU      0.04s WALL (     108 calls)
     vloc_psi     :      3.80s CPU      1.07s WALL (     108 calls)
     add_vuspsi   :      0.07s CPU      0.02s WALL (     108 calls)

     General routines
     calbec       :      0.16s CPU      0.05s WALL (     129 calls)
     fft          :      1.17s CPU      0.41s WALL (     102 calls)
     ffts         :      0.33s CPU      0.09s WALL (      15 calls)
     fftw         :      3.97s CPU      1.12s WALL (    8110 calls)
     interpolate  :      0.34s CPU      0.09s WALL (       8 calls)
 
     Parallel routines

     PAW routines
     PAW_pot      :      7.13s CPU      2.02s WALL (       8 calls)
     PAW_symme    :      0.13s CPU      0.04s WALL (      15 calls)
 
     PWSCF        :     31.73s CPU      9.89s WALL

 
   This run was terminated on:   5:29:27   6Jun2023            

=------------------------------------------------------------------------------=
   JOB DONE.
=------------------------------------------------------------------------------=
