
     Program PWSCF v.7.0 starts on 23Jun2023 at  5:22:51 

     This program is part of the open-source Quantum ESPRESSO suite
     for quantum simulation of materials; please cite
         "P. Giannozzi et al., J. Phys.:Condens. Matter 21 395502 (2009);
         "P. Giannozzi et al., J. Phys.:Condens. Matter 29 465901 (2017);
         "P. Giannozzi et al., J. Chem. Phys. 152 154105 (2020);
          URL http://www.quantum-espresso.org", 
     in publications or presentations arising from this work. More details at
     http://www.quantum-espresso.org/quote

     Parallel version (MPI & OpenMP), running on      32 processor cores
     Number of MPI processes:                 8
     Threads/MPI process:                     4

     MPI processes distributed on     1 nodes
     K-points division:     npool     =       2
     R & G space division:  proc/nbgrp/npool/nimage =       4
     102347 MiB available memory on the printing compute node when the environment starts
 
     Reading input from espresso_2249.pwi
Warning: card &CELL ignored
Warning: card / ignored

     Current dimensions of program PWSCF are:
     Max number of different atomic species (ntypx) = 10
     Max number of k-points (npk) =  40000
     Max angular momentum in pseudopotentials (lmaxx) =  4
     file K.pbe-spn-kjpaw_psl.1.0.0.UPF: wavefunction(s)  3S renormalized
     file O.pbe-n-kjpaw_psl.0.1.UPF: wavefunction(s)  2P renormalized

     Subspace diagonalization in iterative solution of the eigenvalue problem:
     one sub-group per band group will be used
     scalapack distributed-memory algorithm (size of sub-group:  2*  2 procs)

 
     Parallelization info
     --------------------
     sticks:   dense  smooth     PW     G-vecs:    dense   smooth      PW
     Min         616     306     85                32331    11430    1671
     Max         617     307     87                32334    11433    1672
     Sum        2467    1227    345               129331    45725    6685
 
     Using Slab Decomposition
 


     bravais-lattice index     =            0
     lattice parameter (alat)  =      11.1317  a.u.
     unit-cell volume          =    2059.0341 (a.u.)^3
     number of atoms/cell      =           20
     number of atomic types    =            5
     number of electrons       =       176.00
     number of Kohn-Sham states=           90
     kinetic-energy cutoff     =      30.0000  Ry
     charge density cutoff     =     240.0000  Ry
     scf convergence threshold =      1.0E-06
     mixing beta               =       0.7000
     number of iterations used =            8  plain     mixing
     Exchange-correlation= SLA  PW   PBX  PBC
                           (   1   4   3   4   0   0   0)

     celldm(1)=  11.131668  celldm(2)=   0.000000  celldm(3)=   0.000000
     celldm(4)=   0.000000  celldm(5)=   0.000000  celldm(6)=   0.000000

     crystal axes: (cart. coord. in units of alat)
               a(1) = (   1.000000   0.000000   0.000000 )  
               a(2) = (   0.000370   1.038996   0.000000 )  
               a(3) = (  -0.012043  -0.000566   1.436709 )  

     reciprocal axes: (cart. coord. in units 2 pi/alat)
               b(1) = (  1.000000 -0.000356  0.008382 )  
               b(2) = (  0.000000  0.962468  0.000379 )  
               b(3) = (  0.000000  0.000000  0.696035 )  


     PseudoPot. # 1 for K  read from file:
     /home/pragov/projects/rrg-bengioy-ad/pragov/crystal_structure_design/SSSP/K.pbe-spn-kjpaw_psl.1.0.0.UPF
     MD5 check sum: 7d58810084cac21f60fbe77ea2b688fd
     Pseudo is Projector augmented-wave + core cor, Zval =  9.0
     Generated using "atomic" code by A. Dal Corso  v.5.1
     Shape of augmentation charge: PSQ
     Using radial grid of 1165 points,  6 beta functions with: 
                l(1) =   0
                l(2) =   0
                l(3) =   1
                l(4) =   1
                l(5) =   2
                l(6) =   2
     Q(r) pseudized with 0 coefficients 


     PseudoPot. # 2 for La read from file:
     /home/pragov/projects/rrg-bengioy-ad/pragov/crystal_structure_design/SSSP/La.GGA-PBE-paw-v1.0.UPF
     MD5 check sum: 436541e95c1ad8901025bd0b0ed42ae2
     Pseudo is Projector augmented-wave + core cor, Zval = 11.0
     Generated using ATOMPAW code
     Shape of augmentation charge: BESSEL
     Using radial grid of 1101 points,  8 beta functions with: 
                l(1) =   0
                l(2) =   0
                l(3) =   1
                l(4) =   1
                l(5) =   2
                l(6) =   2
                l(7) =   3
                l(8) =   3
     Q(r) pseudized with 0 coefficients 


     PseudoPot. # 3 for Eu read from file:
     /home/pragov/projects/rrg-bengioy-ad/pragov/crystal_structure_design/SSSP/Eu.GGA-PBE-paw-v1.0.UPF
     MD5 check sum: acec5fd9176fb57ec8e299eae1ecaf48
     Pseudo is Projector augmented-wave + core cor, Zval = 17.0
     Generated using ATOMPAW code
     Shape of augmentation charge: BESSEL
     Using radial grid of 1109 points,  8 beta functions with: 
                l(1) =   0
                l(2) =   0
                l(3) =   1
                l(4) =   1
                l(5) =   2
                l(6) =   2
                l(7) =   3
                l(8) =   3
     Q(r) pseudized with 0 coefficients 


     PseudoPot. # 4 for Sb read from file:
     /home/pragov/projects/rrg-bengioy-ad/pragov/crystal_structure_design/SSSP/sb_pbe_v1.4.uspp.F.UPF
     MD5 check sum: 9bc50dfb53373b713f5709b9110fe27f
     Pseudo is Ultrasoft + core correction, Zval = 15.0
     Generated by new atomic code, or converted to UPF format
     Using radial grid of  891 points,  6 beta functions with: 
                l(1) =   0
                l(2) =   0
                l(3) =   1
                l(4) =   1
                l(5) =   2
                l(6) =   2
     Q(r) pseudized with  8 coefficients,  rinner =    1.350   1.350   1.350
                                                       1.350   1.350

     PseudoPot. # 5 for O  read from file:
     /home/pragov/projects/rrg-bengioy-ad/pragov/crystal_structure_design/SSSP/O.pbe-n-kjpaw_psl.0.1.UPF
     MD5 check sum: 0234752ac141de4415c5fc33072bef88
     Pseudo is Projector augmented-wave + core cor, Zval =  6.0
     Generated using "atomic" code by A. Dal Corso  v.5.0.99 svn rev. 10869
     Shape of augmentation charge: BESSEL
     Using radial grid of 1095 points,  4 beta functions with: 
                l(1) =   0
                l(2) =   0
                l(3) =   1
                l(4) =   1
     Q(r) pseudized with 0 coefficients 


     atomic species   valence    mass     pseudopotential
        K              9.00    39.09830     K ( 1.00)
        La            11.00   138.90547     La( 1.00)
        Eu            17.00   151.96400     Eu( 1.00)
        Sb            15.00   121.76000     Sb( 1.00)
        O              6.00    15.99900     O ( 1.00)

     No symmetry found


                                    s                        frac. trans.

      isym =  1     identity                                     

 cryst.   s( 1) = (     1          0          0      )
                  (     0          1          0      )
                  (     0          0          1      )

 cart.    s( 1) = (  1.0000000 -0.0000000  0.0000000 )
                  (  0.0000000  1.0000000  0.0000000 )
                  (  0.0000000  0.0000000  1.0000000 )


   Cartesian axes

     site n.     atom                  positions (alat units)
         1           K   tau(   1) = (   0.5058749   0.5555177   0.3580390  )
         2           K   tau(   2) = (   0.0000354   1.0023844   1.0763498  )
         3           La  tau(   3) = (   0.9860857   0.5402213   1.4360560  )
         4           La  tau(   4) = (   0.4921557   1.0175205   0.7177001  )
         5           Eu  tau(   5) = (   0.9776165   0.0690859   0.3616829  )
         6           Eu  tau(   6) = (   0.4714553   0.4498533   1.0791995  )
         7           Sb  tau(   7) = (   0.4997448   1.0384037   0.0016734  )
         8           Sb  tau(   8) = (   0.9933742   0.5195522   0.7195555  )
         9           O   tau(   9) = (   0.2280200   0.2197783   1.3751840  )
        10           O   tau(  10) = (   0.2799477   0.6854371   0.8084746  )
        11           O   tau(  11) = (   0.7863008   0.8727714   0.0901876  )
        12           O   tau(  12) = (   0.7341508   0.2993075   0.6568914  )
        13           O   tau(  13) = (   0.3398040   0.7399065   1.3490955  )
        14           O   tau(  14) = (   0.1948235   0.2451945   0.7865070  )
        15           O   tau(  15) = (   0.7010604   0.2737918   0.0683142  )
        16           O   tau(  16) = (   0.8456346   0.8178502   0.6307875  )
        17           O   tau(  17) = (   0.3658890   1.0132392   0.3198940  )
        18           O   tau(  18) = (   0.0638722   0.4672926   0.3874240  )
        19           O   tau(  19) = (   0.5579383   0.0514956   1.1055520  )
        20           O   tau(  20) = (   0.8598540   0.5446915   1.0385266  )

   Crystallographic axes

     site n.     atom                  positions (cryst. coord.)
         1           K   tau(   1) = (  0.5086783  0.5348035  0.2492077  )
         2           K   tau(   2) = (  0.0087008  0.9651707  0.7491770  )
         3           La  tau(   3) = (  0.9979309  0.5204901  0.9995452  )
         4           La  tau(   4) = (  0.4978094  0.9796026  0.4995444  )
         5           Eu  tau(   5) = (  0.9806237  0.0666301  0.2517439  )
         6           Eu  tau(   6) = (  0.4803413  0.4333785  0.7511606  )
         7           Sb  tau(   7) = (  0.4993892  0.9994306  0.0011647  )
         8           Sb  tau(   8) = (  0.9992207  0.5003250  0.5008358  )
         9           O   tau(   9) = (  0.2394689  0.2120510  0.9571761  )
        10           O   tau(  10) = (  0.2864806  0.6600177  0.5627266  )
        11           O   tau(  11) = (  0.7867460  0.8400484  0.0627737  )
        12           O   tau(  12) = (  0.7395505  0.2883229  0.4572193  )
        13           O   tau(  13) = (  0.3508491  0.7126477  0.9390176  )
        14           O   tau(  14) = (  0.2013289  0.2362900  0.5474363  )
        15           O   tau(  15) = (  0.7015355  0.2635416  0.0475491  )
        16           O   tau(  16) = (  0.8506309  0.7873935  0.4390501  )
        17           O   tau(  17) = (  0.3682097  0.9753313  0.2226574  )
        18           O   tau(  18) = (  0.0669533  0.4499009  0.2696607  )
        19           O   tau(  19) = (  0.5671870  0.0499821  0.7695029  )
        20           O   tau(  20) = (  0.8683653  0.5246417  0.7228508  )

     number of k points=    14
                       cart. coord. in units 2pi/alat
        k(    1) = (   0.0000000   0.0000000   0.0000000), wk =   0.0740741
        k(    2) = (   0.0000000   0.0000000   0.2320117), wk =   0.1481481
        k(    3) = (   0.0000000   0.3208225   0.0001264), wk =   0.1481481
        k(    4) = (   0.0000000   0.3208225   0.2321381), wk =   0.1481481
        k(    5) = (   0.0000000   0.3208225  -0.2318852), wk =   0.1481481
        k(    6) = (   0.3333333  -0.0001187   0.0027941), wk =   0.1481481
        k(    7) = (   0.3333333  -0.0001187   0.2348058), wk =   0.1481481
        k(    8) = (   0.3333333  -0.0001187  -0.2292175), wk =   0.1481481
        k(    9) = (   0.3333333   0.3207039   0.0029205), wk =   0.1481481
        k(   10) = (   0.3333333   0.3207039   0.2349322), wk =   0.1481481
        k(   11) = (   0.3333333   0.3207039  -0.2290911), wk =   0.1481481
        k(   12) = (   0.3333333  -0.3209412   0.0026677), wk =   0.1481481
        k(   13) = (   0.3333333  -0.3209412   0.2346793), wk =   0.1481481
        k(   14) = (   0.3333333  -0.3209412  -0.2293440), wk =   0.1481481

                       cryst. coord.
        k(    1) = (   0.0000000   0.0000000   0.0000000), wk =   0.0740741
        k(    2) = (   0.0000000   0.0000000   0.3333333), wk =   0.1481481
        k(    3) = (   0.0000000   0.3333333  -0.0000000), wk =   0.1481481
        k(    4) = (   0.0000000   0.3333333   0.3333333), wk =   0.1481481
        k(    5) = (   0.0000000   0.3333333  -0.3333333), wk =   0.1481481
        k(    6) = (   0.3333333  -0.0000000   0.0000000), wk =   0.1481481
        k(    7) = (   0.3333333  -0.0000000   0.3333333), wk =   0.1481481
        k(    8) = (   0.3333333  -0.0000000  -0.3333333), wk =   0.1481481
        k(    9) = (   0.3333333   0.3333333   0.0000000), wk =   0.1481481
        k(   10) = (   0.3333333   0.3333333   0.3333333), wk =   0.1481481
        k(   11) = (   0.3333333   0.3333333  -0.3333333), wk =   0.1481481
        k(   12) = (   0.3333333  -0.3333333   0.0000000), wk =   0.1481481
        k(   13) = (   0.3333333  -0.3333333   0.3333333), wk =   0.1481481
        k(   14) = (   0.3333333  -0.3333333  -0.3333333), wk =   0.1481481

     Dense  grid:   129331 G-vectors     FFT dimensions: (  60,  60,  80)

     Smooth grid:    45725 G-vectors     FFT dimensions: (  40,  45,  60)

     Dynamical RAM for                 wfc:       1.96 MB

     Dynamical RAM for     wfc (w. buffer):      15.69 MB

     Dynamical RAM for           str. fact:       2.47 MB

     Dynamical RAM for           local pot:       0.00 MB

     Dynamical RAM for          nlocal pot:       6.45 MB

     Dynamical RAM for                qrad:      14.93 MB

     Dynamical RAM for          rho,v,vnew:       3.13 MB

     Dynamical RAM for               rhoin:       1.04 MB

     Dynamical RAM for            rho*nmix:       7.89 MB

     Dynamical RAM for           G-vectors:       1.94 MB

     Dynamical RAM for          h,s,v(r/c):       0.37 MB

     Dynamical RAM for          <psi|beta>:       0.41 MB

     Dynamical RAM for                 psi:       3.92 MB

     Dynamical RAM for                hpsi:       3.92 MB

     Dynamical RAM for                spsi:       3.92 MB

     Dynamical RAM for      wfcinit/wfcrot:      10.16 MB

     Dynamical RAM for           addusdens:     140.12 MB

     Estimated static dynamical RAM per process >      51.35 MB

     Estimated max dynamical RAM per process >     199.36 MB

     Estimated total dynamical RAM >       1.53 GB

     Check: negative core charge=   -0.000011

     Initial potential from superposition of free atoms

     starting charge     173.9358, renormalised to     176.0000
     Starting wfcs are  210 randomized atomic wfcs
     Checking if some PAW data can be deallocated... 
       PAW data deallocated on    7 nodes for type:  1
       PAW data deallocated on    6 nodes for type:  2
       PAW data deallocated on    7 nodes for type:  3
       PAW data deallocated on    2 nodes for type:  5

     total cpu time spent up to now is       10.3 secs

     Self-consistent Calculation

     iteration #  1     ecut=    30.00 Ry     beta= 0.70
     Davidson diagonalization with overlap

---- Real-time Memory Report at c_bands before calling an iterative solver
           317 MiB given to the printing process from OS
             0 MiB allocation reported by mallinfo(arena+hblkhd)
        101357 MiB available memory on the node where the printing process lives
------------------
     ethr =  1.00E-02,  avg # of iterations =  1.0

     total cpu time spent up to now is       14.8 secs

     total energy              =   -3239.01099436 Ry
     estimated scf accuracy    <      52.92534430 Ry

     iteration #  2     ecut=    30.00 Ry     beta= 0.70
     Davidson diagonalization with overlap

---- Real-time Memory Report at c_bands before calling an iterative solver
           388 MiB given to the printing process from OS
             0 MiB allocation reported by mallinfo(arena+hblkhd)
        100826 MiB available memory on the node where the printing process lives
------------------
     ethr =  1.00E-02,  avg # of iterations =  7.2

     total cpu time spent up to now is       21.5 secs

     total energy              =   -3257.73675004 Ry
     estimated scf accuracy    <    1279.00012450 Ry

     iteration #  3     ecut=    30.00 Ry     beta= 0.70
     Davidson diagonalization with overlap

---- Real-time Memory Report at c_bands before calling an iterative solver
           396 MiB given to the printing process from OS
             0 MiB allocation reported by mallinfo(arena+hblkhd)
        100720 MiB available memory on the node where the printing process lives
------------------
     ethr =  1.00E-02,  avg # of iterations =  9.8

     total cpu time spent up to now is       27.4 secs

     total energy              =   -3309.96371976 Ry
     estimated scf accuracy    <     152.31838746 Ry

     iteration #  4     ecut=    30.00 Ry     beta= 0.70
     Davidson diagonalization with overlap

---- Real-time Memory Report at c_bands before calling an iterative solver
           404 MiB given to the printing process from OS
             0 MiB allocation reported by mallinfo(arena+hblkhd)
        100692 MiB available memory on the node where the printing process lives
------------------
     ethr =  1.00E-02,  avg # of iterations =  5.3

     total cpu time spent up to now is       31.8 secs

     total energy              =   -3309.91481791 Ry
     estimated scf accuracy    <      99.74375730 Ry

     iteration #  5     ecut=    30.00 Ry     beta= 0.70
     Davidson diagonalization with overlap

---- Real-time Memory Report at c_bands before calling an iterative solver
           414 MiB given to the printing process from OS
             0 MiB allocation reported by mallinfo(arena+hblkhd)
        100680 MiB available memory on the node where the printing process lives
------------------
     ethr =  1.00E-02,  avg # of iterations =  1.0

     total cpu time spent up to now is       35.3 secs

     total energy              =   -3308.01459964 Ry
     estimated scf accuracy    <      90.80343545 Ry

     iteration #  6     ecut=    30.00 Ry     beta= 0.70
     Davidson diagonalization with overlap

---- Real-time Memory Report at c_bands before calling an iterative solver
           415 MiB given to the printing process from OS
             0 MiB allocation reported by mallinfo(arena+hblkhd)
        100673 MiB available memory on the node where the printing process lives
------------------
     ethr =  1.00E-02,  avg # of iterations =  1.1

     negative rho (up, down):  1.484E-05 0.000E+00

     total cpu time spent up to now is       39.2 secs

     total energy              =   -3288.73421060 Ry
     estimated scf accuracy    <      87.10002333 Ry

     iteration #  7     ecut=    30.00 Ry     beta= 0.70
     Davidson diagonalization with overlap

---- Real-time Memory Report at c_bands before calling an iterative solver
           415 MiB given to the printing process from OS
             0 MiB allocation reported by mallinfo(arena+hblkhd)
        100679 MiB available memory on the node where the printing process lives
------------------
     ethr =  1.00E-02,  avg # of iterations =  3.0

     negative rho (up, down):  3.837E-05 0.000E+00

     total cpu time spent up to now is       43.3 secs

     total energy              =   -3302.62475457 Ry
     estimated scf accuracy    <      85.34293429 Ry

     iteration #  8     ecut=    30.00 Ry     beta= 0.70
     Davidson diagonalization with overlap

---- Real-time Memory Report at c_bands before calling an iterative solver
           415 MiB given to the printing process from OS
             0 MiB allocation reported by mallinfo(arena+hblkhd)
        100681 MiB available memory on the node where the printing process lives
------------------
     ethr =  1.00E-02,  avg # of iterations =  1.0

     negative rho (up, down):  1.002E-05 0.000E+00

     total cpu time spent up to now is       46.5 secs

     total energy              =   -3298.95631910 Ry
     estimated scf accuracy    <      78.59247192 Ry

     iteration #  9     ecut=    30.00 Ry     beta= 0.70
     Davidson diagonalization with overlap

---- Real-time Memory Report at c_bands before calling an iterative solver
           415 MiB given to the printing process from OS
             0 MiB allocation reported by mallinfo(arena+hblkhd)
        100682 MiB available memory on the node where the printing process lives
------------------
     ethr =  1.00E-02,  avg # of iterations =  1.4

     total cpu time spent up to now is       50.3 secs

     total energy              =   -3295.89587404 Ry
     estimated scf accuracy    <      40.03399156 Ry

     iteration # 10     ecut=    30.00 Ry     beta= 0.70
     Davidson diagonalization with overlap

---- Real-time Memory Report at c_bands before calling an iterative solver
           415 MiB given to the printing process from OS
             0 MiB allocation reported by mallinfo(arena+hblkhd)
        100685 MiB available memory on the node where the printing process lives
------------------
     ethr =  1.00E-02,  avg # of iterations =  4.0

     negative rho (up, down):  2.513E-04 0.000E+00

     total cpu time spent up to now is       53.6 secs

     total energy              =   -3287.95022208 Ry
     estimated scf accuracy    <      50.42210835 Ry

     iteration # 11     ecut=    30.00 Ry     beta= 0.70
     Davidson diagonalization with overlap

---- Real-time Memory Report at c_bands before calling an iterative solver
           415 MiB given to the printing process from OS
             0 MiB allocation reported by mallinfo(arena+hblkhd)
        100678 MiB available memory on the node where the printing process lives
------------------
     ethr =  1.00E-02,  avg # of iterations =  3.0

     total cpu time spent up to now is       58.1 secs

     total energy              =   -3296.42963038 Ry
     estimated scf accuracy    <      90.78054532 Ry

     iteration # 12     ecut=    30.00 Ry     beta= 0.70
     Davidson diagonalization with overlap

---- Real-time Memory Report at c_bands before calling an iterative solver
           416 MiB given to the printing process from OS
             0 MiB allocation reported by mallinfo(arena+hblkhd)
        100725 MiB available memory on the node where the printing process lives
------------------
     ethr =  1.00E-02,  avg # of iterations =  2.0

     total cpu time spent up to now is       62.8 secs

     total energy              =   -3298.22227465 Ry
     estimated scf accuracy    <      38.79589570 Ry

     iteration # 13     ecut=    30.00 Ry     beta= 0.70
     Davidson diagonalization with overlap

---- Real-time Memory Report at c_bands before calling an iterative solver
           416 MiB given to the printing process from OS
             0 MiB allocation reported by mallinfo(arena+hblkhd)
        100731 MiB available memory on the node where the printing process lives
------------------
     ethr =  1.00E-02,  avg # of iterations =  1.0

     total cpu time spent up to now is       67.1 secs

     total energy              =   -3297.57725112 Ry
     estimated scf accuracy    <      50.10514504 Ry

     iteration # 14     ecut=    30.00 Ry     beta= 0.70
     Davidson diagonalization with overlap

---- Real-time Memory Report at c_bands before calling an iterative solver
           416 MiB given to the printing process from OS
             0 MiB allocation reported by mallinfo(arena+hblkhd)
        100747 MiB available memory on the node where the printing process lives
------------------
     ethr =  1.00E-02,  avg # of iterations =  1.0

     total cpu time spent up to now is       71.0 secs

     total energy              =   -3297.56578654 Ry
     estimated scf accuracy    <      37.60902083 Ry

     iteration # 15     ecut=    30.00 Ry     beta= 0.70
     Davidson diagonalization with overlap

---- Real-time Memory Report at c_bands before calling an iterative solver
           416 MiB given to the printing process from OS
             0 MiB allocation reported by mallinfo(arena+hblkhd)
        100663 MiB available memory on the node where the printing process lives
------------------
     ethr =  1.00E-02,  avg # of iterations =  1.0

     total cpu time spent up to now is       74.8 secs

     total energy              =   -3297.15903150 Ry
     estimated scf accuracy    <      47.37000128 Ry

     iteration # 16     ecut=    30.00 Ry     beta= 0.70
     Davidson diagonalization with overlap

---- Real-time Memory Report at c_bands before calling an iterative solver
           416 MiB given to the printing process from OS
             0 MiB allocation reported by mallinfo(arena+hblkhd)
        100664 MiB available memory on the node where the printing process lives
------------------
     ethr =  1.00E-02,  avg # of iterations =  1.0

     total cpu time spent up to now is       78.7 secs

     total energy              =   -3296.28450828 Ry
     estimated scf accuracy    <      45.63609360 Ry

     iteration # 17     ecut=    30.00 Ry     beta= 0.70
     Davidson diagonalization with overlap

---- Real-time Memory Report at c_bands before calling an iterative solver
           416 MiB given to the printing process from OS
             0 MiB allocation reported by mallinfo(arena+hblkhd)
        100661 MiB available memory on the node where the printing process lives
------------------
     ethr =  1.00E-02,  avg # of iterations =  5.5

     total cpu time spent up to now is       82.7 secs

     total energy              =   -3296.64754891 Ry
     estimated scf accuracy    <       3.87364341 Ry

     iteration # 18     ecut=    30.00 Ry     beta= 0.70
     Davidson diagonalization with overlap

---- Real-time Memory Report at c_bands before calling an iterative solver
           416 MiB given to the printing process from OS
             0 MiB allocation reported by mallinfo(arena+hblkhd)
        100657 MiB available memory on the node where the printing process lives
------------------
     ethr =  2.20E-03,  avg # of iterations =  5.7

     total cpu time spent up to now is       86.9 secs

     total energy              =   -3297.23474898 Ry
     estimated scf accuracy    <      56.81229637 Ry

     iteration # 19     ecut=    30.00 Ry     beta= 0.70
     Davidson diagonalization with overlap

---- Real-time Memory Report at c_bands before calling an iterative solver
           416 MiB given to the printing process from OS
             0 MiB allocation reported by mallinfo(arena+hblkhd)
        100671 MiB available memory on the node where the printing process lives
------------------
     ethr =  2.20E-03,  avg # of iterations =  2.0

     total cpu time spent up to now is       90.9 secs

     total energy              =   -3297.03756134 Ry
     estimated scf accuracy    <      22.02030086 Ry

     iteration # 20     ecut=    30.00 Ry     beta= 0.70
     Davidson diagonalization with overlap

---- Real-time Memory Report at c_bands before calling an iterative solver
           416 MiB given to the printing process from OS
             0 MiB allocation reported by mallinfo(arena+hblkhd)
        100677 MiB available memory on the node where the printing process lives
------------------
     ethr =  2.20E-03,  avg # of iterations =  1.0

     total cpu time spent up to now is       94.5 secs

     total energy              =   -3297.54624066 Ry
     estimated scf accuracy    <      19.98079639 Ry

     iteration # 21     ecut=    30.00 Ry     beta= 0.70
     Davidson diagonalization with overlap

---- Real-time Memory Report at c_bands before calling an iterative solver
           416 MiB given to the printing process from OS
             0 MiB allocation reported by mallinfo(arena+hblkhd)
        100676 MiB available memory on the node where the printing process lives
------------------
     ethr =  2.20E-03,  avg # of iterations =  1.6

     total cpu time spent up to now is       98.1 secs

     total energy              =   -3297.39528728 Ry
     estimated scf accuracy    <      48.47112074 Ry

     iteration # 22     ecut=    30.00 Ry     beta= 0.70
     Davidson diagonalization with overlap

---- Real-time Memory Report at c_bands before calling an iterative solver
           416 MiB given to the printing process from OS
             0 MiB allocation reported by mallinfo(arena+hblkhd)
        100679 MiB available memory on the node where the printing process lives
------------------
     ethr =  2.20E-03,  avg # of iterations =  1.4

     total cpu time spent up to now is      102.1 secs

     total energy              =   -3297.39906238 Ry
     estimated scf accuracy    <      21.17839794 Ry

     iteration # 23     ecut=    30.00 Ry     beta= 0.70
     Davidson diagonalization with overlap

---- Real-time Memory Report at c_bands before calling an iterative solver
           416 MiB given to the printing process from OS
             0 MiB allocation reported by mallinfo(arena+hblkhd)
        100663 MiB available memory on the node where the printing process lives
------------------
     ethr =  2.20E-03,  avg # of iterations =  1.0

     total cpu time spent up to now is      105.8 secs

     total energy              =   -3297.32066097 Ry
     estimated scf accuracy    <      20.89876461 Ry

     iteration # 24     ecut=    30.00 Ry     beta= 0.70
     Davidson diagonalization with overlap

---- Real-time Memory Report at c_bands before calling an iterative solver
           416 MiB given to the printing process from OS
             0 MiB allocation reported by mallinfo(arena+hblkhd)
        100704 MiB available memory on the node where the printing process lives
------------------
     ethr =  2.20E-03,  avg # of iterations =  1.1

     total cpu time spent up to now is      109.5 secs

     total energy              =   -3297.26628986 Ry
     estimated scf accuracy    <      21.55489972 Ry

     iteration # 25     ecut=    30.00 Ry     beta= 0.70
     Davidson diagonalization with overlap

---- Real-time Memory Report at c_bands before calling an iterative solver
           416 MiB given to the printing process from OS
             0 MiB allocation reported by mallinfo(arena+hblkhd)
        100661 MiB available memory on the node where the printing process lives
------------------
     ethr =  2.20E-03,  avg # of iterations =  1.5

     total cpu time spent up to now is      113.1 secs

     total energy              =   -3297.02099488 Ry
     estimated scf accuracy    <      18.48248704 Ry

     iteration # 26     ecut=    30.00 Ry     beta= 0.70
     Davidson diagonalization with overlap

---- Real-time Memory Report at c_bands before calling an iterative solver
           416 MiB given to the printing process from OS
             0 MiB allocation reported by mallinfo(arena+hblkhd)
        100663 MiB available memory on the node where the printing process lives
------------------
     ethr =  2.20E-03,  avg # of iterations =  5.1

     total cpu time spent up to now is      117.3 secs

     total energy              =   -3297.32054377 Ry
     estimated scf accuracy    <       1.03523141 Ry

     iteration # 27     ecut=    30.00 Ry     beta= 0.70
     Davidson diagonalization with overlap

---- Real-time Memory Report at c_bands before calling an iterative solver
           416 MiB given to the printing process from OS
             0 MiB allocation reported by mallinfo(arena+hblkhd)
        100652 MiB available memory on the node where the printing process lives
------------------
     ethr =  5.88E-04,  avg # of iterations =  6.6

     total cpu time spent up to now is      123.0 secs

     total energy              =   -3297.45123602 Ry
     estimated scf accuracy    <      22.02153244 Ry

     iteration # 28     ecut=    30.00 Ry     beta= 0.70
     Davidson diagonalization with overlap

---- Real-time Memory Report at c_bands before calling an iterative solver
           416 MiB given to the printing process from OS
             0 MiB allocation reported by mallinfo(arena+hblkhd)
        100610 MiB available memory on the node where the printing process lives
------------------
     ethr =  5.88E-04,  avg # of iterations =  2.0

     total cpu time spent up to now is      127.4 secs

     total energy              =   -3297.28732410 Ry
     estimated scf accuracy    <      20.06847682 Ry

     iteration # 29     ecut=    30.00 Ry     beta= 0.70
     Davidson diagonalization with overlap

---- Real-time Memory Report at c_bands before calling an iterative solver
           416 MiB given to the printing process from OS
             0 MiB allocation reported by mallinfo(arena+hblkhd)
        100654 MiB available memory on the node where the printing process lives
------------------
     ethr =  5.88E-04,  avg # of iterations =  9.1

     total cpu time spent up to now is      131.7 secs

     total energy              =   -3297.37934261 Ry
     estimated scf accuracy    <       2.20963867 Ry

     iteration # 30     ecut=    30.00 Ry     beta= 0.70
     Davidson diagonalization with overlap

---- Real-time Memory Report at c_bands before calling an iterative solver
           417 MiB given to the printing process from OS
             0 MiB allocation reported by mallinfo(arena+hblkhd)
        100606 MiB available memory on the node where the printing process lives
------------------
     ethr =  5.88E-04,  avg # of iterations =  8.4

     total cpu time spent up to now is      136.1 secs

     total energy              =   -3297.28606991 Ry
     estimated scf accuracy    <       2.88640098 Ry

     iteration # 31     ecut=    30.00 Ry     beta= 0.70
     Davidson diagonalization with overlap

---- Real-time Memory Report at c_bands before calling an iterative solver
           417 MiB given to the printing process from OS
             0 MiB allocation reported by mallinfo(arena+hblkhd)
        100602 MiB available memory on the node where the printing process lives
------------------
     ethr =  5.88E-04,  avg # of iterations = 10.9

     total cpu time spent up to now is      141.4 secs

     total energy              =   -3297.28185785 Ry
     estimated scf accuracy    <       6.74376876 Ry

     iteration # 32     ecut=    30.00 Ry     beta= 0.70
     Davidson diagonalization with overlap

---- Real-time Memory Report at c_bands before calling an iterative solver
           418 MiB given to the printing process from OS
             0 MiB allocation reported by mallinfo(arena+hblkhd)
        100592 MiB available memory on the node where the printing process lives
------------------
     ethr =  5.88E-04,  avg # of iterations =  3.1

     total cpu time spent up to now is      145.3 secs

     total energy              =   -3297.30554086 Ry
     estimated scf accuracy    <      16.59834230 Ry

     iteration # 33     ecut=    30.00 Ry     beta= 0.70
     Davidson diagonalization with overlap

---- Real-time Memory Report at c_bands before calling an iterative solver
           418 MiB given to the printing process from OS
             0 MiB allocation reported by mallinfo(arena+hblkhd)
        100593 MiB available memory on the node where the printing process lives
------------------
     ethr =  5.88E-04,  avg # of iterations =  1.7

     total cpu time spent up to now is      148.9 secs

     total energy              =   -3297.28302323 Ry
     estimated scf accuracy    <       3.72091511 Ry

     iteration # 34     ecut=    30.00 Ry     beta= 0.70
     Davidson diagonalization with overlap

---- Real-time Memory Report at c_bands before calling an iterative solver
           418 MiB given to the printing process from OS
             0 MiB allocation reported by mallinfo(arena+hblkhd)
        100598 MiB available memory on the node where the printing process lives
------------------
     ethr =  5.88E-04,  avg # of iterations =  1.6

     total cpu time spent up to now is      152.7 secs

     total energy              =   -3297.09006289 Ry
     estimated scf accuracy    <       3.82850221 Ry

     iteration # 35     ecut=    30.00 Ry     beta= 0.70
     Davidson diagonalization with overlap

---- Real-time Memory Report at c_bands before calling an iterative solver
           418 MiB given to the printing process from OS
             0 MiB allocation reported by mallinfo(arena+hblkhd)
        100600 MiB available memory on the node where the printing process lives
------------------
     ethr =  5.88E-04,  avg # of iterations =  6.7

     total cpu time spent up to now is      157.9 secs

     total energy              =   -3297.47603941 Ry
     estimated scf accuracy    <       0.70147213 Ry

     iteration # 36     ecut=    30.00 Ry     beta= 0.70
     Davidson diagonalization with overlap

---- Real-time Memory Report at c_bands before calling an iterative solver
           420 MiB given to the printing process from OS
             0 MiB allocation reported by mallinfo(arena+hblkhd)
        100628 MiB available memory on the node where the printing process lives
------------------
     ethr =  3.99E-04,  avg # of iterations =  8.4

     total cpu time spent up to now is      162.9 secs

     total energy              =   -3297.45936834 Ry
     estimated scf accuracy    <       0.48370640 Ry

     iteration # 37     ecut=    30.00 Ry     beta= 0.70
     Davidson diagonalization with overlap

---- Real-time Memory Report at c_bands before calling an iterative solver
           420 MiB given to the printing process from OS
             0 MiB allocation reported by mallinfo(arena+hblkhd)
        100577 MiB available memory on the node where the printing process lives
------------------
     ethr =  2.75E-04,  avg # of iterations =  7.1

     total cpu time spent up to now is      167.4 secs

     total energy              =   -3297.21266485 Ry
     estimated scf accuracy    <       2.61169038 Ry

     iteration # 38     ecut=    30.00 Ry     beta= 0.70
     Davidson diagonalization with overlap

---- Real-time Memory Report at c_bands before calling an iterative solver
           420 MiB given to the printing process from OS
             0 MiB allocation reported by mallinfo(arena+hblkhd)
        100574 MiB available memory on the node where the printing process lives
------------------
     ethr =  2.75E-04,  avg # of iterations =  9.7

     total cpu time spent up to now is      172.3 secs

     total energy              =   -3297.26077297 Ry
     estimated scf accuracy    <       3.21049649 Ry

     iteration # 39     ecut=    30.00 Ry     beta= 0.70
     Davidson diagonalization with overlap

---- Real-time Memory Report at c_bands before calling an iterative solver
           422 MiB given to the printing process from OS
             0 MiB allocation reported by mallinfo(arena+hblkhd)
        100648 MiB available memory on the node where the printing process lives
------------------
     c_bands:  1 eigenvalues not converged
     ethr =  2.75E-04,  avg # of iterations = 14.7

     total cpu time spent up to now is      178.8 secs

     total energy              =   -3297.35463322 Ry
     estimated scf accuracy    <       0.56912924 Ry

     iteration # 40     ecut=    30.00 Ry     beta= 0.70
     Davidson diagonalization with overlap

---- Real-time Memory Report at c_bands before calling an iterative solver
           423 MiB given to the printing process from OS
             0 MiB allocation reported by mallinfo(arena+hblkhd)
        100558 MiB available memory on the node where the printing process lives
------------------
     ethr =  2.75E-04,  avg # of iterations =  2.4

     total cpu time spent up to now is      183.0 secs

     total energy              =   -3297.36693582 Ry
     estimated scf accuracy    <       0.26270299 Ry

     iteration # 41     ecut=    30.00 Ry     beta= 0.70
     Davidson diagonalization with overlap

---- Real-time Memory Report at c_bands before calling an iterative solver
           423 MiB given to the printing process from OS
             0 MiB allocation reported by mallinfo(arena+hblkhd)
        100556 MiB available memory on the node where the printing process lives
------------------
     ethr =  1.49E-04,  avg # of iterations = 11.3

     total cpu time spent up to now is      187.8 secs

     total energy              =   -3297.28817018 Ry
     estimated scf accuracy    <       0.38526760 Ry

     iteration # 42     ecut=    30.00 Ry     beta= 0.70
     Davidson diagonalization with overlap

---- Real-time Memory Report at c_bands before calling an iterative solver
           423 MiB given to the printing process from OS
             0 MiB allocation reported by mallinfo(arena+hblkhd)
        100550 MiB available memory on the node where the printing process lives
------------------
     ethr =  1.49E-04,  avg # of iterations = 10.1

     total cpu time spent up to now is      192.3 secs

     total energy              =   -3297.26835657 Ry
     estimated scf accuracy    <       4.11488509 Ry

     iteration # 43     ecut=    30.00 Ry     beta= 0.70
     Davidson diagonalization with overlap

---- Real-time Memory Report at c_bands before calling an iterative solver
           424 MiB given to the printing process from OS
             0 MiB allocation reported by mallinfo(arena+hblkhd)
        100550 MiB available memory on the node where the printing process lives
------------------
     ethr =  1.49E-04,  avg # of iterations = 11.0

     total cpu time spent up to now is      196.7 secs

     total energy              =   -3297.10681947 Ry
     estimated scf accuracy    <       0.97223308 Ry

     iteration # 44     ecut=    30.00 Ry     beta= 0.70
     Davidson diagonalization with overlap

---- Real-time Memory Report at c_bands before calling an iterative solver
           424 MiB given to the printing process from OS
             0 MiB allocation reported by mallinfo(arena+hblkhd)
        100541 MiB available memory on the node where the printing process lives
------------------
     ethr =  1.49E-04,  avg # of iterations =  9.4

     total cpu time spent up to now is      202.2 secs

     total energy              =   -3297.43931362 Ry
     estimated scf accuracy    <       0.89627055 Ry

     iteration # 45     ecut=    30.00 Ry     beta= 0.70
     Davidson diagonalization with overlap

---- Real-time Memory Report at c_bands before calling an iterative solver
           425 MiB given to the printing process from OS
             0 MiB allocation reported by mallinfo(arena+hblkhd)
        100563 MiB available memory on the node where the printing process lives
------------------
     ethr =  1.49E-04,  avg # of iterations =  7.3

     total cpu time spent up to now is      207.4 secs

     total energy              =   -3297.36780919 Ry
     estimated scf accuracy    <       4.71688314 Ry

     iteration # 46     ecut=    30.00 Ry     beta= 0.70
     Davidson diagonalization with overlap

---- Real-time Memory Report at c_bands before calling an iterative solver
           425 MiB given to the printing process from OS
             0 MiB allocation reported by mallinfo(arena+hblkhd)
        100548 MiB available memory on the node where the printing process lives
------------------
     ethr =  1.49E-04,  avg # of iterations =  8.9

     total cpu time spent up to now is      211.5 secs

     total energy              =   -3297.33104217 Ry
     estimated scf accuracy    <       7.16328546 Ry

     iteration # 47     ecut=    30.00 Ry     beta= 0.70
     Davidson diagonalization with overlap

---- Real-time Memory Report at c_bands before calling an iterative solver
           425 MiB given to the printing process from OS
             0 MiB allocation reported by mallinfo(arena+hblkhd)
        100545 MiB available memory on the node where the printing process lives
------------------
     ethr =  1.49E-04,  avg # of iterations = 13.1

     total cpu time spent up to now is      215.8 secs

     total energy              =   -3297.36766808 Ry
     estimated scf accuracy    <       4.28545305 Ry

     iteration # 48     ecut=    30.00 Ry     beta= 0.70
     Davidson diagonalization with overlap

---- Real-time Memory Report at c_bands before calling an iterative solver
           425 MiB given to the printing process from OS
             0 MiB allocation reported by mallinfo(arena+hblkhd)
        100545 MiB available memory on the node where the printing process lives
------------------
     ethr =  1.49E-04,  avg # of iterations =  8.9

     total cpu time spent up to now is      221.2 secs

     total energy              =   -3297.32135908 Ry
     estimated scf accuracy    <       0.62926112 Ry

     iteration # 49     ecut=    30.00 Ry     beta= 0.70
     Davidson diagonalization with overlap

---- Real-time Memory Report at c_bands before calling an iterative solver
           425 MiB given to the printing process from OS
             0 MiB allocation reported by mallinfo(arena+hblkhd)
        100524 MiB available memory on the node where the printing process lives
------------------
     ethr =  1.49E-04,  avg # of iterations = 12.1

     total cpu time spent up to now is      225.9 secs

     total energy              =   -3297.35399998 Ry
     estimated scf accuracy    <       1.96651579 Ry

     iteration # 50     ecut=    30.00 Ry     beta= 0.70
     Davidson diagonalization with overlap

---- Real-time Memory Report at c_bands before calling an iterative solver
           425 MiB given to the printing process from OS
             0 MiB allocation reported by mallinfo(arena+hblkhd)
        100528 MiB available memory on the node where the printing process lives
------------------
     ethr =  1.49E-04,  avg # of iterations =  9.6

     total cpu time spent up to now is      230.8 secs

     total energy              =   -3297.28590294 Ry
     estimated scf accuracy    <       5.42347497 Ry

     iteration # 51     ecut=    30.00 Ry     beta= 0.70
     Davidson diagonalization with overlap

---- Real-time Memory Report at c_bands before calling an iterative solver
           425 MiB given to the printing process from OS
             0 MiB allocation reported by mallinfo(arena+hblkhd)
        100526 MiB available memory on the node where the printing process lives
------------------
     ethr =  1.49E-04,  avg # of iterations = 10.4

     total cpu time spent up to now is      236.1 secs

     total energy              =   -3297.26506402 Ry
     estimated scf accuracy    <       0.56594425 Ry

     iteration # 52     ecut=    30.00 Ry     beta= 0.70
     Davidson diagonalization with overlap

---- Real-time Memory Report at c_bands before calling an iterative solver
           426 MiB given to the printing process from OS
             0 MiB allocation reported by mallinfo(arena+hblkhd)
        100537 MiB available memory on the node where the printing process lives
------------------
     ethr =  1.49E-04,  avg # of iterations =  7.1

     total cpu time spent up to now is      241.4 secs

     total energy              =   -3297.35051985 Ry
     estimated scf accuracy    <       0.79094149 Ry

     iteration # 53     ecut=    30.00 Ry     beta= 0.70
     Davidson diagonalization with overlap

---- Real-time Memory Report at c_bands before calling an iterative solver
           428 MiB given to the printing process from OS
             0 MiB allocation reported by mallinfo(arena+hblkhd)
        100524 MiB available memory on the node where the printing process lives
------------------
     ethr =  1.49E-04,  avg # of iterations =  7.1

     total cpu time spent up to now is      247.6 secs

     total energy              =   -3297.37049924 Ry
     estimated scf accuracy    <       0.62557719 Ry

     iteration # 54     ecut=    30.00 Ry     beta= 0.70
     Davidson diagonalization with overlap

---- Real-time Memory Report at c_bands before calling an iterative solver
           429 MiB given to the printing process from OS
             0 MiB allocation reported by mallinfo(arena+hblkhd)
        100519 MiB available memory on the node where the printing process lives
------------------
     ethr =  1.49E-04,  avg # of iterations = 13.6

     total cpu time spent up to now is      253.2 secs

     total energy              =   -3297.36475013 Ry
     estimated scf accuracy    <       0.52442740 Ry

     iteration # 55     ecut=    30.00 Ry     beta= 0.70
     Davidson diagonalization with overlap

---- Real-time Memory Report at c_bands before calling an iterative solver
           430 MiB given to the printing process from OS
             0 MiB allocation reported by mallinfo(arena+hblkhd)
        100522 MiB available memory on the node where the printing process lives
------------------
     ethr =  1.49E-04,  avg # of iterations =  3.7

     total cpu time spent up to now is      258.2 secs

     total energy              =   -3297.35311658 Ry
     estimated scf accuracy    <       0.27627560 Ry

     iteration # 56     ecut=    30.00 Ry     beta= 0.70
     Davidson diagonalization with overlap

---- Real-time Memory Report at c_bands before calling an iterative solver
           430 MiB given to the printing process from OS
             0 MiB allocation reported by mallinfo(arena+hblkhd)
        100524 MiB available memory on the node where the printing process lives
------------------
     ethr =  1.49E-04,  avg # of iterations = 10.9

     total cpu time spent up to now is      263.0 secs

     total energy              =   -3297.27243494 Ry
     estimated scf accuracy    <      16.38731396 Ry

     iteration # 57     ecut=    30.00 Ry     beta= 0.70
     Davidson diagonalization with overlap

---- Real-time Memory Report at c_bands before calling an iterative solver
           430 MiB given to the printing process from OS
             0 MiB allocation reported by mallinfo(arena+hblkhd)
        100524 MiB available memory on the node where the printing process lives
------------------
     ethr =  1.49E-04,  avg # of iterations = 11.5

     total cpu time spent up to now is      267.8 secs

     total energy              =   -3297.31770888 Ry
     estimated scf accuracy    <       5.49678893 Ry

     iteration # 58     ecut=    30.00 Ry     beta= 0.70
     Davidson diagonalization with overlap

---- Real-time Memory Report at c_bands before calling an iterative solver
           432 MiB given to the printing process from OS
             0 MiB allocation reported by mallinfo(arena+hblkhd)
        100558 MiB available memory on the node where the printing process lives
------------------
     ethr =  1.49E-04,  avg # of iterations =  2.0

     total cpu time spent up to now is      272.1 secs

     total energy              =   -3297.38159549 Ry
     estimated scf accuracy    <       4.18178454 Ry

     iteration # 59     ecut=    30.00 Ry     beta= 0.70
     Davidson diagonalization with overlap

---- Real-time Memory Report at c_bands before calling an iterative solver
           432 MiB given to the printing process from OS
             0 MiB allocation reported by mallinfo(arena+hblkhd)
        100515 MiB available memory on the node where the printing process lives
------------------
     ethr =  1.49E-04,  avg # of iterations = 10.3

     total cpu time spent up to now is      276.9 secs

     total energy              =   -3297.24770985 Ry
     estimated scf accuracy    <       6.01875435 Ry

     iteration # 60     ecut=    30.00 Ry     beta= 0.70
     Davidson diagonalization with overlap

---- Real-time Memory Report at c_bands before calling an iterative solver
           432 MiB given to the printing process from OS
             0 MiB allocation reported by mallinfo(arena+hblkhd)
        100555 MiB available memory on the node where the printing process lives
------------------
     ethr =  1.49E-04,  avg # of iterations =  9.8

     total cpu time spent up to now is      282.9 secs

     total energy              =   -3297.22044176 Ry
     estimated scf accuracy    <       2.09906185 Ry

     iteration # 61     ecut=    30.00 Ry     beta= 0.70
     Davidson diagonalization with overlap

---- Real-time Memory Report at c_bands before calling an iterative solver
           432 MiB given to the printing process from OS
             0 MiB allocation reported by mallinfo(arena+hblkhd)
        100512 MiB available memory on the node where the printing process lives
------------------
     ethr =  1.49E-04,  avg # of iterations =  7.1

     total cpu time spent up to now is      288.1 secs

     total energy              =   -3297.34502503 Ry
     estimated scf accuracy    <       5.64099048 Ry

     iteration # 62     ecut=    30.00 Ry     beta= 0.70
     Davidson diagonalization with overlap

---- Real-time Memory Report at c_bands before calling an iterative solver
           432 MiB given to the printing process from OS
             0 MiB allocation reported by mallinfo(arena+hblkhd)
        100498 MiB available memory on the node where the printing process lives
------------------
     ethr =  1.49E-04,  avg # of iterations = 10.8

     total cpu time spent up to now is      292.8 secs

     total energy              =   -3297.37011214 Ry
     estimated scf accuracy    <       3.84344914 Ry

     iteration # 63     ecut=    30.00 Ry     beta= 0.70
     Davidson diagonalization with overlap

---- Real-time Memory Report at c_bands before calling an iterative solver
           432 MiB given to the printing process from OS
             0 MiB allocation reported by mallinfo(arena+hblkhd)
        100500 MiB available memory on the node where the printing process lives
------------------
     ethr =  1.49E-04,  avg # of iterations =  4.1

     total cpu time spent up to now is      296.9 secs

     total energy              =   -3297.36024525 Ry
     estimated scf accuracy    <       2.29290562 Ry

     iteration # 64     ecut=    30.00 Ry     beta= 0.70
     Davidson diagonalization with overlap

---- Real-time Memory Report at c_bands before calling an iterative solver
           432 MiB given to the printing process from OS
             0 MiB allocation reported by mallinfo(arena+hblkhd)
        100511 MiB available memory on the node where the printing process lives
------------------
     ethr =  1.49E-04,  avg # of iterations =  1.4

     total cpu time spent up to now is      300.5 secs

     total energy              =   -3297.34297390 Ry
     estimated scf accuracy    <       1.28292077 Ry

     iteration # 65     ecut=    30.00 Ry     beta= 0.70
     Davidson diagonalization with overlap

---- Real-time Memory Report at c_bands before calling an iterative solver
           432 MiB given to the printing process from OS
             0 MiB allocation reported by mallinfo(arena+hblkhd)
        100512 MiB available memory on the node where the printing process lives
------------------
     ethr =  1.49E-04,  avg # of iterations = 12.4

     total cpu time spent up to now is      305.8 secs

     total energy              =   -3297.40026564 Ry
     estimated scf accuracy    <      14.24320389 Ry

     iteration # 66     ecut=    30.00 Ry     beta= 0.70
     Davidson diagonalization with overlap

---- Real-time Memory Report at c_bands before calling an iterative solver
           432 MiB given to the printing process from OS
             0 MiB allocation reported by mallinfo(arena+hblkhd)
        100512 MiB available memory on the node where the printing process lives
------------------
     ethr =  1.49E-04,  avg # of iterations =  8.9

     total cpu time spent up to now is      311.0 secs

     total energy              =   -3297.35399233 Ry
     estimated scf accuracy    <       6.07672546 Ry

     iteration # 67     ecut=    30.00 Ry     beta= 0.70
     Davidson diagonalization with overlap

---- Real-time Memory Report at c_bands before calling an iterative solver
           432 MiB given to the printing process from OS
             0 MiB allocation reported by mallinfo(arena+hblkhd)
        100508 MiB available memory on the node where the printing process lives
------------------
     ethr =  1.49E-04,  avg # of iterations = 15.2

     total cpu time spent up to now is      316.2 secs

     total energy              =   -3297.14331335 Ry
     estimated scf accuracy    <       1.22067813 Ry

     iteration # 68     ecut=    30.00 Ry     beta= 0.70
     Davidson diagonalization with overlap

---- Real-time Memory Report at c_bands before calling an iterative solver
           432 MiB given to the printing process from OS
             0 MiB allocation reported by mallinfo(arena+hblkhd)
        100509 MiB available memory on the node where the printing process lives
------------------
     ethr =  1.49E-04,  avg # of iterations =  8.5

     total cpu time spent up to now is      321.6 secs

     total energy              =   -3297.40284742 Ry
     estimated scf accuracy    <       6.00181437 Ry

     iteration # 69     ecut=    30.00 Ry     beta= 0.70
     Davidson diagonalization with overlap

---- Real-time Memory Report at c_bands before calling an iterative solver
           433 MiB given to the printing process from OS
             0 MiB allocation reported by mallinfo(arena+hblkhd)
        100503 MiB available memory on the node where the printing process lives
------------------
     ethr =  1.49E-04,  avg # of iterations = 10.2

     total cpu time spent up to now is      326.0 secs

     total energy              =   -3297.42979244 Ry
     estimated scf accuracy    <       0.40606201 Ry

     iteration # 70     ecut=    30.00 Ry     beta= 0.70
     Davidson diagonalization with overlap

---- Real-time Memory Report at c_bands before calling an iterative solver
           433 MiB given to the printing process from OS
             0 MiB allocation reported by mallinfo(arena+hblkhd)
        100483 MiB available memory on the node where the printing process lives
------------------
     ethr =  1.49E-04,  avg # of iterations =  8.9

     total cpu time spent up to now is      330.3 secs

     total energy              =   -3297.37334915 Ry
     estimated scf accuracy    <       0.36173252 Ry

     iteration # 71     ecut=    30.00 Ry     beta= 0.70
     Davidson diagonalization with overlap

---- Real-time Memory Report at c_bands before calling an iterative solver
           433 MiB given to the printing process from OS
             0 MiB allocation reported by mallinfo(arena+hblkhd)
        100489 MiB available memory on the node where the printing process lives
------------------
     ethr =  1.49E-04,  avg # of iterations = 14.1

     total cpu time spent up to now is      335.7 secs

     total energy              =   -3297.34970828 Ry
     estimated scf accuracy    <       5.89955502 Ry

     iteration # 72     ecut=    30.00 Ry     beta= 0.70
     Davidson diagonalization with overlap

---- Real-time Memory Report at c_bands before calling an iterative solver
           433 MiB given to the printing process from OS
             0 MiB allocation reported by mallinfo(arena+hblkhd)
        100480 MiB available memory on the node where the printing process lives
------------------
     ethr =  1.49E-04,  avg # of iterations =  6.0

     total cpu time spent up to now is      340.0 secs

     total energy              =   -3297.36274988 Ry
     estimated scf accuracy    <       8.62427802 Ry

     iteration # 73     ecut=    30.00 Ry     beta= 0.70
     Davidson diagonalization with overlap

---- Real-time Memory Report at c_bands before calling an iterative solver
           433 MiB given to the printing process from OS
             0 MiB allocation reported by mallinfo(arena+hblkhd)
        100479 MiB available memory on the node where the printing process lives
------------------
     ethr =  1.49E-04,  avg # of iterations =  6.7

     total cpu time spent up to now is      345.1 secs

     total energy              =   -3297.15902189 Ry
     estimated scf accuracy    <       0.21639879 Ry

     iteration # 74     ecut=    30.00 Ry     beta= 0.70
     Davidson diagonalization with overlap

---- Real-time Memory Report at c_bands before calling an iterative solver
           433 MiB given to the printing process from OS
             0 MiB allocation reported by mallinfo(arena+hblkhd)
        100503 MiB available memory on the node where the printing process lives
------------------
     ethr =  1.23E-04,  avg # of iterations =  8.8

     total cpu time spent up to now is      350.2 secs

     total energy              =   -3297.42187105 Ry
     estimated scf accuracy    <       0.69895067 Ry

     iteration # 75     ecut=    30.00 Ry     beta= 0.70
     Davidson diagonalization with overlap

---- Real-time Memory Report at c_bands before calling an iterative solver
           433 MiB given to the printing process from OS
             0 MiB allocation reported by mallinfo(arena+hblkhd)
        100506 MiB available memory on the node where the printing process lives
------------------
     ethr =  1.23E-04,  avg # of iterations =  8.0

     total cpu time spent up to now is      355.0 secs

     total energy              =   -3297.32685736 Ry
     estimated scf accuracy    <       5.62034630 Ry

     iteration # 76     ecut=    30.00 Ry     beta= 0.70
     Davidson diagonalization with overlap

---- Real-time Memory Report at c_bands before calling an iterative solver
           434 MiB given to the printing process from OS
             0 MiB allocation reported by mallinfo(arena+hblkhd)
        100495 MiB available memory on the node where the printing process lives
------------------
     ethr =  1.23E-04,  avg # of iterations = 14.4

     total cpu time spent up to now is      359.5 secs

     total energy              =   -3297.35957330 Ry
     estimated scf accuracy    <       0.40043874 Ry

     iteration # 77     ecut=    30.00 Ry     beta= 0.70
     Davidson diagonalization with overlap

---- Real-time Memory Report at c_bands before calling an iterative solver
           434 MiB given to the printing process from OS
             0 MiB allocation reported by mallinfo(arena+hblkhd)
        100475 MiB available memory on the node where the printing process lives
------------------
     ethr =  1.23E-04,  avg # of iterations =  8.0

     total cpu time spent up to now is      363.2 secs

     total energy              =   -3297.34442050 Ry
     estimated scf accuracy    <       0.53428565 Ry

     iteration # 78     ecut=    30.00 Ry     beta= 0.70
     Davidson diagonalization with overlap

---- Real-time Memory Report at c_bands before calling an iterative solver
           434 MiB given to the printing process from OS
             0 MiB allocation reported by mallinfo(arena+hblkhd)
        100516 MiB available memory on the node where the printing process lives
------------------
     ethr =  1.23E-04,  avg # of iterations = 14.1

     total cpu time spent up to now is      367.5 secs

     total energy              =   -3297.39588777 Ry
     estimated scf accuracy    <       0.30852363 Ry

     iteration # 79     ecut=    30.00 Ry     beta= 0.70
     Davidson diagonalization with overlap

---- Real-time Memory Report at c_bands before calling an iterative solver
           434 MiB given to the printing process from OS
             0 MiB allocation reported by mallinfo(arena+hblkhd)
        100476 MiB available memory on the node where the printing process lives
------------------
     ethr =  1.23E-04,  avg # of iterations =  1.1

     total cpu time spent up to now is      371.3 secs

     total energy              =   -3297.38488993 Ry
     estimated scf accuracy    <       0.68135397 Ry

     iteration # 80     ecut=    30.00 Ry     beta= 0.70
     Davidson diagonalization with overlap

---- Real-time Memory Report at c_bands before calling an iterative solver
           434 MiB given to the printing process from OS
             0 MiB allocation reported by mallinfo(arena+hblkhd)
        100517 MiB available memory on the node where the printing process lives
------------------
     ethr =  1.23E-04,  avg # of iterations =  8.4

     total cpu time spent up to now is      376.2 secs

     total energy              =   -3297.37582145 Ry
     estimated scf accuracy    <       0.27783446 Ry

     iteration # 81     ecut=    30.00 Ry     beta= 0.70
     Davidson diagonalization with overlap

---- Real-time Memory Report at c_bands before calling an iterative solver
           434 MiB given to the printing process from OS
             0 MiB allocation reported by mallinfo(arena+hblkhd)
        100472 MiB available memory on the node where the printing process lives
------------------
     ethr =  1.23E-04,  avg # of iterations =  1.6

     total cpu time spent up to now is      380.1 secs

     total energy              =   -3297.37559387 Ry
     estimated scf accuracy    <       0.22851360 Ry

     iteration # 82     ecut=    30.00 Ry     beta= 0.70
     Davidson diagonalization with overlap

---- Real-time Memory Report at c_bands before calling an iterative solver
           434 MiB given to the printing process from OS
             0 MiB allocation reported by mallinfo(arena+hblkhd)
        100473 MiB available memory on the node where the printing process lives
------------------
     c_bands:  1 eigenvalues not converged
     ethr =  1.23E-04,  avg # of iterations = 13.4

     total cpu time spent up to now is      385.2 secs

     total energy              =   -3296.99320412 Ry
     estimated scf accuracy    <       1.70609184 Ry

     iteration # 83     ecut=    30.00 Ry     beta= 0.70
     Davidson diagonalization with overlap

---- Real-time Memory Report at c_bands before calling an iterative solver
           434 MiB given to the printing process from OS
             0 MiB allocation reported by mallinfo(arena+hblkhd)
        100475 MiB available memory on the node where the printing process lives
------------------
     ethr =  1.23E-04,  avg # of iterations =  8.9

     total cpu time spent up to now is      390.1 secs

     total energy              =   -3297.49723892 Ry
     estimated scf accuracy    <       0.89269857 Ry

     iteration # 84     ecut=    30.00 Ry     beta= 0.70
     Davidson diagonalization with overlap

---- Real-time Memory Report at c_bands before calling an iterative solver
           434 MiB given to the printing process from OS
             0 MiB allocation reported by mallinfo(arena+hblkhd)
        100474 MiB available memory on the node where the printing process lives
------------------
     ethr =  1.23E-04,  avg # of iterations =  9.9

     total cpu time spent up to now is      394.3 secs

     total energy              =   -3297.45500893 Ry
     estimated scf accuracy    <       0.43925754 Ry

     iteration # 85     ecut=    30.00 Ry     beta= 0.70
     Davidson diagonalization with overlap

---- Real-time Memory Report at c_bands before calling an iterative solver
           434 MiB given to the printing process from OS
             0 MiB allocation reported by mallinfo(arena+hblkhd)
        100462 MiB available memory on the node where the printing process lives
------------------
     ethr =  1.23E-04,  avg # of iterations =  8.5

     total cpu time spent up to now is      398.9 secs

     total energy              =   -3297.43467774 Ry
     estimated scf accuracy    <       0.45534791 Ry

     iteration # 86     ecut=    30.00 Ry     beta= 0.70
     Davidson diagonalization with overlap

---- Real-time Memory Report at c_bands before calling an iterative solver
           434 MiB given to the printing process from OS
             0 MiB allocation reported by mallinfo(arena+hblkhd)
        100516 MiB available memory on the node where the printing process lives
------------------
     ethr =  1.23E-04,  avg # of iterations = 11.1

     total cpu time spent up to now is      402.7 secs

     total energy              =   -3297.40497866 Ry
     estimated scf accuracy    <       0.31134774 Ry

     iteration # 87     ecut=    30.00 Ry     beta= 0.70
     Davidson diagonalization with overlap

---- Real-time Memory Report at c_bands before calling an iterative solver
           434 MiB given to the printing process from OS
             0 MiB allocation reported by mallinfo(arena+hblkhd)
        100465 MiB available memory on the node where the printing process lives
------------------
     ethr =  1.23E-04,  avg # of iterations =  2.0

     total cpu time spent up to now is      406.1 secs

     total energy              =   -3297.27522467 Ry
     estimated scf accuracy    <       0.22915014 Ry

     iteration # 88     ecut=    30.00 Ry     beta= 0.70
     Davidson diagonalization with overlap

---- Real-time Memory Report at c_bands before calling an iterative solver
           434 MiB given to the printing process from OS
             0 MiB allocation reported by mallinfo(arena+hblkhd)
        100512 MiB available memory on the node where the printing process lives
------------------
     ethr =  1.23E-04,  avg # of iterations = 12.6

     total cpu time spent up to now is      411.2 secs

     total energy              =   -3297.32433838 Ry
     estimated scf accuracy    <       5.28014445 Ry

     iteration # 89     ecut=    30.00 Ry     beta= 0.70
     Davidson diagonalization with overlap

---- Real-time Memory Report at c_bands before calling an iterative solver
           434 MiB given to the printing process from OS
             0 MiB allocation reported by mallinfo(arena+hblkhd)
        100471 MiB available memory on the node where the printing process lives
------------------
     ethr =  1.23E-04,  avg # of iterations = 13.1

     total cpu time spent up to now is      416.1 secs

     total energy              =   -3297.35878889 Ry
     estimated scf accuracy    <       0.10106122 Ry

     iteration # 90     ecut=    30.00 Ry     beta= 0.70
     Davidson diagonalization with overlap

---- Real-time Memory Report at c_bands before calling an iterative solver
           434 MiB given to the printing process from OS
             0 MiB allocation reported by mallinfo(arena+hblkhd)
        100470 MiB available memory on the node where the printing process lives
------------------
     ethr =  5.74E-05,  avg # of iterations = 10.9

     total cpu time spent up to now is      420.5 secs

     total energy              =   -3297.27019266 Ry
     estimated scf accuracy    <       0.15236137 Ry

     iteration # 91     ecut=    30.00 Ry     beta= 0.70
     Davidson diagonalization with overlap

---- Real-time Memory Report at c_bands before calling an iterative solver
           434 MiB given to the printing process from OS
             0 MiB allocation reported by mallinfo(arena+hblkhd)
        100469 MiB available memory on the node where the printing process lives
------------------
     ethr =  5.74E-05,  avg # of iterations = 10.6

     total cpu time spent up to now is      425.8 secs

     total energy              =   -3297.32386921 Ry
     estimated scf accuracy    <       2.69140242 Ry

     iteration # 92     ecut=    30.00 Ry     beta= 0.70
     Davidson diagonalization with overlap

---- Real-time Memory Report at c_bands before calling an iterative solver
           434 MiB given to the printing process from OS
             0 MiB allocation reported by mallinfo(arena+hblkhd)
        100461 MiB available memory on the node where the printing process lives
------------------
     ethr =  5.74E-05,  avg # of iterations =  9.8

     total cpu time spent up to now is      430.2 secs

     total energy              =   -3297.32336401 Ry
     estimated scf accuracy    <       6.13137560 Ry

     iteration # 93     ecut=    30.00 Ry     beta= 0.70
     Davidson diagonalization with overlap

---- Real-time Memory Report at c_bands before calling an iterative solver
           435 MiB given to the printing process from OS
             0 MiB allocation reported by mallinfo(arena+hblkhd)
        100461 MiB available memory on the node where the printing process lives
------------------
     ethr =  5.74E-05,  avg # of iterations = 11.1

     total cpu time spent up to now is      434.7 secs

     total energy              =   -3297.36565483 Ry
     estimated scf accuracy    <       4.60975304 Ry

     iteration # 94     ecut=    30.00 Ry     beta= 0.70
     Davidson diagonalization with overlap

---- Real-time Memory Report at c_bands before calling an iterative solver
           435 MiB given to the printing process from OS
             0 MiB allocation reported by mallinfo(arena+hblkhd)
        100509 MiB available memory on the node where the printing process lives
------------------
     ethr =  5.74E-05,  avg # of iterations =  8.7

     total cpu time spent up to now is      438.1 secs

     total energy              =   -3297.35872769 Ry
     estimated scf accuracy    <       0.16791445 Ry

     iteration # 95     ecut=    30.00 Ry     beta= 0.70
     Davidson diagonalization with overlap

---- Real-time Memory Report at c_bands before calling an iterative solver
           435 MiB given to the printing process from OS
             0 MiB allocation reported by mallinfo(arena+hblkhd)
        100464 MiB available memory on the node where the printing process lives
------------------
     ethr =  5.74E-05,  avg # of iterations =  3.1

     total cpu time spent up to now is      442.2 secs

     total energy              =   -3297.36197238 Ry
     estimated scf accuracy    <       1.53970451 Ry

     iteration # 96     ecut=    30.00 Ry     beta= 0.70
     Davidson diagonalization with overlap

---- Real-time Memory Report at c_bands before calling an iterative solver
           435 MiB given to the printing process from OS
             0 MiB allocation reported by mallinfo(arena+hblkhd)
        100461 MiB available memory on the node where the printing process lives
------------------
     ethr =  5.74E-05,  avg # of iterations =  6.4

     total cpu time spent up to now is      447.1 secs

     total energy              =   -3297.37013344 Ry
     estimated scf accuracy    <       0.06631546 Ry

     iteration # 97     ecut=    30.00 Ry     beta= 0.70
     Davidson diagonalization with overlap

---- Real-time Memory Report at c_bands before calling an iterative solver
           435 MiB given to the printing process from OS
             0 MiB allocation reported by mallinfo(arena+hblkhd)
        100505 MiB available memory on the node where the printing process lives
------------------
     ethr =  3.77E-05,  avg # of iterations =  3.3

     total cpu time spent up to now is      450.9 secs

     total energy              =   -3297.36518313 Ry
     estimated scf accuracy    <       0.09455101 Ry

     iteration # 98     ecut=    30.00 Ry     beta= 0.70
     Davidson diagonalization with overlap

---- Real-time Memory Report at c_bands before calling an iterative solver
           435 MiB given to the printing process from OS
             0 MiB allocation reported by mallinfo(arena+hblkhd)
        100486 MiB available memory on the node where the printing process lives
------------------
     ethr =  3.77E-05,  avg # of iterations = 14.0

     total cpu time spent up to now is      455.2 secs

     total energy              =   -3297.28692254 Ry
     estimated scf accuracy    <       0.35290006 Ry

     iteration # 99     ecut=    30.00 Ry     beta= 0.70
     Davidson diagonalization with overlap

---- Real-time Memory Report at c_bands before calling an iterative solver
           435 MiB given to the printing process from OS
             0 MiB allocation reported by mallinfo(arena+hblkhd)
        100532 MiB available memory on the node where the printing process lives
------------------
     ethr =  3.77E-05,  avg # of iterations = 10.1

     total cpu time spent up to now is      459.8 secs

     total energy              =   -3297.29918981 Ry
     estimated scf accuracy    <       0.42938175 Ry

     iteration #100     ecut=    30.00 Ry     beta= 0.70
     Davidson diagonalization with overlap

---- Real-time Memory Report at c_bands before calling an iterative solver
           435 MiB given to the printing process from OS
             0 MiB allocation reported by mallinfo(arena+hblkhd)
        100488 MiB available memory on the node where the printing process lives
------------------
     ethr =  3.77E-05,  avg # of iterations = 10.9

     total cpu time spent up to now is      466.3 secs

     total energy              =   -3297.34282401 Ry
     estimated scf accuracy    <       0.33113073 Ry

     iteration #101     ecut=    30.00 Ry     beta= 0.70
     Davidson diagonalization with overlap

---- Real-time Memory Report at c_bands before calling an iterative solver
           435 MiB given to the printing process from OS
             0 MiB allocation reported by mallinfo(arena+hblkhd)
        100469 MiB available memory on the node where the printing process lives
------------------
     ethr =  3.77E-05,  avg # of iterations = 10.4

     total cpu time spent up to now is      471.7 secs

     total energy              =   -3297.36679317 Ry
     estimated scf accuracy    <       0.09357420 Ry

     iteration #102     ecut=    30.00 Ry     beta= 0.70
     Davidson diagonalization with overlap

---- Real-time Memory Report at c_bands before calling an iterative solver
           435 MiB given to the printing process from OS
             0 MiB allocation reported by mallinfo(arena+hblkhd)
        100498 MiB available memory on the node where the printing process lives
------------------
     ethr =  3.77E-05,  avg # of iterations =  1.9

     total cpu time spent up to now is      476.1 secs

     total energy              =   -3297.36912510 Ry
     estimated scf accuracy    <       0.02920062 Ry

     iteration #103     ecut=    30.00 Ry     beta= 0.70
     Davidson diagonalization with overlap

---- Real-time Memory Report at c_bands before calling an iterative solver
           435 MiB given to the printing process from OS
             0 MiB allocation reported by mallinfo(arena+hblkhd)
        100481 MiB available memory on the node where the printing process lives
------------------
     ethr =  1.66E-05,  avg # of iterations =  9.2

     total cpu time spent up to now is      481.3 secs

     total energy              =   -3297.37398620 Ry
     estimated scf accuracy    <       0.03134332 Ry

     iteration #104     ecut=    30.00 Ry     beta= 0.70
     Davidson diagonalization with overlap

---- Real-time Memory Report at c_bands before calling an iterative solver
           435 MiB given to the printing process from OS
             0 MiB allocation reported by mallinfo(arena+hblkhd)
        100523 MiB available memory on the node where the printing process lives
------------------
     ethr =  1.66E-05,  avg # of iterations =  1.0

     total cpu time spent up to now is      484.9 secs

     total energy              =   -3297.36949938 Ry
     estimated scf accuracy    <       0.02686880 Ry

     iteration #105     ecut=    30.00 Ry     beta= 0.70
     Davidson diagonalization with overlap

---- Real-time Memory Report at c_bands before calling an iterative solver
           435 MiB given to the printing process from OS
             0 MiB allocation reported by mallinfo(arena+hblkhd)
        100516 MiB available memory on the node where the printing process lives
------------------
     ethr =  1.53E-05,  avg # of iterations = 13.4

     total cpu time spent up to now is      490.0 secs

     total energy              =   -3297.34443154 Ry
     estimated scf accuracy    <      18.19868121 Ry

     iteration #106     ecut=    30.00 Ry     beta= 0.70
     Davidson diagonalization with overlap

---- Real-time Memory Report at c_bands before calling an iterative solver
           435 MiB given to the printing process from OS
             0 MiB allocation reported by mallinfo(arena+hblkhd)
        100514 MiB available memory on the node where the printing process lives
------------------
     ethr =  1.53E-05,  avg # of iterations = 13.5

     total cpu time spent up to now is      496.0 secs

[...]
     7.6323   7.6935   7.7762   7.8868   7.9023   7.9610   8.1210   8.2019
     8.2632   8.3622   9.4006   9.4515   9.4641   9.4855   9.5047   9.5166
     9.6902   9.7180

     occupation numbers 
     1.0000   1.0000   1.0000   1.0000   1.0000   1.0000   1.0000   1.0000
     1.0000   1.0000   1.0000   1.0000   1.0000   1.0000   1.0000   1.0000
     1.0000   1.0000   1.0000   1.0000   1.0000   1.0000   1.0000   1.0000
     1.0000   1.0000   1.0000   1.0000   1.0000   1.0000   1.0000   1.0000
     1.0000   1.0000   1.0000   1.0000   1.0000   1.0000   1.0000   1.0000
     1.0000   1.0000   1.0000   1.0000   1.0000   1.0000   1.0000   1.0000
     1.0000   1.0000   1.0000   1.0000   1.0000   1.0000   1.0000   1.0000
     1.0000   1.0000   1.0000   1.0000   1.0000   1.0000   1.0000   1.0000
     1.0000   1.0000   1.0000   1.0000   1.0000   1.0000   1.0000   1.0000
     1.0000   1.0000   1.0000   1.0000   1.0000   1.0000   1.0000   1.0000
     1.0000   1.0000   1.0000   1.0000   1.0000   1.0000   1.0000   1.0000
     0.0000   0.0000

          k = 0.3333-0.0001 0.2348 (  5705 PWs)   bands (ev):

   -31.0018 -30.9755 -21.2097 -21.1689 -19.8034 -19.7875 -19.7740 -19.7541
   -19.6592 -19.6464 -19.6451 -19.6298 -19.6167 -19.6121 -18.9301 -18.9157
   -10.3557 -10.3299 -10.1909 -10.1268 -10.0149  -9.9828  -8.9439  -8.8738
    -8.1484  -8.0485  -7.9096  -7.8465  -7.7926  -7.7532  -7.4948  -7.4634
    -7.3305  -7.2830  -4.8115  -4.7941  -4.3753  -4.3596  -4.3150  -4.2808
    -2.4977  -2.4817  -2.4724  -2.4346  -2.4243  -2.4106   1.5253   1.5757
     4.4030   4.4222   4.5737   4.6041   4.6835   4.7581   6.0556   6.0831
     6.2219   6.3062   6.4791   6.6005   6.7314   6.7629   6.8913   6.9386
     7.0197   7.0322   7.2392   7.3103   7.3773   7.3915   7.5424   7.5676
     7.6184   7.6980   7.8317   7.8442   7.9996   8.0447   8.1458   8.1752
     8.2952   8.3807   9.4020   9.4478   9.4694   9.4885   9.4957   9.5207
     9.6910   9.7173

     occupation numbers 
     1.0000   1.0000   1.0000   1.0000   1.0000   1.0000   1.0000   1.0000
     1.0000   1.0000   1.0000   1.0000   1.0000   1.0000   1.0000   1.0000
     1.0000   1.0000   1.0000   1.0000   1.0000   1.0000   1.0000   1.0000
     1.0000   1.0000   1.0000   1.0000   1.0000   1.0000   1.0000   1.0000
     1.0000   1.0000   1.0000   1.0000   1.0000   1.0000   1.0000   1.0000
     1.0000   1.0000   1.0000   1.0000   1.0000   1.0000   1.0000   1.0000
     1.0000   1.0000   1.0000   1.0000   1.0000   1.0000   1.0000   1.0000
     1.0000   1.0000   1.0000   1.0000   1.0000   1.0000   1.0000   1.0000
     1.0000   1.0000   1.0000   1.0000   1.0000   1.0000   1.0000   1.0000
     1.0000   1.0000   1.0000   1.0000   1.0000   1.0000   1.0000   1.0000
     1.0000   1.0000   1.0000   1.0000   1.0000   1.0000   1.0000   1.0000
     0.0000   0.0000

          k = 0.3333-0.0001-0.2292 (  5708 PWs)   bands (ev):

   -31.0018 -30.9755 -21.2097 -21.1689 -19.8042 -19.7884 -19.7747 -19.7551
   -19.6588 -19.6465 -19.6448 -19.6293 -19.6163 -19.6121 -18.9301 -18.9157
   -10.4012 -10.2735 -10.2038 -10.1187 -10.0264  -9.9755  -9.0262  -8.7460
    -8.1827  -8.0514  -8.0037  -7.8466  -7.7534  -7.7125  -7.5054  -7.4480
    -7.3510  -7.2630  -4.8197  -4.7911  -4.3714  -4.3525  -4.3193  -4.2834
    -2.4972  -2.4847  -2.4681  -2.4393  -2.4256  -2.4041   1.5286   1.5735
     4.3679   4.4343   4.5726   4.6071   4.6939   4.7606   5.9685   6.0678
     6.2740   6.3948   6.4862   6.5770   6.7441   6.8009   6.8735   6.9822
     6.9937   7.0469   7.1736   7.2096   7.3048   7.4291   7.5586   7.5946
     7.6514   7.7379   7.7991   7.8295   8.0009   8.0725   8.1505   8.1726
     8.3274   8.3685   9.4011   9.4466   9.4713   9.4811   9.5000   9.5207
     9.6940   9.7153

     occupation numbers 
     1.0000   1.0000   1.0000   1.0000   1.0000   1.0000   1.0000   1.0000
     1.0000   1.0000   1.0000   1.0000   1.0000   1.0000   1.0000   1.0000
     1.0000   1.0000   1.0000   1.0000   1.0000   1.0000   1.0000   1.0000
     1.0000   1.0000   1.0000   1.0000   1.0000   1.0000   1.0000   1.0000
     1.0000   1.0000   1.0000   1.0000   1.0000   1.0000   1.0000   1.0000
     1.0000   1.0000   1.0000   1.0000   1.0000   1.0000   1.0000   1.0000
     1.0000   1.0000   1.0000   1.0000   1.0000   1.0000   1.0000   1.0000
     1.0000   1.0000   1.0000   1.0000   1.0000   1.0000   1.0000   1.0000
     1.0000   1.0000   1.0000   1.0000   1.0000   1.0000   1.0000   1.0000
     1.0000   1.0000   1.0000   1.0000   1.0000   1.0000   1.0000   1.0000
     1.0000   1.0000   1.0000   1.0000   1.0000   1.0000   1.0000   1.0000
     0.0000   0.0000

          k = 0.3333 0.3207 0.0029 (  5710 PWs)   bands (ev):

   -31.0018 -30.9755 -21.2100 -21.1691 -19.8035 -19.7858 -19.7732 -19.7542
   -19.6595 -19.6486 -19.6466 -19.6306 -19.6162 -19.6143 -18.9302 -18.9158
   -10.3816 -10.3107 -10.1963 -10.1760 -10.0285 -10.0183  -8.8680  -8.5908
    -8.4153  -8.1729  -8.0944  -7.9132  -7.8454  -7.7684  -7.4470  -7.3362
    -7.1656  -7.0385  -4.5778  -4.5531  -4.5120  -4.4946  -4.4490  -4.4052
    -2.5000  -2.4801  -2.4581  -2.4450  -2.4149  -2.4062   1.2523   1.2922
     4.4970   4.6365   4.7989   4.8781   4.9789   5.0287   5.7435   5.8497
     6.2461   6.3888   6.5152   6.5550   6.6594   6.7603   6.8808   6.9143
     7.0002   7.0408   7.1600   7.2296   7.3678   7.4373   7.4757   7.5213
     7.6467   7.6760   7.7563   7.8040   7.9097   7.9663   8.0602   8.1275
     8.2616   8.3122   9.4155   9.4559   9.4620   9.4802   9.5009   9.5310
     9.6997   9.7142

     occupation numbers 
     1.0000   1.0000   1.0000   1.0000   1.0000   1.0000   1.0000   1.0000
     1.0000   1.0000   1.0000   1.0000   1.0000   1.0000   1.0000   1.0000
     1.0000   1.0000   1.0000   1.0000   1.0000   1.0000   1.0000   1.0000
     1.0000   1.0000   1.0000   1.0000   1.0000   1.0000   1.0000   1.0000
     1.0000   1.0000   1.0000   1.0000   1.0000   1.0000   1.0000   1.0000
     1.0000   1.0000   1.0000   1.0000   1.0000   1.0000   1.0000   1.0000
     1.0000   1.0000   1.0000   1.0000   1.0000   1.0000   1.0000   1.0000
     1.0000   1.0000   1.0000   1.0000   1.0000   1.0000   1.0000   1.0000
     1.0000   1.0000   1.0000   1.0000   1.0000   1.0000   1.0000   1.0000
     1.0000   1.0000   1.0000   1.0000   1.0000   1.0000   1.0000   1.0000
     1.0000   1.0000   1.0000   1.0000   1.0000   1.0000   1.0000   1.0000
     0.0000   0.0000

          k = 0.3333 0.3207 0.2349 (  5721 PWs)   bands (ev):

   -31.0018 -30.9755 -21.2098 -21.1690 -19.8050 -19.7863 -19.7746 -19.7550
   -19.6602 -19.6492 -19.6462 -19.6303 -19.6175 -19.6148 -18.9302 -18.9158
   -10.4117 -10.3343 -10.1925 -10.1316 -10.0278 -10.0088  -8.8456  -8.7730
    -8.2232  -8.1248  -7.9735  -7.8706  -7.8028  -7.7344  -7.5544  -7.4839
    -7.2322  -7.1025  -4.6668  -4.6270  -4.5133  -4.4694  -4.3609  -4.3163
    -2.4997  -2.4819  -2.4636  -2.4319  -2.4215  -2.4014   1.3890   1.4245
     4.4161   4.4480   4.5922   4.7054   4.9797   5.0451   5.8127   5.9281
     6.2891   6.4126   6.4472   6.5159   6.6641   6.6995   6.8055   6.9187
     6.9917   7.1247   7.2147   7.2249   7.3222   7.3707   7.4712   7.5970
     7.6576   7.6970   7.7928   7.8574   7.9229   7.9985   8.0740   8.1551
     8.2912   8.3484   9.4174   9.4512   9.4654   9.4800   9.4998   9.5294
     9.6936   9.7201

     occupation numbers 
     1.0000   1.0000   1.0000   1.0000   1.0000   1.0000   1.0000   1.0000
     1.0000   1.0000   1.0000   1.0000   1.0000   1.0000   1.0000   1.0000
     1.0000   1.0000   1.0000   1.0000   1.0000   1.0000   1.0000   1.0000
     1.0000   1.0000   1.0000   1.0000   1.0000   1.0000   1.0000   1.0000
     1.0000   1.0000   1.0000   1.0000   1.0000   1.0000   1.0000   1.0000
     1.0000   1.0000   1.0000   1.0000   1.0000   1.0000   1.0000   1.0000
     1.0000   1.0000   1.0000   1.0000   1.0000   1.0000   1.0000   1.0000
     1.0000   1.0000   1.0000   1.0000   1.0000   1.0000   1.0000   1.0000
     1.0000   1.0000   1.0000   1.0000   1.0000   1.0000   1.0000   1.0000
     1.0000   1.0000   1.0000   1.0000   1.0000   1.0000   1.0000   1.0000
     1.0000   1.0000   1.0000   1.0000   1.0000   1.0000   1.0000   1.0000
     0.0000   0.0000

          k = 0.3333 0.3207-0.2291 (  5704 PWs)   bands (ev):

   -31.0018 -30.9755 -21.2098 -21.1690 -19.8055 -19.7852 -19.7754 -19.7525
   -19.6578 -19.6473 -19.6459 -19.6289 -19.6156 -19.6144 -18.9302 -18.9158
   -10.4369 -10.2985 -10.1951 -10.1198 -10.0413 -10.0231  -8.8766  -8.6521
    -8.2866  -8.1841  -8.0105  -7.8370  -7.7882  -7.7282  -7.5722  -7.4361
    -7.2062  -7.1347  -4.6634  -4.6302  -4.5131  -4.4716  -4.3458  -4.3302
    -2.5000  -2.4828  -2.4579  -2.4361  -2.4177  -2.4019   1.3973   1.4172
     4.4061   4.4472   4.6133   4.6881   4.9514   5.0793   5.8674   5.9255
     6.2158   6.3789   6.4422   6.4898   6.6662   6.7505   6.9021   6.9705
     7.0124   7.1000   7.1813   7.2488   7.2737   7.3791   7.5077   7.5500
     7.6174   7.7194   7.7620   7.8183   7.9468   8.0195   8.0755   8.1850
     8.3138   8.3720   9.4163   9.4501   9.4644   9.4807   9.5017   9.5305
     9.6956   9.7210

     occupation numbers 
     1.0000   1.0000   1.0000   1.0000   1.0000   1.0000   1.0000   1.0000
     1.0000   1.0000   1.0000   1.0000   1.0000   1.0000   1.0000   1.0000
     1.0000   1.0000   1.0000   1.0000   1.0000   1.0000   1.0000   1.0000
     1.0000   1.0000   1.0000   1.0000   1.0000   1.0000   1.0000   1.0000
     1.0000   1.0000   1.0000   1.0000   1.0000   1.0000   1.0000   1.0000
     1.0000   1.0000   1.0000   1.0000   1.0000   1.0000   1.0000   1.0000
     1.0000   1.0000   1.0000   1.0000   1.0000   1.0000   1.0000   1.0000
     1.0000   1.0000   1.0000   1.0000   1.0000   1.0000   1.0000   1.0000
     1.0000   1.0000   1.0000   1.0000   1.0000   1.0000   1.0000   1.0000
     1.0000   1.0000   1.0000   1.0000   1.0000   1.0000   1.0000   1.0000
     1.0000   1.0000   1.0000   1.0000   1.0000   1.0000   1.0000   1.0000
     0.0000   0.0000

          k = 0.3333-0.3209 0.0027 (  5711 PWs)   bands (ev):

   -31.0018 -30.9755 -21.2100 -21.1691 -19.8025 -19.7876 -19.7744 -19.7527
   -19.6601 -19.6483 -19.6455 -19.6299 -19.6169 -19.6154 -18.9302 -18.9158
   -10.3940 -10.2884 -10.1987 -10.1804 -10.0370 -10.0135  -8.8646  -8.5956
    -8.4278  -8.1587  -8.0820  -7.9085  -7.8348  -7.7959  -7.4393  -7.3517
    -7.1555  -7.0412  -4.5729  -4.5438  -4.5243  -4.4972  -4.4640  -4.3895
    -2.4969  -2.4840  -2.4565  -2.4451  -2.4182  -2.4036   1.2369   1.3087
     4.5301   4.6058   4.7893   4.8814   4.9605   5.0478   5.7433   5.8503
     6.2448   6.3886   6.5148   6.5613   6.6519   6.7841   6.8707   6.9098
     6.9844   7.0450   7.1660   7.2245   7.3666   7.4364   7.4783   7.5347
     7.6362   7.6652   7.7560   7.8099   7.9108   7.9754   8.0285   8.1462
     8.2620   8.3190   9.4164   9.4539   9.4651   9.4826   9.5030   9.5247
     9.6953   9.7189

     occupation numbers 
     1.0000   1.0000   1.0000   1.0000   1.0000   1.0000   1.0000   1.0000
     1.0000   1.0000   1.0000   1.0000   1.0000   1.0000   1.0000   1.0000
     1.0000   1.0000   1.0000   1.0000   1.0000   1.0000   1.0000   1.0000
     1.0000   1.0000   1.0000   1.0000   1.0000   1.0000   1.0000   1.0000
     1.0000   1.0000   1.0000   1.0000   1.0000   1.0000   1.0000   1.0000
     1.0000   1.0000   1.0000   1.0000   1.0000   1.0000   1.0000   1.0000
     1.0000   1.0000   1.0000   1.0000   1.0000   1.0000   1.0000   1.0000
     1.0000   1.0000   1.0000   1.0000   1.0000   1.0000   1.0000   1.0000
     1.0000   1.0000   1.0000   1.0000   1.0000   1.0000   1.0000   1.0000
     1.0000   1.0000   1.0000   1.0000   1.0000   1.0000   1.0000   1.0000
     1.0000   1.0000   1.0000   1.0000   1.0000   1.0000   1.0000   1.0000
     0.0000   0.0000

          k = 0.3333-0.3209 0.2347 (  5721 PWs)   bands (ev):

   -31.0018 -30.9755 -21.2099 -21.1690 -19.8038 -19.7882 -19.7757 -19.7531
   -19.6597 -19.6486 -19.6464 -19.6307 -19.6165 -19.6162 -18.9302 -18.9158
   -10.4166 -10.3265 -10.1968 -10.1278 -10.0344 -10.0044  -8.8459  -8.7768
    -8.2290  -8.1096  -7.9634  -7.8600  -7.8091  -7.7559  -7.5595  -7.4822
    -7.2225  -7.1074  -4.6647  -4.6234  -4.5215  -4.4731  -4.3634  -4.3076
    -2.4954  -2.4840  -2.4650  -2.4367  -2.4171  -2.4020   1.3741   1.4407
     4.4296   4.4511   4.5786   4.7011   4.9720   5.0509   5.8138   5.9279
     6.2890   6.4060   6.4504   6.5097   6.6727   6.7110   6.8134   6.9312
     6.9760   7.1058   7.2114   7.2236   7.3293   7.3682   7.4723   7.6023
     7.6433   7.7083   7.7898   7.8546   7.9192   8.0040   8.0606   8.1669
     8.3047   8.3423   9.4168   9.4558   9.4618   9.4831   9.5013   9.5269
     9.6891   9.7236

     occupation numbers 
     1.0000   1.0000   1.0000   1.0000   1.0000   1.0000   1.0000   1.0000
     1.0000   1.0000   1.0000   1.0000   1.0000   1.0000   1.0000   1.0000
     1.0000   1.0000   1.0000   1.0000   1.0000   1.0000   1.0000   1.0000
     1.0000   1.0000   1.0000   1.0000   1.0000   1.0000   1.0000   1.0000
     1.0000   1.0000   1.0000   1.0000   1.0000   1.0000   1.0000   1.0000
     1.0000   1.0000   1.0000   1.0000   1.0000   1.0000   1.0000   1.0000
     1.0000   1.0000   1.0000   1.0000   1.0000   1.0000   1.0000   1.0000
     1.0000   1.0000   1.0000   1.0000   1.0000   1.0000   1.0000   1.0000
     1.0000   1.0000   1.0000   1.0000   1.0000   1.0000   1.0000   1.0000
     1.0000   1.0000   1.0000   1.0000   1.0000   1.0000   1.0000   1.0000
     1.0000   1.0000   1.0000   1.0000   1.0000   1.0000   1.0000   1.0000
     0.0000   0.0000

          k = 0.3333-0.3209-0.2293 (  5706 PWs)   bands (ev):

   -31.0018 -30.9755 -21.2099 -21.1690 -19.8045 -19.7859 -19.7765 -19.7519
   -19.6584 -19.6475 -19.6456 -19.6284 -19.6165 -19.6143 -18.9302 -18.9158
   -10.4393 -10.2944 -10.1902 -10.1273 -10.0489 -10.0144  -8.8748  -8.6613
    -8.2964  -8.1596  -7.9995  -7.8460  -7.7909  -7.7353  -7.5729  -7.4353
    -7.2058  -7.1355  -4.6603  -4.6272  -4.5192  -4.4765  -4.3580  -4.3130
    -2.4996  -2.4834  -2.4583  -2.4346  -2.4203  -2.4002   1.3755   1.4402
     4.4128   4.4506   4.6130   4.6771   4.9503   5.0748   5.8742   5.9235
     6.2071   6.3778   6.4388   6.5073   6.6817   6.7529   6.8872   6.9611
     7.0120   7.1002   7.1642   7.2552   7.2752   7.3727   7.5202   7.5424
     7.6088   7.7242   7.7778   7.8212   7.9360   8.0097   8.0638   8.2085
     8.3364   8.3501   9.4180   9.4491   9.4621   9.4829   9.5039   9.5242
     9.6990   9.7203

     occupation numbers 
     1.0000   1.0000   1.0000   1.0000   1.0000   1.0000   1.0000   1.0000
     1.0000   1.0000   1.0000   1.0000   1.0000   1.0000   1.0000   1.0000
     1.0000   1.0000   1.0000   1.0000   1.0000   1.0000   1.0000   1.0000
     1.0000   1.0000   1.0000   1.0000   1.0000   1.0000   1.0000   1.0000
     1.0000   1.0000   1.0000   1.0000   1.0000   1.0000   1.0000   1.0000
     1.0000   1.0000   1.0000   1.0000   1.0000   1.0000   1.0000   1.0000
     1.0000   1.0000   1.0000   1.0000   1.0000   1.0000   1.0000   1.0000
     1.0000   1.0000   1.0000   1.0000   1.0000   1.0000   1.0000   1.0000
     1.0000   1.0000   1.0000   1.0000   1.0000   1.0000   1.0000   1.0000
     1.0000   1.0000   1.0000   1.0000   1.0000   1.0000   1.0000   1.0000
     1.0000   1.0000   1.0000   1.0000   1.0000   1.0000   1.0000   1.0000
     0.0000   0.0000

     highest occupied, lowest unoccupied level (ev):     9.5375    9.6867

!    total energy              =   -3297.38468845 Ry
     estimated scf accuracy    <       0.00000096 Ry

     The total energy is the sum of the following terms:
     one-electron contribution =    -475.78900593 Ry
     hartree contribution      =     358.50301872 Ry
     xc contribution           =    -258.57547140 Ry
     ewald contribution        =    -985.65738427 Ry
     one-center paw contrib.   =   -1935.86584558 Ry
      -> PAW hartree energy AE =     111.49367225 Ry
      -> PAW hartree energy PS =    -111.12324214 Ry
      -> PAW xc energy AE      =    -537.95942762 Ry
      -> PAW xc energy PS      =      28.63160620 Ry
      -> total E_H with PAW    =     358.87344883 Ry
      -> total E_XC with PAW   =    -767.90329282 Ry

     convergence has been achieved in 252 iterations

     Writing all to output data dir calculations_bands/myprefix.save/
 
     init_run     :     25.10s CPU      9.41s WALL (       1 calls)
     electrons    :   3702.56s CPU   1168.03s WALL (       1 calls)

     Called by init_run:
     wfcinit      :      7.14s CPU      1.88s WALL (       1 calls)
     wfcinit:atom :      0.04s CPU      0.01s WALL (       7 calls)
     wfcinit:wfcr :      6.70s CPU      1.75s WALL (       7 calls)
     potinit      :      6.85s CPU      2.40s WALL (       1 calls)
     hinit0       :      9.00s CPU      4.26s WALL (       1 calls)

     Called by electrons:
     c_bands      :   2043.92s CPU    591.42s WALL (     252 calls)
     sum_band     :    485.88s CPU    154.39s WALL (     252 calls)
     v_of_rho     :     22.84s CPU      6.53s WALL (     253 calls)
     v_h          :      1.56s CPU      0.43s WALL (     253 calls)
     v_xc         :     21.27s CPU      6.10s WALL (     253 calls)
     newd         :    489.26s CPU    171.86s WALL (     253 calls)
     PAW_pot      :    653.40s CPU    241.73s WALL (     253 calls)
     mix_rho      :      7.89s CPU      2.20s WALL (     252 calls)

     Called by c_bands:
     init_us_2    :     11.17s CPU      3.17s WALL (    3535 calls)
     init_us_2:cp :     11.06s CPU      3.15s WALL (    3535 calls)
     cegterg      :   1842.49s CPU    532.10s WALL (    1764 calls)

     Called by sum_band:
     sum_band:wei :      0.55s CPU      0.16s WALL (     252 calls)
     sum_band:loo :    185.51s CPU     51.32s WALL (     252 calls)
     sum_band:buf :      2.40s CPU      0.69s WALL (    1764 calls)
     sum_band:ini :      5.23s CPU      1.40s WALL (    1764 calls)
     sum_band:cal :     16.24s CPU      4.37s WALL (    1764 calls)
     sum_band:bec :      2.21s CPU      0.63s WALL (    1764 calls)
     addusdens    :    221.97s CPU     80.54s WALL (     252 calls)
     addusd:skk   :      4.51s CPU      1.66s WALL (    1260 calls)
     addusd:dgemm :     33.36s CPU     26.06s WALL (    1260 calls)
     addusd:qvan2 :    145.97s CPU     39.01s WALL (    1260 calls)

     Called by *egterg:
     cdiaghg      :    466.61s CPU    133.33s WALL (   17545 calls)
     cegterg:over :    105.32s CPU     31.32s WALL (   15781 calls)
     cegterg:upda :     50.75s CPU     14.50s WALL (   15781 calls)
     cegterg:last :     60.35s CPU     16.84s WALL (    3858 calls)
     cdiaghg:chol :     28.05s CPU      8.08s WALL (   17545 calls)
     cdiaghg:inve :      5.98s CPU      1.72s WALL (   17545 calls)
     cdiaghg:para :     73.49s CPU     21.52s WALL (   35090 calls)
     h_psi        :   1064.68s CPU    308.18s WALL (   17552 calls)
     s_psi        :     52.27s CPU     14.56s WALL (   17552 calls)
     g_psi        :      2.13s CPU      0.58s WALL (   15781 calls)

     Called by h_psi:
     h_psi:calbec :     65.06s CPU     18.26s WALL (   17552 calls)
     vloc_psi     :    938.33s CPU    272.56s WALL (   17552 calls)
     add_vuspsi   :     56.69s CPU     15.96s WALL (   17552 calls)

     General routines
     calbec       :     80.68s CPU     22.50s WALL (   19316 calls)
     fft          :     82.69s CPU     23.99s WALL (    3287 calls)
     ffts         :      2.10s CPU      0.71s WALL (     505 calls)
     fftw         :    977.61s CPU    282.50s WALL ( 1011360 calls)
     interpolate  :      3.25s CPU      1.11s WALL (     253 calls)
 
     Parallel routines

     PAW routines
     PAW_pot      :    653.40s CPU    241.73s WALL (     253 calls)
 
     PWSCF        :      1h 2m CPU  19m39.01s WALL

 
   This run was terminated on:   5:42:30  23Jun2023            

=------------------------------------------------------------------------------=
   JOB DONE.
=------------------------------------------------------------------------------=
