
     Program PWSCF v.7.0 starts on  7Jun2023 at  0:37: 2 

     This program is part of the open-source Quantum ESPRESSO suite
     for quantum simulation of materials; please cite
         "P. Giannozzi et al., J. Phys.:Condens. Matter 21 395502 (2009);
         "P. Giannozzi et al., J. Phys.:Condens. Matter 29 465901 (2017);
         "P. Giannozzi et al., J. Chem. Phys. 152 154105 (2020);
          URL http://www.quantum-espresso.org", 
     in publications or presentations arising from this work. More details at
     http://www.quantum-espresso.org/quote

     Parallel version (MPI & OpenMP), running on      32 processor cores
     Number of MPI processes:                 8
     Threads/MPI process:                     4

     MPI processes distributed on     1 nodes
     K-points division:     npool     =       2
     R & G space division:  proc/nbgrp/npool/nimage =       4
     51524 MiB available memory on the printing compute node when the environment starts
 
     Reading input from espresso_994.pwi
Warning: card &CELL ignored
Warning: card / ignored

     Current dimensions of program PWSCF are:
     Max number of different atomic species (ntypx) = 10
     Max number of k-points (npk) =  40000
     Max angular momentum in pseudopotentials (lmaxx) =  4
     file K.pbe-spn-kjpaw_psl.1.0.0.UPF: wavefunction(s)  3S renormalized
     Message from routine setup:
     using ibrav=0 with symmetry is DISCOURAGED, use correct ibrav instead

     Subspace diagonalization in iterative solution of the eigenvalue problem:
     one sub-group per band group will be used
     scalapack distributed-memory algorithm (size of sub-group:  2*  2 procs)

 
     Parallelization info
     --------------------
     sticks:   dense  smooth     PW     G-vecs:    dense   smooth      PW
     Min         718     360     98                42730    15112    2188
     Max         719     362     99                42733    15113    2192
     Sum        2875    1443    393               170927    60449    8761
 
     Using Slab Decomposition
 


     bravais-lattice index     =            0
     lattice parameter (alat)  =       9.5458  a.u.
     unit-cell volume          =    2721.8298 (a.u.)^3
     number of atoms/cell      =           12
     number of atomic types    =            3
     number of electrons       =        96.00
     number of Kohn-Sham states=           64
     kinetic-energy cutoff     =      30.0000  Ry
     charge density cutoff     =     240.0000  Ry
     scf convergence threshold =      1.0E-06
     mixing beta               =       0.7000
     number of iterations used =            8  plain     mixing
     Exchange-correlation=  SLA  PW   PBX  PBC
                           (   1   4   3   4   0   0   0)

     celldm(1)=   9.545751  celldm(2)=   0.000000  celldm(3)=   0.000000
     celldm(4)=   0.000000  celldm(5)=   0.000000  celldm(6)=   0.000000

     crystal axes: (cart. coord. in units of alat)
               a(1) = (   1.000000   0.000000   0.000000 )  
               a(2) = (   0.000000   1.653993   0.000000 )  
               a(3) = (   0.000000   0.000000   1.891895 )  

     reciprocal axes: (cart. coord. in units 2 pi/alat)
               b(1) = (  1.000000  0.000000  0.000000 )  
               b(2) = (  0.000000  0.604598  0.000000 )  
               b(3) = (  0.000000  0.000000  0.528571 )  


     PseudoPot. # 1 for K  read from file:
     /home/pragov/projects/rrg-bengioy-ad/pragov/crystal_structure_design/SSSP/K.pbe-spn-kjpaw_psl.1.0.0.UPF
     MD5 check sum: 7d58810084cac21f60fbe77ea2b688fd
     Pseudo is Projector augmented-wave + core cor, Zval =  9.0
     Generated using "atomic" code by A. Dal Corso  v.5.1
     Shape of augmentation charge: PSQ
     Using radial grid of 1165 points,  6 beta functions with: 
                l(1) =   0
                l(2) =   0
                l(3) =   1
                l(4) =   1
                l(5) =   2
                l(6) =   2
     Q(r) pseudized with 0 coefficients 


     PseudoPot. # 2 for Rb read from file:
     /home/pragov/projects/rrg-bengioy-ad/pragov/crystal_structure_design/SSSP/Rb_ONCV_PBE-1.0.oncvpsp.upf
     MD5 check sum: 55a5172d6bfbce6759a58e35d43f6aa9
     Pseudo is Norm-conserving, Zval =  9.0
     Generated using ONCVPSP code by D. R. Hamann
     Using radial grid of 2308 points,  6 beta functions with: 
                l(1) =   0
                l(2) =   0
                l(3) =   1
                l(4) =   1
                l(5) =   2
                l(6) =   2

     PseudoPot. # 3 for S  read from file:
     /home/pragov/projects/rrg-bengioy-ad/pragov/crystal_structure_design/SSSP/s_pbe_v1.4.uspp.F.UPF
     MD5 check sum: 88d86576ff6df21479756cfb9bdac1df
     Pseudo is Ultrasoft + core correction, Zval =  6.0
     Generated by new atomic code, or converted to UPF format
     Using radial grid of  907 points,  6 beta functions with: 
                l(1) =   0
                l(2) =   0
                l(3) =   1
                l(4) =   1
                l(5) =   2
                l(6) =   2
     Q(r) pseudized with  8 coefficients,  rinner =    1.300   1.300   1.300
                                                       1.300   1.300

     atomic species   valence    mass     pseudopotential
        K              9.00    39.09830     K ( 1.00)
        Rb             9.00    85.46780     Rb( 1.00)
        S              6.00    32.06000     S ( 1.00)

      8 Sym. Ops., with inversion, found ( 6 have fractional translation)


                                    s                        frac. trans.

      isym =  1     identity                                     

 cryst.   s( 1) = (     1          0          0      )
                  (     0          1          0      )
                  (     0          0          1      )

 cart.    s( 1) = (  1.0000000  0.0000000  0.0000000 )
                  (  0.0000000  1.0000000  0.0000000 )
                  (  0.0000000  0.0000000  1.0000000 )


      isym =  2     180 deg rotation - cart. axis [0,0,1]        

 cryst.   s( 2) = (    -1          0          0      )    f =(  0.0000000 )
                  (     0         -1          0      )       ( -0.5000000 )
                  (     0          0          1      )       (  0.5000000 )

 cart.    s( 2) = ( -1.0000000  0.0000000  0.0000000 )    f =(  0.0000000 )
                  (  0.0000000 -1.0000000  0.0000000 )       ( -0.8269964 )
                  (  0.0000000  0.0000000  1.0000000 )       (  0.9459475 )


      isym =  3     180 deg rotation - cart. axis [0,1,0]        

 cryst.   s( 3) = (    -1          0          0      )    f =(  0.5000000 )
                  (     0          1          0      )       ( -0.5000000 )
                  (     0          0         -1      )       (  0.5000000 )

 cart.    s( 3) = ( -1.0000000  0.0000000  0.0000000 )    f =(  0.5000000 )
                  (  0.0000000  1.0000000  0.0000000 )       ( -0.8269964 )
                  (  0.0000000  0.0000000 -1.0000000 )       (  0.9459475 )


      isym =  4     180 deg rotation - cart. axis [1,0,0]        

 cryst.   s( 4) = (     1          0          0      )    f =(  0.5000000 )
                  (     0         -1          0      )       (  0.0000000 )
                  (     0          0         -1      )       (  0.0000000 )

 cart.    s( 4) = (  1.0000000  0.0000000  0.0000000 )    f =(  0.5000000 )
                  (  0.0000000 -1.0000000  0.0000000 )       (  0.0000000 )
                  (  0.0000000  0.0000000 -1.0000000 )       (  0.0000000 )


      isym =  5     inversion                                    

 cryst.   s( 5) = (    -1          0          0      )
                  (     0         -1          0      )
                  (     0          0         -1      )

 cart.    s( 5) = ( -1.0000000  0.0000000  0.0000000 )
                  (  0.0000000 -1.0000000  0.0000000 )
                  (  0.0000000  0.0000000 -1.0000000 )


      isym =  6     inv. 180 deg rotation - cart. axis [0,0,1]   

 cryst.   s( 6) = (     1          0          0      )    f =(  0.0000000 )
                  (     0          1          0      )       ( -0.5000000 )
                  (     0          0         -1      )       (  0.5000000 )

 cart.    s( 6) = (  1.0000000  0.0000000  0.0000000 )    f =(  0.0000000 )
                  (  0.0000000  1.0000000  0.0000000 )       ( -0.8269964 )
                  (  0.0000000  0.0000000 -1.0000000 )       (  0.9459475 )


      isym =  7     inv. 180 deg rotation - cart. axis [0,1,0]   

 cryst.   s( 7) = (     1          0          0      )    f =(  0.5000000 )
                  (     0         -1          0      )       ( -0.5000000 )
                  (     0          0          1      )       (  0.5000000 )

 cart.    s( 7) = (  1.0000000  0.0000000  0.0000000 )    f =(  0.5000000 )
                  (  0.0000000 -1.0000000  0.0000000 )       ( -0.8269964 )
                  (  0.0000000  0.0000000  1.0000000 )       (  0.9459475 )


      isym =  8     inv. 180 deg rotation - cart. axis [1,0,0]   

 cryst.   s( 8) = (    -1          0          0      )    f =(  0.5000000 )
                  (     0          1          0      )       (  0.0000000 )
                  (     0          0          1      )       (  0.0000000 )

 cart.    s( 8) = ( -1.0000000  0.0000000  0.0000000 )    f =(  0.5000000 )
                  (  0.0000000  1.0000000  0.0000000 )       (  0.0000000 )
                  (  0.0000000  0.0000000  1.0000000 )       (  0.0000000 )


   Cartesian axes

     site n.     atom                  positions (alat units)
         1           K   tau(   1) = (   0.7500000   1.0699894   0.8033383  )
         2           K   tau(   2) = (   0.2500000   0.5840033   1.0885566  )
         3           K   tau(   3) = (   0.7500000   0.2429930   0.1426092  )
         4           K   tau(   4) = (   0.2500000   1.4109997   1.7492858  )
         5           Rb  tau(   5) = (   0.2500000   1.6182235   0.6125218  )
         6           Rb  tau(   6) = (   0.7500000   0.0357692   1.2793732  )
         7           Rb  tau(   7) = (   0.2500000   0.7912271   0.3334257  )
         8           Rb  tau(   8) = (   0.7500000   0.8627656   1.5584693  )
         9           S   tau(   9) = (   0.2500000   1.2182947   1.1508984  )
        10           S   tau(  10) = (   0.7500000   0.4356981   0.7409966  )
        11           S   tau(  11) = (   0.2500000   0.3912983   1.6869441  )
        12           S   tau(  12) = (   0.7500000   1.2626944   0.2049509  )

   Crystallographic axes

     site n.     atom                  positions (cryst. coord.)
         1           K   tau(   1) = (  0.7500000  0.6469130  0.4246210  )
         2           K   tau(   2) = (  0.2500000  0.3530870  0.5753790  )
         3           K   tau(   3) = (  0.7500000  0.1469130  0.0753790  )
         4           K   tau(   4) = (  0.2500000  0.8530870  0.9246210  )
         5           Rb  tau(   5) = (  0.2500000  0.9783740  0.3237610  )
         6           Rb  tau(   6) = (  0.7500000  0.0216260  0.6762390  )
         7           Rb  tau(   7) = (  0.2500000  0.4783740  0.1762390  )
         8           Rb  tau(   8) = (  0.7500000  0.5216260  0.8237610  )
         9           S   tau(   9) = (  0.2500000  0.7365780  0.6083310  )
        10           S   tau(  10) = (  0.7500000  0.2634220  0.3916690  )
        11           S   tau(  11) = (  0.2500000  0.2365780  0.8916690  )
        12           S   tau(  12) = (  0.7500000  0.7634220  0.1083310  )

     number of k points=     8
                       cart. coord. in units 2pi/alat
        k(    1) = (   0.0000000   0.0000000   0.0000000), wk =   0.0740741
        k(    2) = (   0.0000000   0.0000000   0.1761902), wk =   0.1481481
        k(    3) = (   0.0000000   0.2015325   0.0000000), wk =   0.1481481
        k(    4) = (   0.0000000   0.2015325   0.1761902), wk =   0.2962963
        k(    5) = (   0.3333333   0.0000000   0.0000000), wk =   0.1481481
        k(    6) = (   0.3333333   0.0000000   0.1761902), wk =   0.2962963
        k(    7) = (   0.3333333   0.2015325   0.0000000), wk =   0.2962963
        k(    8) = (   0.3333333   0.2015325   0.1761902), wk =   0.5925926

                       cryst. coord.
        k(    1) = (   0.0000000   0.0000000   0.0000000), wk =   0.0740741
        k(    2) = (   0.0000000   0.0000000   0.3333333), wk =   0.1481481
        k(    3) = (   0.0000000   0.3333333   0.0000000), wk =   0.1481481
        k(    4) = (   0.0000000   0.3333333   0.3333333), wk =   0.2962963
        k(    5) = (   0.3333333   0.0000000   0.0000000), wk =   0.1481481
        k(    6) = (   0.3333333   0.0000000   0.3333333), wk =   0.2962963
        k(    7) = (   0.3333333   0.3333333   0.0000000), wk =   0.2962963
        k(    8) = (   0.3333333   0.3333333   0.3333333), wk =   0.5925926

     Dense  grid:   170927 G-vectors     FFT dimensions: (  48,  80,  90)

     Smooth grid:    60449 G-vectors     FFT dimensions: (  36,  60,  64)

     Dynamical RAM for                 wfc:       1.84 MB

     Dynamical RAM for     wfc (w. buffer):       9.22 MB

     Dynamical RAM for           str. fact:       1.96 MB

     Dynamical RAM for           local pot:       0.00 MB

     Dynamical RAM for          nlocal pot:       6.22 MB

     Dynamical RAM for                qrad:       3.73 MB

     Dynamical RAM for          rho,v,vnew:       3.98 MB

     Dynamical RAM for               rhoin:       1.33 MB

     Dynamical RAM for            rho*nmix:      10.43 MB

     Dynamical RAM for           G-vectors:       2.56 MB

     Dynamical RAM for          h,s,v(r/c):       0.19 MB

     Dynamical RAM for          <psi|beta>:       0.21 MB

     Dynamical RAM for                 psi:       3.69 MB

     Dynamical RAM for                hpsi:       3.69 MB

     Dynamical RAM for                spsi:       3.69 MB

     Dynamical RAM for      wfcinit/wfcrot:       4.02 MB

     Dynamical RAM for           addusdens:      62.27 MB

     Estimated static dynamical RAM per process >      34.97 MB

     Estimated max dynamical RAM per process >     107.67 MB

     Estimated total dynamical RAM >     819.66 MB

     Check: negative core charge=   -0.000002

     Initial potential from superposition of free atoms

     starting charge      95.8255, renormalised to      96.0000
     Starting wfcs are   68 randomized atomic wfcs
     Checking if some PAW data can be deallocated... 
       PAW data deallocated on    6 nodes for type:  1

     total cpu time spent up to now is        3.8 secs

     Self-consistent Calculation

     iteration #  1     ecut=    30.00 Ry     beta= 0.70
     Davidson diagonalization with overlap

---- Real-time Memory Report at c_bands before calling an iterative solver
           212 MiB given to the printing process from OS
             0 MiB allocation reported by mallinfo(arena+hblkhd)
         51137 MiB available memory on the node where the printing process lives
------------------
     ethr =  1.00E-02,  avg # of iterations =  7.5

     total cpu time spent up to now is        6.1 secs

     total energy              =    -744.43500384 Ry
     estimated scf accuracy    <       1.33352495 Ry

     iteration #  2     ecut=    30.00 Ry     beta= 0.70
     Davidson diagonalization with overlap

---- Real-time Memory Report at c_bands before calling an iterative solver
           249 MiB given to the printing process from OS
             0 MiB allocation reported by mallinfo(arena+hblkhd)
         50810 MiB available memory on the node where the printing process lives
------------------
     ethr =  1.39E-03,  avg # of iterations =  5.0

     total cpu time spent up to now is        7.6 secs

     total energy              =    -744.76613300 Ry
     estimated scf accuracy    <       1.29174237 Ry

     iteration #  3     ecut=    30.00 Ry     beta= 0.70
     Davidson diagonalization with overlap

---- Real-time Memory Report at c_bands before calling an iterative solver
           258 MiB given to the printing process from OS
             0 MiB allocation reported by mallinfo(arena+hblkhd)
         50461 MiB available memory on the node where the printing process lives
------------------
     ethr =  1.35E-03,  avg # of iterations =  2.0

     total cpu time spent up to now is        8.7 secs

     total energy              =    -745.03149207 Ry
     estimated scf accuracy    <       0.00988225 Ry

     iteration #  4     ecut=    30.00 Ry     beta= 0.70
     Davidson diagonalization with overlap

---- Real-time Memory Report at c_bands before calling an iterative solver
           264 MiB given to the printing process from OS
             0 MiB allocation reported by mallinfo(arena+hblkhd)
         50693 MiB available memory on the node where the printing process lives
------------------
     ethr =  1.03E-05,  avg # of iterations = 15.6

     total cpu time spent up to now is       10.6 secs

     total energy              =    -745.03479022 Ry
     estimated scf accuracy    <       0.00312293 Ry

     iteration #  5     ecut=    30.00 Ry     beta= 0.70
     Davidson diagonalization with overlap

---- Real-time Memory Report at c_bands before calling an iterative solver
           273 MiB given to the printing process from OS
             0 MiB allocation reported by mallinfo(arena+hblkhd)
         50654 MiB available memory on the node where the printing process lives
------------------
     ethr =  3.25E-06,  avg # of iterations =  5.4

     total cpu time spent up to now is       11.9 secs

     total energy              =    -745.03499121 Ry
     estimated scf accuracy    <       0.00026805 Ry

     iteration #  6     ecut=    30.00 Ry     beta= 0.70
     Davidson diagonalization with overlap

---- Real-time Memory Report at c_bands before calling an iterative solver
           277 MiB given to the printing process from OS
             0 MiB allocation reported by mallinfo(arena+hblkhd)
         50398 MiB available memory on the node where the printing process lives
------------------
     ethr =  2.79E-07,  avg # of iterations =  4.6

     total cpu time spent up to now is       13.2 secs

     total energy              =    -745.03504177 Ry
     estimated scf accuracy    <       0.00000716 Ry

     iteration #  7     ecut=    30.00 Ry     beta= 0.70
     Davidson diagonalization with overlap

---- Real-time Memory Report at c_bands before calling an iterative solver
           277 MiB given to the printing process from OS
             0 MiB allocation reported by mallinfo(arena+hblkhd)
         50647 MiB available memory on the node where the printing process lives
------------------
     ethr =  7.46E-09,  avg # of iterations =  5.0

     total cpu time spent up to now is       14.6 secs

     total energy              =    -745.03504658 Ry
     estimated scf accuracy    <       0.00000171 Ry

     iteration #  8     ecut=    30.00 Ry     beta= 0.70
     Davidson diagonalization with overlap

---- Real-time Memory Report at c_bands before calling an iterative solver
           279 MiB given to the printing process from OS
             0 MiB allocation reported by mallinfo(arena+hblkhd)
         50640 MiB available memory on the node where the printing process lives
------------------
     ethr =  1.78E-09,  avg # of iterations =  2.0

     total cpu time spent up to now is       15.6 secs

     End of self-consistent calculation

          k = 0.0000 0.0000 0.0000 (  7561 PWs)   bands (ev):

   -25.7346 -25.7336 -25.7134 -25.7134 -22.8401 -22.8323 -22.8266 -22.8184
    -9.3829  -9.3515  -9.3373  -9.3277  -9.3150  -9.3001  -9.2478  -9.2218
    -9.2198  -9.2175  -9.2153  -9.2101  -7.1967  -7.1879  -7.0756  -7.0162
    -6.9910  -6.9380  -6.9280  -6.9034  -6.8693  -6.8606  -6.8531  -6.8446
    -6.1261  -5.8644  -5.8103  -5.7959   2.7386   2.7883   3.0580   3.1481
     3.2389   3.3421   3.3789   3.3999   3.4520   3.4783   3.5156   3.5950
     5.8079   7.2899   7.8550   7.9463   8.0731   8.0744   8.3287   8.5794
     8.7197   9.1199   9.1362   9.1555   9.2082   9.3964   9.4395   9.8044

     occupation numbers 
     1.0000   1.0000   1.0000   1.0000   1.0000   1.0000   1.0000   1.0000
     1.0000   1.0000   1.0000   1.0000   1.0000   1.0000   1.0000   1.0000
     1.0000   1.0000   1.0000   1.0000   1.0000   1.0000   1.0000   1.0000
     1.0000   1.0000   1.0000   1.0000   1.0000   1.0000   1.0000   1.0000
     1.0000   1.0000   1.0000   1.0000   1.0000   1.0000   1.0000   1.0000
     1.0000   1.0000   1.0000   1.0000   1.0000   1.0000   1.0000   1.0000
     0.0000   0.0000   0.0000   0.0000   0.0000   0.0000   0.0000   0.0000
     0.0000   0.0000   0.0000   0.0000   0.0000   0.0000   0.0000   0.0000

          k = 0.0000 0.0000 0.1762 (  7542 PWs)   bands (ev):

   -25.7343 -25.7338 -25.7134 -25.7134 -22.8389 -22.8355 -22.8233 -22.8197
    -9.3770  -9.3609  -9.3246  -9.3234  -9.3180  -9.3052  -9.2427  -9.2298
    -9.2189  -9.2180  -9.2142  -9.2115  -7.1708  -7.1633  -7.0916  -7.0833
    -6.9536  -6.9373  -6.9326  -6.9325  -6.8631  -6.8597  -6.8553  -6.8503
    -6.0448  -5.9164  -5.8066  -5.7989   2.8381   2.8903   3.0368   3.0930
     3.1518   3.2190   3.3434   3.3638   3.4953   3.4962   3.5167   3.5648
     6.3321   7.3164   7.6276   7.9102   7.9760   8.0808   8.1313   8.3125
     8.7360   8.7890   9.0157   9.0826   9.3254   9.4220   9.5377   9.7328

     occupation numbers 
     1.0000   1.0000   1.0000   1.0000   1.0000   1.0000   1.0000   1.0000
     1.0000   1.0000   1.0000   1.0000   1.0000   1.0000   1.0000   1.0000
     1.0000   1.0000   1.0000   1.0000   1.0000   1.0000   1.0000   1.0000
     1.0000   1.0000   1.0000   1.0000   1.0000   1.0000   1.0000   1.0000
     1.0000   1.0000   1.0000   1.0000   1.0000   1.0000   1.0000   1.0000
     1.0000   1.0000   1.0000   1.0000   1.0000   1.0000   1.0000   1.0000
     0.0000   0.0000   0.0000   0.0000   0.0000   0.0000   0.0000   0.0000
     0.0000   0.0000   0.0000   0.0000   0.0000   0.0000   0.0000   0.0000

          k = 0.0000 0.2015 0.0000 (  7566 PWs)   bands (ev):

   -25.7343 -25.7338 -25.7134 -25.7134 -22.8381 -22.8343 -22.8246 -22.8204
    -9.3811  -9.3680  -9.3241  -9.3191  -9.3175  -9.3013  -9.2425  -9.2266
    -9.2200  -9.2188  -9.2139  -9.2124  -7.2028  -7.1198  -7.1050  -7.0234
    -6.9871  -6.9355  -6.9305  -6.9209  -6.8954  -6.8672  -6.8654  -6.8573
    -6.0154  -5.8601  -5.8510  -5.8214   2.7439   2.7975   2.8761   3.1871
     3.3068   3.3318   3.3699   3.4250   3.4339   3.4446   3.4621   3.5420
     6.4635   7.5760   7.6023   7.8282   7.9596   8.2049   8.5254   8.5610
     8.6546   8.9156   9.0097   9.1837   9.1869   9.2049   9.3163   9.5426

     occupation numbers 
     1.0000   1.0000   1.0000   1.0000   1.0000   1.0000   1.0000   1.0000
     1.0000   1.0000   1.0000   1.0000   1.0000   1.0000   1.0000   1.0000
     1.0000   1.0000   1.0000   1.0000   1.0000   1.0000   1.0000   1.0000
     1.0000   1.0000   1.0000   1.0000   1.0000   1.0000   1.0000   1.0000
     1.0000   1.0000   1.0000   1.0000   1.0000   1.0000   1.0000   1.0000
     1.0000   1.0000   1.0000   1.0000   1.0000   1.0000   1.0000   1.0000
     0.0000   0.0000   0.0000   0.0000   0.0000   0.0000   0.0000   0.0000
     0.0000   0.0000   0.0000   0.0000   0.0000   0.0000   0.0000   0.0000

          k = 0.0000 0.2015 0.1762 (  7567 PWs)   bands (ev):

   -25.7342 -25.7339 -25.7134 -25.7134 -22.8375 -22.8356 -22.8231 -22.8212
    -9.3733  -9.3640  -9.3222  -9.3200  -9.3189  -9.3086  -9.2398  -9.2322
    -9.2196  -9.2193  -9.2138  -9.2128  -7.1740  -7.1164  -7.1099  -7.0868
    -6.9553  -6.9395  -6.9358  -6.9334  -6.8827  -6.8715  -6.8616  -6.8577
    -5.9688  -5.8904  -5.8438  -5.8288   2.7877   2.8276   2.8700   2.9992
     3.3166   3.3817   3.3818   3.4144   3.4460   3.4580   3.4850   3.5154
     6.8217   7.5161   7.7794   7.8098   8.0123   8.0919   8.2164   8.3962
     8.6225   8.6529   8.9079   8.9613   9.0909   9.1125   9.3467   9.4775

     occupation numbers 
     1.0000   1.0000   1.0000   1.0000   1.0000   1.0000   1.0000   1.0000
     1.0000   1.0000   1.0000   1.0000   1.0000   1.0000   1.0000   1.0000
     1.0000   1.0000   1.0000   1.0000   1.0000   1.0000   1.0000   1.0000
     1.0000   1.0000   1.0000   1.0000   1.0000   1.0000   1.0000   1.0000
     1.0000   1.0000   1.0000   1.0000   1.0000   1.0000   1.0000   1.0000
     1.0000   1.0000   1.0000   1.0000   1.0000   1.0000   1.0000   1.0000
     0.0000   0.0000   0.0000   0.0000   0.0000   0.0000   0.0000   0.0000
     0.0000   0.0000   0.0000   0.0000   0.0000   0.0000   0.0000   0.0000

          k = 0.3333 0.0000 0.0000 (  7574 PWs)   bands (ev):

   -25.7286 -25.7280 -25.7180 -25.7179 -22.8359 -22.8292 -22.8278 -22.8208
    -9.4080  -9.4078  -9.3800  -9.3719  -9.2856  -9.2649  -9.2514  -9.2370
    -9.2248  -9.2220  -9.2113  -9.1979  -7.1392  -7.1224  -7.1057  -7.1033
    -7.0041  -6.9893  -6.9439  -6.9134  -6.8827  -6.8798  -6.8584  -6.8501
    -5.8860  -5.8859  -5.8822  -5.7959   2.8840   2.9140   2.9972   3.1388
     3.1410   3.2039   3.3390   3.3395   3.3810   3.4175   3.4365   3.4376
     7.1737   7.8068   7.8172   7.8300   8.1629   8.2365   8.2499   8.3456
     8.7609   8.8644   9.0318   9.4772   9.5315   9.6611   9.6850   9.8368

     occupation numbers 
     1.0000   1.0000   1.0000   1.0000   1.0000   1.0000   1.0000   1.0000
     1.0000   1.0000   1.0000   1.0000   1.0000   1.0000   1.0000   1.0000
     1.0000   1.0000   1.0000   1.0000   1.0000   1.0000   1.0000   1.0000
     1.0000   1.0000   1.0000   1.0000   1.0000   1.0000   1.0000   1.0000
     1.0000   1.0000   1.0000   1.0000   1.0000   1.0000   1.0000   1.0000
     1.0000   1.0000   1.0000   1.0000   1.0000   1.0000   1.0000   1.0000
     0.0000   0.0000   0.0000   0.0000   0.0000   0.0000   0.0000   0.0000
     0.0000   0.0000   0.0000   0.0000   0.0000   0.0000   0.0000   0.0000

          k = 0.3333 0.0000 0.1762 (  7553 PWs)   bands (ev):

   -25.7285 -25.7281 -25.7180 -25.7179 -22.8350 -22.8324 -22.8246 -22.8218
    -9.4066  -9.4059  -9.3798  -9.3746  -9.2804  -9.2697  -9.2473  -9.2401
    -9.2247  -9.2223  -9.2075  -9.2001  -7.1464  -7.1446  -7.1001  -7.0931
    -7.0141  -7.0122  -6.9102  -6.9032  -6.8873  -6.8866  -6.8532  -6.8508
    -5.8958  -5.8894  -5.8458  -5.8090   2.8110   2.8384   3.1028   3.1740
     3.1812   3.2493   3.2766   3.3347   3.3816   3.3999   3.4347   3.4384
     7.3918   7.7192   7.7538   7.8162   7.8897   8.1556   8.2815   8.3796
     8.8178   8.8811   9.2768   9.3934   9.5959   9.6595  10.0093  10.0605

     occupation numbers 
     1.0000   1.0000   1.0000   1.0000   1.0000   1.0000   1.0000   1.0000
     1.0000   1.0000   1.0000   1.0000   1.0000   1.0000   1.0000   1.0000
     1.0000   1.0000   1.0000   1.0000   1.0000   1.0000   1.0000   1.0000
     1.0000   1.0000   1.0000   1.0000   1.0000   1.0000   1.0000   1.0000
     1.0000   1.0000   1.0000   1.0000   1.0000   1.0000   1.0000   1.0000
     1.0000   1.0000   1.0000   1.0000   1.0000   1.0000   1.0000   1.0000
     0.0000   0.0000   0.0000   0.0000   0.0000   0.0000   0.0000   0.0000
     0.0000   0.0000   0.0000   0.0000   0.0000   0.0000   0.0000   0.0000

          k = 0.3333 0.2015 0.0000 (  7548 PWs)   bands (ev):

   -25.7285 -25.7281 -25.7180 -25.7179 -22.8339 -22.8298 -22.8271 -22.8229
    -9.4100  -9.3974  -9.3937  -9.3755  -9.2781  -9.2701  -9.2459  -9.2390
    -9.2233  -9.2199  -9.2082  -9.2020  -7.1181  -7.1126  -7.1061  -7.0847
    -6.9979  -6.9723  -6.9631  -6.9157  -6.8891  -6.8811  -6.8794  -6.8692
    -5.8843  -5.8832  -5.8640  -5.8209   2.8467   2.9029   2.9621   3.0727
     3.1159   3.3102   3.3480   3.3578   3.3927   3.4149   3.4158   3.4319
     7.4017   7.7728   7.9600   7.9940   8.1688   8.3093   8.3367   8.3984
     8.7882   8.8842   8.9931   9.1292   9.4278   9.4686   9.6561   9.7401

     occupation numbers 
     1.0000   1.0000   1.0000   1.0000   1.0000   1.0000   1.0000   1.0000
     1.0000   1.0000   1.0000   1.0000   1.0000   1.0000   1.0000   1.0000
     1.0000   1.0000   1.0000   1.0000   1.0000   1.0000   1.0000   1.0000
     1.0000   1.0000   1.0000   1.0000   1.0000   1.0000   1.0000   1.0000
     1.0000   1.0000   1.0000   1.0000   1.0000   1.0000   1.0000   1.0000
     1.0000   1.0000   1.0000   1.0000   1.0000   1.0000   1.0000   1.0000
     0.0000   0.0000   0.0000   0.0000   0.0000   0.0000   0.0000   0.0000
     0.0000   0.0000   0.0000   0.0000   0.0000   0.0000   0.0000   0.0000

          k = 0.3333 0.2015 0.1762 (  7540 PWs)   bands (ev):

   -25.7284 -25.7282 -25.7180 -25.7179 -22.8333 -22.8315 -22.8254 -22.8236
    -9.4046  -9.3964  -9.3919  -9.3809  -9.2762  -9.2713  -9.2471  -9.2422
    -9.2223  -9.2194  -9.2058  -9.2026  -7.1341  -7.1273  -7.1038  -7.0969
    -6.9919  -6.9711  -6.9303  -6.9091  -6.8932  -6.8910  -6.8755  -6.8730
    -5.8836  -5.8731  -5.8564  -5.8308   2.8226   2.8742   2.9344   3.0249
     3.2232   3.2867   3.3581   3.3591   3.4055   3.4229   3.4271   3.4407
     7.5414   7.7265   7.8762   7.9015   8.0023   8.2175   8.2850   8.3378
     8.8585   9.0275   9.1723   9.3247   9.3903   9.5787   9.7565   9.8856

     occupation numbers 
     1.0000   1.0000   1.0000   1.0000   1.0000   1.0000   1.0000   1.0000
     1.0000   1.0000   1.0000   1.0000   1.0000   1.0000   1.0000   1.0000
     1.0000   1.0000   1.0000   1.0000   1.0000   1.0000   1.0000   1.0000
     1.0000   1.0000   1.0000   1.0000   1.0000   1.0000   1.0000   1.0000
     1.0000   1.0000   1.0000   1.0000   1.0000   1.0000   1.0000   1.0000
     1.0000   1.0000   1.0000   1.0000   1.0000   1.0000   1.0000   1.0000
     0.0000   0.0000   0.0000   0.0000   0.0000   0.0000   0.0000   0.0000
     0.0000   0.0000   0.0000   0.0000   0.0000   0.0000   0.0000   0.0000

     highest occupied, lowest unoccupied level (ev):     3.5950    5.8079

!    total energy              =    -745.03504695 Ry
     estimated scf accuracy    <       0.00000003 Ry

     The total energy is the sum of the following terms:
     one-electron contribution =    -153.82864565 Ry
     hartree contribution      =     107.06724740 Ry
     xc contribution           =    -109.10689516 Ry
     ewald contribution        =    -367.49599550 Ry
     one-center paw contrib.   =    -221.67075804 Ry
      -> PAW hartree energy AE =      75.66150001 Ry
      -> PAW hartree energy PS =     -75.24064085 Ry
      -> PAW xc energy AE      =    -132.46784052 Ry
      -> PAW xc energy PS      =      21.21160234 Ry
      -> total E_H with PAW    =     107.48810656 Ry
      -> total E_XC with PAW   =    -220.36313334 Ry

     convergence has been achieved in   8 iterations

     Writing all to output data dir calculations_bands/myprefix.save/
 
     init_run     :     10.30s CPU      3.55s WALL (       1 calls)
     electrons    :     43.93s CPU     11.93s WALL (       1 calls)

     Called by init_run:
     wfcinit      :      1.40s CPU      0.39s WALL (       1 calls)
     wfcinit:atom :      0.01s CPU      0.00s WALL (       4 calls)
     wfcinit:wfcr :      1.27s CPU      0.33s WALL (       4 calls)
     potinit      :      3.55s CPU      1.10s WALL (       1 calls)
     hinit0       :      3.75s CPU      1.52s WALL (       1 calls)

     Called by electrons:
     c_bands      :     26.80s CPU      7.04s WALL (       8 calls)
     sum_band     :      6.19s CPU      1.82s WALL (       8 calls)
     v_of_rho     :      1.45s CPU      0.40s WALL (       9 calls)
     v_h          :      0.11s CPU      0.03s WALL (       9 calls)
     v_xc         :      1.34s CPU      0.38s WALL (       9 calls)
     newd         :      4.17s CPU      1.28s WALL (       9 calls)
     PAW_pot      :      5.62s CPU      1.49s WALL (       9 calls)
     mix_rho      :      0.40s CPU      0.11s WALL (       8 calls)

     Called by c_bands:
     init_us_2    :      0.20s CPU      0.07s WALL (      68 calls)
     init_us_2:cp :      0.19s CPU      0.07s WALL (      68 calls)
     cegterg      :     22.53s CPU      5.91s WALL (      32 calls)

     Called by sum_band:
     sum_band:wei :      0.02s CPU      0.01s WALL (       8 calls)
     sum_band:loo :      3.01s CPU      0.78s WALL (       8 calls)
     sum_band:buf :      0.06s CPU      0.02s WALL (      32 calls)
     sum_band:ini :      0.08s CPU      0.02s WALL (      32 calls)
     sum_band:cal :      0.33s CPU      0.08s WALL (      32 calls)
     sum_band:bec :      0.01s CPU      0.00s WALL (      32 calls)
     addusdens    :      1.80s CPU      0.66s WALL (       8 calls)
     addusd:skk   :      0.01s CPU      0.00s WALL (      16 calls)
     addusd:dgemm :      0.28s CPU      0.25s WALL (      16 calls)
     addusd:qvan2 :      1.18s CPU      0.30s WALL (      16 calls)

     Called by *egterg:
     cdiaghg      :      3.96s CPU      1.04s WALL (     204 calls)
     cegterg:over :      1.57s CPU      0.41s WALL (     172 calls)
     cegterg:upda :      0.76s CPU      0.21s WALL (     172 calls)
     cegterg:last :      0.92s CPU      0.23s WALL (      72 calls)
     cdiaghg:chol :      0.33s CPU      0.09s WALL (     204 calls)
     cdiaghg:inve :      0.05s CPU      0.01s WALL (     204 calls)
     cdiaghg:para :      0.75s CPU      0.20s WALL (     408 calls)
     h_psi        :     15.40s CPU      4.02s WALL (     208 calls)
     s_psi        :      0.58s CPU      0.15s WALL (     208 calls)
     g_psi        :      0.03s CPU      0.01s WALL (     172 calls)

     Called by h_psi:
     h_psi:calbec :      1.96s CPU      0.52s WALL (     208 calls)
     vloc_psi     :     12.69s CPU      3.31s WALL (     208 calls)
     add_vuspsi   :      0.69s CPU      0.18s WALL (     208 calls)

     General routines
     calbec       :      2.28s CPU      0.60s WALL (     240 calls)
     fft          :      2.58s CPU      0.92s WALL (     115 calls)
     ffts         :      0.91s CPU      0.33s WALL (      17 calls)
     fftw         :     13.49s CPU      3.52s WALL (   13644 calls)
     interpolate  :      0.99s CPU      0.35s WALL (       9 calls)
 
     Parallel routines

     PAW routines
     PAW_pot      :      5.62s CPU      1.49s WALL (       9 calls)
     PAW_symme    :      0.48s CPU      0.13s WALL (      17 calls)
 
     PWSCF        :     55.57s CPU     16.29s WALL

 
   This run was terminated on:   0:37:18   7Jun2023            

=------------------------------------------------------------------------------=
   JOB DONE.
=------------------------------------------------------------------------------=
