
     Program PWSCF v.7.0 starts on  6Jun2023 at 20:37:30 

     This program is part of the open-source Quantum ESPRESSO suite
     for quantum simulation of materials; please cite
         "P. Giannozzi et al., J. Phys.:Condens. Matter 21 395502 (2009);
         "P. Giannozzi et al., J. Phys.:Condens. Matter 29 465901 (2017);
         "P. Giannozzi et al., J. Chem. Phys. 152 154105 (2020);
          URL http://www.quantum-espresso.org", 
     in publications or presentations arising from this work. More details at
     http://www.quantum-espresso.org/quote

     Parallel version (MPI & OpenMP), running on      32 processor cores
     Number of MPI processes:                 8
     Threads/MPI process:                     4

     MPI processes distributed on     1 nodes
     K-points division:     npool     =       2
     R & G space division:  proc/nbgrp/npool/nimage =       4
     51266 MiB available memory on the printing compute node when the environment starts
 
     Reading input from espresso_309.pwi
Warning: card &CELL ignored
Warning: card / ignored

     Current dimensions of program PWSCF are:
     Max number of different atomic species (ntypx) = 10
     Max number of k-points (npk) =  40000
     Max angular momentum in pseudopotentials (lmaxx) =  4
     file In.pbe-dn-rrkjus_psl.0.2.2.UPF: wavefunction(s)  5S renormalized

     Subspace diagonalization in iterative solution of the eigenvalue problem:
     one sub-group per band group will be used
     scalapack distributed-memory algorithm (size of sub-group:  2*  2 procs)

 
     Parallelization info
     --------------------
     sticks:   dense  smooth     PW     G-vecs:    dense   smooth      PW
     Min         643     323     92                16324     5771     908
     Max         644     324     93                16325     5772     909
     Sum        2573    1293    371                65299    23087    3633
 
     Using Slab Decomposition
 


     bravais-lattice index     =            0
     lattice parameter (alat)  =      11.6695  a.u.
     unit-cell volume          =    1041.9216 (a.u.)^3
     number of atoms/cell      =            6
     number of atomic types    =            3
     number of electrons       =        42.00
     number of Kohn-Sham states=           64
     kinetic-energy cutoff     =      30.0000  Ry
     charge density cutoff     =     240.0000  Ry
     scf convergence threshold =      1.0E-06
     mixing beta               =       0.7000
     number of iterations used =            8  plain     mixing
     Exchange-correlation=  SLA  PW   PBX  PBC
                           (   1   4   3   4   0   0   0)

     celldm(1)=  11.669531  celldm(2)=   0.000000  celldm(3)=   0.000000
     celldm(4)=   0.000000  celldm(5)=   0.000000  celldm(6)=   0.000000

     crystal axes: (cart. coord. in units of alat)
               a(1) = (   1.000000   0.000000   0.000000 )  
               a(2) = (   0.126298   0.991992   0.000000 )  
               a(3) = (  -0.563149  -0.495996   0.660947 )  

     reciprocal axes: (cart. coord. in units 2 pi/alat)
               b(1) = (  1.000000 -0.127318  0.756490 )  
               b(2) = (  0.000000  1.008072  0.756490 )  
               b(3) = (  0.000000  0.000000  1.512981 )  


     PseudoPot. # 1 for In read from file:
     /home/pragov/projects/rrg-bengioy-ad/pragov/crystal_structure_design/SSSP/In.pbe-dn-rrkjus_psl.0.2.2.UPF
     MD5 check sum: 25e7c42c3b55b68f4bf926be2e7201a4
     Pseudo is Ultrasoft + core correction, Zval = 13.0
     Generated using "atomic" code by A. Dal Corso  v.5.0.99 svn rev. 10869
     Using radial grid of 1241 points,  6 beta functions with: 
                l(1) =   0
                l(2) =   0
                l(3) =   1
                l(4) =   1
                l(5) =   2
                l(6) =   2
     Q(r) pseudized with 0 coefficients 


     PseudoPot. # 2 for P  read from file:
     /home/pragov/projects/rrg-bengioy-ad/pragov/crystal_structure_design/SSSP/P.pbe-n-rrkjus_psl.1.0.0.UPF
     MD5 check sum: 8b930f418f0a4573dca56cd030ffe088
     Pseudo is Ultrasoft + core correction, Zval =  5.0
     Generated using "atomic" code by A. Dal Corso  v.5.1
     Using radial grid of 1147 points,  6 beta functions with: 
                l(1) =   0
                l(2) =   0
                l(3) =   1
                l(4) =   1
                l(5) =   2
                l(6) =   2
     Q(r) pseudized with 0 coefficients 


     PseudoPot. # 3 for S  read from file:
     /home/pragov/projects/rrg-bengioy-ad/pragov/crystal_structure_design/SSSP/s_pbe_v1.4.uspp.F.UPF
     MD5 check sum: 88d86576ff6df21479756cfb9bdac1df
     Pseudo is Ultrasoft + core correction, Zval =  6.0
     Generated by new atomic code, or converted to UPF format
     Using radial grid of  907 points,  6 beta functions with: 
                l(1) =   0
                l(2) =   0
                l(3) =   1
                l(4) =   1
                l(5) =   2
                l(6) =   2
     Q(r) pseudized with  8 coefficients,  rinner =    1.300   1.300   1.300
                                                       1.300   1.300

     atomic species   valence    mass     pseudopotential
        In            13.00   114.81800     In( 1.00)
        P              5.00    30.97376     P ( 1.00)
        S              6.00    32.06000     S ( 1.00)

     No symmetry found


                                    s                        frac. trans.

      isym =  1     identity                                     

 cryst.   s( 1) = (     1          0          0      )
                  (     0          1          0      )
                  (     0          0          1      )

 cart.    s( 1) = (  1.0000000 -0.0000000 -0.0000000 )
                  (  0.0000000  1.0000000  0.0000000 )
                  (  0.0000000  0.0000000  1.0000000 )


   Cartesian axes

     site n.     atom                  positions (alat units)
         1           In  tau(   1) = (   0.0000000   0.0000000   0.0000000  )
         2           P   tau(   2) = (   0.5000000  -0.0000000   0.3304735  )
         3           S   tau(   3) = (   0.6170815   0.1354719   0.0488235  )
         4           S   tau(   4) = (  -0.3508247   0.0990341   0.6121234  )
         5           S   tau(   5) = (   0.1807159   0.0941058   0.3547520  )
         6           S   tau(   6) = (   0.6793266   0.6633795   0.3061949  )

   Crystallographic axes

     site n.     atom                  positions (cryst. coord.)
         1           In  tau(   1) = (  0.0000000  0.0000000  0.0000000  )
         2           P   tau(   2) = (  0.7500000  0.2500000  0.5000000  )
         3           S   tau(   3) = (  0.6367680  0.1735000  0.0738690  )
         4           S   tau(   4) = (  0.0996320  0.5628990  0.9261310  )
         5           S   tau(   5) = (  0.4371010  0.3632320  0.5367330  )
         6           S   tau(   6) = (  0.8265000  0.9003680  0.4632670  )

     number of k points=    14
                       cart. coord. in units 2pi/alat
        k(    1) = (   0.0000000   0.0000000   0.0000000), wk =   0.0740741
        k(    2) = (   0.0000000   0.0000000   0.5043269), wk =   0.1481481
        k(    3) = (   0.0000000   0.3360241   0.2521635), wk =   0.1481481
        k(    4) = (   0.0000000   0.3360241   0.7564904), wk =   0.1481481
        k(    5) = (   0.3333333  -0.0424393   0.2521635), wk =   0.1481481
        k(    6) = (   0.3333333  -0.0424393   0.7564904), wk =   0.1481481
        k(    7) = (   0.3333333   0.2935848   0.5043269), wk =   0.1481481
        k(    8) = (   0.3333333   0.2935848   0.0000000), wk =   0.1481481
        k(    9) = (   0.3333333  -0.3784634   0.0000000), wk =   0.1481481
        k(   10) = (   0.3333333  -0.3784634   0.5043269), wk =   0.1481481
        k(   11) = (   0.0000000  -0.3360241   0.2521635), wk =   0.1481481
        k(   12) = (  -0.3333333   0.0424393   0.2521635), wk =   0.1481481
        k(   13) = (  -0.3333333  -0.2935848   0.5043269), wk =   0.1481481
        k(   14) = (  -0.3333333   0.3784634   0.5043269), wk =   0.1481481

                       cryst. coord.
        k(    1) = (   0.0000000   0.0000000   0.0000000), wk =   0.0740741
        k(    2) = (   0.0000000   0.0000000   0.3333333), wk =   0.1481481
        k(    3) = (   0.0000000   0.3333333   0.0000000), wk =   0.1481481
        k(    4) = (   0.0000000   0.3333333   0.3333333), wk =   0.1481481
        k(    5) = (   0.3333333  -0.0000000   0.0000000), wk =   0.1481481
        k(    6) = (   0.3333333  -0.0000000   0.3333333), wk =   0.1481481
        k(    7) = (   0.3333333   0.3333333   0.0000000), wk =   0.1481481
        k(    8) = (   0.3333333   0.3333333  -0.3333333), wk =   0.1481481
        k(    9) = (   0.3333333  -0.3333333   0.0000000), wk =   0.1481481
        k(   10) = (   0.3333333  -0.3333333   0.3333333), wk =   0.1481481
        k(   11) = (   0.0000000  -0.3333333   0.3333333), wk =   0.1481481
        k(   12) = (  -0.3333333   0.0000000   0.3333333), wk =   0.1481481
        k(   13) = (  -0.3333333  -0.3333333   0.6666667), wk =   0.1481481
        k(   14) = (  -0.3333333   0.3333333   0.3333333), wk =   0.1481481

     Dense  grid:    65299 G-vectors     FFT dimensions: (  60,  60,  60)

     Smooth grid:    23087 G-vectors     FFT dimensions: (  45,  45,  45)

     Dynamical RAM for                 wfc:       0.71 MB

     Dynamical RAM for     wfc (w. buffer):       5.64 MB

     Dynamical RAM for           str. fact:       0.75 MB

     Dynamical RAM for           local pot:       0.00 MB

     Dynamical RAM for          nlocal pot:       1.19 MB

     Dynamical RAM for                qrad:       3.73 MB

     Dynamical RAM for          rho,v,vnew:       1.98 MB

     Dynamical RAM for               rhoin:       0.66 MB

     Dynamical RAM for            rho*nmix:       3.99 MB

     Dynamical RAM for           G-vectors:       0.98 MB

     Dynamical RAM for          h,s,v(r/c):       0.19 MB

     Dynamical RAM for          <psi|beta>:       0.11 MB

     Dynamical RAM for                 psi:       1.41 MB

     Dynamical RAM for                hpsi:       1.41 MB

     Dynamical RAM for                spsi:       1.41 MB

     Dynamical RAM for      wfcinit/wfcrot:       1.50 MB

     Dynamical RAM for           addusdens:      23.79 MB

     Estimated static dynamical RAM per process >      17.99 MB

     Estimated max dynamical RAM per process >      45.76 MB

     Estimated total dynamical RAM >     350.15 MB

     Initial potential from superposition of free atoms

     starting charge      41.9960, renormalised to      42.0000
     Starting wfcs are   29 randomized atomic wfcs +   35 random wfcs

     total cpu time spent up to now is        2.8 secs

     Self-consistent Calculation

     iteration #  1     ecut=    30.00 Ry     beta= 0.70
     Davidson diagonalization with overlap

---- Real-time Memory Report at c_bands before calling an iterative solver
           169 MiB given to the printing process from OS
             0 MiB allocation reported by mallinfo(arena+hblkhd)
         51072 MiB available memory on the node where the printing process lives
------------------
     ethr =  1.00E-02,  avg # of iterations =  6.9

     Threshold (ethr) on eigenvalues was too large:
     Diagonalizing with lowered threshold

     Davidson diagonalization with overlap

---- Real-time Memory Report at c_bands before calling an iterative solver
           204 MiB given to the printing process from OS
             0 MiB allocation reported by mallinfo(arena+hblkhd)
         50957 MiB available memory on the node where the printing process lives
------------------
     ethr =  6.25E-04,  avg # of iterations =  1.6

     total cpu time spent up to now is        7.1 secs

     total energy              =    -255.34722041 Ry
     estimated scf accuracy    <       0.26235070 Ry

     iteration #  2     ecut=    30.00 Ry     beta= 0.70
     Davidson diagonalization with overlap

---- Real-time Memory Report at c_bands before calling an iterative solver
           205 MiB given to the printing process from OS
             0 MiB allocation reported by mallinfo(arena+hblkhd)
         50792 MiB available memory on the node where the printing process lives
------------------
     ethr =  6.25E-04,  avg # of iterations =  3.6

     total cpu time spent up to now is        8.1 secs

     total energy              =    -255.39943298 Ry
     estimated scf accuracy    <       0.12875581 Ry

     iteration #  3     ecut=    30.00 Ry     beta= 0.70
     Davidson diagonalization with overlap

---- Real-time Memory Report at c_bands before calling an iterative solver
           211 MiB given to the printing process from OS
             0 MiB allocation reported by mallinfo(arena+hblkhd)
         50512 MiB available memory on the node where the printing process lives
------------------
     ethr =  3.07E-04,  avg # of iterations =  1.9

     total cpu time spent up to now is        9.1 secs

     total energy              =    -255.43038038 Ry
     estimated scf accuracy    <       0.00595956 Ry

     iteration #  4     ecut=    30.00 Ry     beta= 0.70
     Davidson diagonalization with overlap

---- Real-time Memory Report at c_bands before calling an iterative solver
           211 MiB given to the printing process from OS
             0 MiB allocation reported by mallinfo(arena+hblkhd)
         50268 MiB available memory on the node where the printing process lives
------------------
     ethr =  1.42E-05,  avg # of iterations =  9.6

     total cpu time spent up to now is       11.1 secs

     total energy              =    -255.43141601 Ry
     estimated scf accuracy    <       0.00151945 Ry

     iteration #  5     ecut=    30.00 Ry     beta= 0.70
     Davidson diagonalization with overlap

---- Real-time Memory Report at c_bands before calling an iterative solver
           214 MiB given to the printing process from OS
             0 MiB allocation reported by mallinfo(arena+hblkhd)
         50734 MiB available memory on the node where the printing process lives
------------------
     ethr =  3.62E-06,  avg # of iterations =  2.0

     total cpu time spent up to now is       11.9 secs

     total energy              =    -255.43180111 Ry
     estimated scf accuracy    <       0.00030403 Ry

     iteration #  6     ecut=    30.00 Ry     beta= 0.70
     Davidson diagonalization with overlap

---- Real-time Memory Report at c_bands before calling an iterative solver
           214 MiB given to the printing process from OS
             0 MiB allocation reported by mallinfo(arena+hblkhd)
         50544 MiB available memory on the node where the printing process lives
------------------
     ethr =  7.24E-07,  avg # of iterations =  1.0

     total cpu time spent up to now is       12.7 secs

     End of self-consistent calculation

          k = 0.0000 0.0000 0.0000 (  2879 PWs)   bands (ev):

   -11.4727 -10.4398 -10.3683 -10.3683 -10.1567 -10.1537  -8.2304  -8.2303
    -7.8474  -4.9117  -1.3207  -1.3207  -0.6857  -0.2135   0.7387   1.8832
     2.3800   2.3800   3.0555   3.0555   3.2302   5.9480   6.9237   7.3518
     8.4551   8.4551   9.2985  10.3964  10.5357  10.5357  11.6038  12.6094
    12.8739  13.4690  13.4691  13.4772  14.2458  15.6468  15.6468  16.2352
    16.2918  16.2919  16.6970  17.4184  17.7733  17.7733  17.8159  18.1817
    18.7587  18.7587  19.2802  20.0119  20.0120  20.3764  20.7367  21.1686
    21.1687  21.5275  22.1281  22.6921  24.2196  24.2571  24.2572  24.9216

     occupation numbers 
     1.0000   1.0000   1.0000   1.0000   1.0000   1.0000   1.0000   1.0000
     1.0000   1.0000   1.0000   1.0000   1.0000   1.0000   1.0000   1.0000
     1.0000   1.0000   1.0000   1.0000   1.0000   0.0000   0.0000   0.0000
     0.0000   0.0000   0.0000   0.0000   0.0000   0.0000   0.0000   0.0000
     0.0000   0.0000   0.0000   0.0000   0.0000   0.0000   0.0000   0.0000
     0.0000   0.0000   0.0000   0.0000   0.0000   0.0000   0.0000   0.0000
     0.0000   0.0000   0.0000   0.0000   0.0000   0.0000   0.0000   0.0000
     0.0000   0.0000   0.0000   0.0000   0.0000   0.0000   0.0000   0.0000

          k = 0.0000 0.0000 0.5043 (  2906 PWs)   bands (ev):

   -11.4041 -10.4591 -10.3557 -10.2048 -10.1534 -10.1491  -8.5822  -8.3116
    -8.0402  -4.2810  -2.1627  -0.9685  -0.8188   0.5748   1.0951   1.6783
     2.0352   2.4297   2.8758   2.9479   3.3909   6.4033   6.8657   7.7758
     8.2779   8.5010   8.8724   9.7173  10.9596  11.3388  11.7337  12.1028
    12.1772  12.6365  13.3586  13.8238  14.0064  14.6620  15.0518  15.3207
    15.6510  16.1724  16.7964  17.1082  17.4499  17.7510  18.1642  18.4000
    18.8786  19.2071  19.9345  20.6374  21.0105  21.4492  21.7294  21.8118
    22.3155  22.4295  22.5655  23.0341  23.6259  23.8322  24.2686  24.7461

     occupation numbers 
     1.0000   1.0000   1.0000   1.0000   1.0000   1.0000   1.0000   1.0000
     1.0000   1.0000   1.0000   1.0000   1.0000   1.0000   1.0000   1.0000
     1.0000   1.0000   1.0000   1.0000   1.0000   0.0000   0.0000   0.0000
     0.0000   0.0000   0.0000   0.0000   0.0000   0.0000   0.0000   0.0000
     0.0000   0.0000   0.0000   0.0000   0.0000   0.0000   0.0000   0.0000
     0.0000   0.0000   0.0000   0.0000   0.0000   0.0000   0.0000   0.0000
     0.0000   0.0000   0.0000   0.0000   0.0000   0.0000   0.0000   0.0000
     0.0000   0.0000   0.0000   0.0000   0.0000   0.0000   0.0000   0.0000

          k = 0.0000 0.3360 0.2522 (  2894 PWs)   bands (ev):

   -11.4241 -10.4306 -10.3630 -10.2614 -10.1580 -10.1456  -8.5098  -8.2905
    -8.0131  -4.4258  -1.6750  -1.2151  -0.6772   0.0637   1.2248   1.6637
     2.1179   2.3130   2.7404   3.0173   3.2970   6.4288   7.1032   7.6767
     8.0382   8.6862   9.2767   9.8708  10.4008  11.0705  11.6881  12.0293
    12.5322  12.7521  13.4037  13.7996  14.1185  14.4979  15.0552  15.4072
    15.9299  16.1424  16.9351  17.6145  17.8603  18.1825  18.5983  18.7344
    19.1696  19.3747  19.8515  20.3479  20.5539  21.0712  21.2964  21.6128
    21.8269  22.1427  22.5751  22.7397  23.0670  23.4786  23.8192  24.2002

     occupation numbers 
     1.0000   1.0000   1.0000   1.0000   1.0000   1.0000   1.0000   1.0000
     1.0000   1.0000   1.0000   1.0000   1.0000   1.0000   1.0000   1.0000
     1.0000   1.0000   1.0000   1.0000   1.0000   0.0000   0.0000   0.0000
     0.0000   0.0000   0.0000   0.0000   0.0000   0.0000   0.0000   0.0000
     0.0000   0.0000   0.0000   0.0000   0.0000   0.0000   0.0000   0.0000
     0.0000   0.0000   0.0000   0.0000   0.0000   0.0000   0.0000   0.0000
     0.0000   0.0000   0.0000   0.0000   0.0000   0.0000   0.0000   0.0000
     0.0000   0.0000   0.0000   0.0000   0.0000   0.0000   0.0000   0.0000

          k = 0.0000 0.3360 0.7565 (  2887 PWs)   bands (ev):

   -11.3924 -10.4467 -10.3527 -10.1747 -10.1603 -10.1212  -8.6516  -8.3433
    -8.1413  -4.0458  -2.1132  -1.0377  -0.8094   0.3130   1.2365   1.6153
     2.0523   2.4441   2.7975   3.3210   3.3909   6.2893   6.6944   7.7705
     7.9727   8.3587   9.1247  10.0655  10.3067  11.3622  11.8629  12.0450
    12.5516  12.8441  13.2772  13.7315  14.0000  14.4240  14.7928  15.3025
    15.9690  16.1567  16.7092  17.0223  17.6660  18.0633  18.4804  18.5536
    19.0022  19.4475  19.7592  20.3735  20.8192  21.1444  21.4938  21.8444
    22.2470  22.5504  23.0264  23.3813  23.6435  23.8779  24.4650  24.5605

     occupation numbers 
     1.0000   1.0000   1.0000   1.0000   1.0000   1.0000   1.0000   1.0000
     1.0000   1.0000   1.0000   1.0000   1.0000   1.0000   1.0000   1.0000
     1.0000   1.0000   1.0000   1.0000   1.0000   0.0000   0.0000   0.0000
     0.0000   0.0000   0.0000   0.0000   0.0000   0.0000   0.0000   0.0000
     0.0000   0.0000   0.0000   0.0000   0.0000   0.0000   0.0000   0.0000
     0.0000   0.0000   0.0000   0.0000   0.0000   0.0000   0.0000   0.0000
     0.0000   0.0000   0.0000   0.0000   0.0000   0.0000   0.0000   0.0000
     0.0000   0.0000   0.0000   0.0000   0.0000   0.0000   0.0000   0.0000

          k = 0.3333-0.0424 0.2522 (  2894 PWs)   bands (ev):

   -11.4241 -10.4306 -10.3630 -10.2614 -10.1580 -10.1456  -8.5098  -8.2905
    -8.0131  -4.4258  -1.6750  -1.2151  -0.6772   0.0637   1.2248   1.6637
     2.1179   2.3130   2.7404   3.0173   3.2970   6.4288   7.1032   7.6767
     8.0382   8.6863   9.2767   9.8708  10.4008  11.0705  11.6881  12.0293
    12.5322  12.7521  13.4037  13.7996  14.1186  14.4979  15.0552  15.4073
    15.9299  16.1424  16.9351  17.6145  17.8603  18.1825  18.5983  18.7344
    19.1696  19.3747  19.8515  20.3479  20.5539  21.0712  21.2964  21.6129
    21.8269  22.1427  22.5751  22.7397  23.0670  23.4786  23.8192  24.1999

     occupation numbers 
     1.0000   1.0000   1.0000   1.0000   1.0000   1.0000   1.0000   1.0000
     1.0000   1.0000   1.0000   1.0000   1.0000   1.0000   1.0000   1.0000
     1.0000   1.0000   1.0000   1.0000   1.0000   0.0000   0.0000   0.0000
     0.0000   0.0000   0.0000   0.0000   0.0000   0.0000   0.0000   0.0000
     0.0000   0.0000   0.0000   0.0000   0.0000   0.0000   0.0000   0.0000
     0.0000   0.0000   0.0000   0.0000   0.0000   0.0000   0.0000   0.0000
     0.0000   0.0000   0.0000   0.0000   0.0000   0.0000   0.0000   0.0000
     0.0000   0.0000   0.0000   0.0000   0.0000   0.0000   0.0000   0.0000

          k = 0.3333-0.0424 0.7565 (  2887 PWs)   bands (ev):

   -11.3924 -10.4467 -10.3527 -10.1747 -10.1603 -10.1212  -8.6516  -8.3433
    -8.1413  -4.0458  -2.1132  -1.0377  -0.8094   0.3130   1.2365   1.6153
     2.0523   2.4441   2.7975   3.3210   3.3909   6.2893   6.6944   7.7705
     7.9727   8.3588   9.1247  10.0655  10.3067  11.3622  11.8629  12.0450
    12.5516  12.8441  13.2772  13.7315  14.0000  14.4240  14.7928  15.3025
    15.9690  16.1567  16.7092  17.0223  17.6660  18.0633  18.4804  18.5536
    19.0022  19.4475  19.7592  20.3735  20.8192  21.1444  21.4938  21.8444
    22.2470  22.5504  23.0264  23.3813  23.6435  23.8779  24.4650  24.5606

     occupation numbers 
     1.0000   1.0000   1.0000   1.0000   1.0000   1.0000   1.0000   1.0000
     1.0000   1.0000   1.0000   1.0000   1.0000   1.0000   1.0000   1.0000
     1.0000   1.0000   1.0000   1.0000   1.0000   0.0000   0.0000   0.0000
     0.0000   0.0000   0.0000   0.0000   0.0000   0.0000   0.0000   0.0000
     0.0000   0.0000   0.0000   0.0000   0.0000   0.0000   0.0000   0.0000
     0.0000   0.0000   0.0000   0.0000   0.0000   0.0000   0.0000   0.0000
     0.0000   0.0000   0.0000   0.0000   0.0000   0.0000   0.0000   0.0000
     0.0000   0.0000   0.0000   0.0000   0.0000   0.0000   0.0000   0.0000

          k = 0.3333 0.2936 0.5043 (  2887 PWs)   bands (ev):

   -11.3924 -10.4467 -10.3527 -10.1747 -10.1603 -10.1212  -8.6516  -8.3433
    -8.1413  -4.0458  -2.1132  -1.0377  -0.8094   0.3130   1.2365   1.6153
     2.0523   2.4441   2.7975   3.3210   3.3909   6.2893   6.6944   7.7705
     7.9727   8.3587   9.1247  10.0655  10.3067  11.3622  11.8629  12.0450
    12.5516  12.8441  13.2772  13.7315  14.0000  14.4240  14.7928  15.3026
    15.9690  16.1567  16.7092  17.0223  17.6660  18.0633  18.4804  18.5536
    19.0022  19.4475  19.7592  20.3735  20.8192  21.1444  21.4938  21.8444
    22.2470  22.5504  23.0264  23.3813  23.6435  23.8779  24.4650  24.5606

     occupation numbers 
     1.0000   1.0000   1.0000   1.0000   1.0000   1.0000   1.0000   1.0000
     1.0000   1.0000   1.0000   1.0000   1.0000   1.0000   1.0000   1.0000
     1.0000   1.0000   1.0000   1.0000   1.0000   0.0000   0.0000   0.0000
     0.0000   0.0000   0.0000   0.0000   0.0000   0.0000   0.0000   0.0000
     0.0000   0.0000   0.0000   0.0000   0.0000   0.0000   0.0000   0.0000
     0.0000   0.0000   0.0000   0.0000   0.0000   0.0000   0.0000   0.0000
     0.0000   0.0000   0.0000   0.0000   0.0000   0.0000   0.0000   0.0000
     0.0000   0.0000   0.0000   0.0000   0.0000   0.0000   0.0000   0.0000

          k = 0.3333 0.2936 0.0000 (  2915 PWs)   bands (ev):

   -11.4214 -10.3526 -10.3526 -10.2844 -10.1671 -10.1313  -8.4511  -8.3029
    -8.3029  -4.1438  -1.4737  -0.9402  -0.9401  -0.3333   1.5623   2.1304
     2.1304   2.1331   2.3711   3.1259   3.1259   6.4122   6.6317   7.6517
     7.6517   8.0921   8.9355  10.6145  10.6320  10.6320  11.2526  13.0370
    13.0370  13.0980  13.4084  13.8202  14.8008  15.6517  15.6517  15.7325
    15.8590  16.5909  16.8882  16.8882  17.4182  17.6980  17.8056  17.8056
    18.8138  19.7805  20.1512  20.1512  20.2540  20.9658  20.9658  21.6275
    22.0653  22.0653  22.4195  22.6101  23.2838  23.2839  23.6810  24.5976

     occupation numbers 
     1.0000   1.0000   1.0000   1.0000   1.0000   1.0000   1.0000   1.0000
     1.0000   1.0000   1.0000   1.0000   1.0000   1.0000   1.0000   1.0000
     1.0000   1.0000   1.0000   1.0000   1.0000   0.0000   0.0000   0.0000
     0.0000   0.0000   0.0000   0.0000   0.0000   0.0000   0.0000   0.0000
     0.0000   0.0000   0.0000   0.0000   0.0000   0.0000   0.0000   0.0000
     0.0000   0.0000   0.0000   0.0000   0.0000   0.0000   0.0000   0.0000
     0.0000   0.0000   0.0000   0.0000   0.0000   0.0000   0.0000   0.0000
     0.0000   0.0000   0.0000   0.0000   0.0000   0.0000   0.0000   0.0000

          k = 0.3333-0.3785 0.0000 (  2906 PWs)   bands (ev):

   -11.4041 -10.4591 -10.3557 -10.2048 -10.1534 -10.1491  -8.5822  -8.3116
    -8.0402  -4.2810  -2.1627  -0.9685  -0.8188   0.5748   1.0951   1.6783
     2.0352   2.4297   2.8758   2.9479   3.3909   6.4033   6.8657   7.7758
     8.2779   8.5010   8.8724   9.7173  10.9596  11.3388  11.7337  12.1028
    12.1772  12.6365  13.3586  13.8238  14.0064  14.6620  15.0518  15.3207
    15.6510  16.1724  16.7964  17.1082  17.4499  17.7510  18.1642  18.4000
    18.8786  19.2071  19.9344  20.6374  21.0105  21.4492  21.7294  21.8118
    22.3155  22.4295  22.5655  23.0341  23.6259  23.8322  24.2685  24.7457

     occupation numbers 
     1.0000   1.0000   1.0000   1.0000   1.0000   1.0000   1.0000   1.0000
     1.0000   1.0000   1.0000   1.0000   1.0000   1.0000   1.0000   1.0000
     1.0000   1.0000   1.0000   1.0000   1.0000   0.0000   0.0000   0.0000
     0.0000   0.0000   0.0000   0.0000   0.0000   0.0000   0.0000   0.0000
     0.0000   0.0000   0.0000   0.0000   0.0000   0.0000   0.0000   0.0000
     0.0000   0.0000   0.0000   0.0000   0.0000   0.0000   0.0000   0.0000
     0.0000   0.0000   0.0000   0.0000   0.0000   0.0000   0.0000   0.0000
     0.0000   0.0000   0.0000   0.0000   0.0000   0.0000   0.0000   0.0000

          k = 0.3333-0.3785 0.5043 (  2888 PWs)   bands (ev):

   -11.4001 -10.3986 -10.3554 -10.2024 -10.1644 -10.1164  -8.6134  -8.3961
    -8.1907  -3.9687  -1.8672  -0.9853  -0.6437  -0.1258   1.0481   1.7900
     2.0835   2.4949   2.6791   3.0012   3.4827   6.4483   6.5555   7.4001
     8.1730   8.4945   9.2199  10.0386  10.6363  11.0769  11.3528  12.0142
    12.6086  12.7808  13.4442  13.9047  14.3863  14.6045  15.0163  15.4626
    15.6645  16.7153  16.9568  17.3436  17.4896  17.7766  18.6502  18.9592
    19.0678  19.6120  19.7057  20.1695  20.6835  21.2389  21.4270  21.9455
    22.0126  22.2403  22.8024  22.9313  23.2454  23.6345  24.1240  24.2564

     occupation numbers 
     1.0000   1.0000   1.0000   1.0000   1.0000   1.0000   1.0000   1.0000
     1.0000   1.0000   1.0000   1.0000   1.0000   1.0000   1.0000   1.0000
     1.0000   1.0000   1.0000   1.0000   1.0000   0.0000   0.0000   0.0000
     0.0000   0.0000   0.0000   0.0000   0.0000   0.0000   0.0000   0.0000
     0.0000   0.0000   0.0000   0.0000   0.0000   0.0000   0.0000   0.0000
     0.0000   0.0000   0.0000   0.0000   0.0000   0.0000   0.0000   0.0000
     0.0000   0.0000   0.0000   0.0000   0.0000   0.0000   0.0000   0.0000
     0.0000   0.0000   0.0000   0.0000   0.0000   0.0000   0.0000   0.0000

          k = 0.0000-0.3360 0.2522 (  2894 PWs)   bands (ev):

   -11.4241 -10.4306 -10.3630 -10.2614 -10.1580 -10.1456  -8.5098  -8.2905
    -8.0131  -4.4258  -1.6750  -1.2151  -0.6773   0.0637   1.2247   1.6637
     2.1179   2.3130   2.7404   3.0173   3.2970   6.4288   7.1032   7.6767
     8.0382   8.6862   9.2767   9.8708  10.4008  11.0705  11.6881  12.0293
    12.5322  12.7521  13.4037  13.7996  14.1185  14.4979  15.0552  15.4072
    15.9299  16.1424  16.9351  17.6145  17.8603  18.1825  18.5983  18.7344
    19.1696  19.3747  19.8515  20.3479  20.5539  21.0712  21.2964  21.6128
    21.8269  22.1427  22.5751  22.7397  23.0670  23.4786  23.8192  24.2002

     occupation numbers 
     1.0000   1.0000   1.0000   1.0000   1.0000   1.0000   1.0000   1.0000
     1.0000   1.0000   1.0000   1.0000   1.0000   1.0000   1.0000   1.0000
     1.0000   1.0000   1.0000   1.0000   1.0000   0.0000   0.0000   0.0000
     0.0000   0.0000   0.0000   0.0000   0.0000   0.0000   0.0000   0.0000
     0.0000   0.0000   0.0000   0.0000   0.0000   0.0000   0.0000   0.0000
     0.0000   0.0000   0.0000   0.0000   0.0000   0.0000   0.0000   0.0000
     0.0000   0.0000   0.0000   0.0000   0.0000   0.0000   0.0000   0.0000
     0.0000   0.0000   0.0000   0.0000   0.0000   0.0000   0.0000   0.0000

          k =-0.3333 0.0424 0.2522 (  2894 PWs)   bands (ev):

   -11.4241 -10.4306 -10.3630 -10.2614 -10.1580 -10.1456  -8.5098  -8.2905
    -8.0131  -4.4258  -1.6750  -1.2151  -0.6772   0.0637   1.2248   1.6637
     2.1179   2.3130   2.7404   3.0173   3.2970   6.4288   7.1032   7.6767
     8.0382   8.6863   9.2767   9.8708  10.4008  11.0705  11.6881  12.0293
    12.5322  12.7521  13.4037  13.7996  14.1185  14.4979  15.0552  15.4072
    15.9299  16.1424  16.9351  17.6145  17.8603  18.1825  18.5983  18.7344
    19.1696  19.3747  19.8515  20.3479  20.5539  21.0712  21.2964  21.6128
    21.8269  22.1427  22.5751  22.7397  23.0671  23.4786  23.8191  24.2000

     occupation numbers 
     1.0000   1.0000   1.0000   1.0000   1.0000   1.0000   1.0000   1.0000
     1.0000   1.0000   1.0000   1.0000   1.0000   1.0000   1.0000   1.0000
     1.0000   1.0000   1.0000   1.0000   1.0000   0.0000   0.0000   0.0000
     0.0000   0.0000   0.0000   0.0000   0.0000   0.0000   0.0000   0.0000
     0.0000   0.0000   0.0000   0.0000   0.0000   0.0000   0.0000   0.0000
     0.0000   0.0000   0.0000   0.0000   0.0000   0.0000   0.0000   0.0000
     0.0000   0.0000   0.0000   0.0000   0.0000   0.0000   0.0000   0.0000
     0.0000   0.0000   0.0000   0.0000   0.0000   0.0000   0.0000   0.0000

          k =-0.3333-0.2936 0.5043 (  2887 PWs)   bands (ev):

   -11.3924 -10.4467 -10.3527 -10.1747 -10.1603 -10.1212  -8.6516  -8.3433
    -8.1413  -4.0458  -2.1132  -1.0377  -0.8094   0.3130   1.2365   1.6153
     2.0523   2.4441   2.7975   3.3210   3.3909   6.2893   6.6944   7.7705
     7.9727   8.3587   9.1247  10.0655  10.3067  11.3622  11.8629  12.0450
    12.5516  12.8441  13.2772  13.7315  14.0000  14.4240  14.7928  15.3025
    15.9690  16.1567  16.7092  17.0223  17.6660  18.0633  18.4804  18.5536
    19.0022  19.4475  19.7592  20.3735  20.8192  21.1444  21.4938  21.8444
    22.2470  22.5504  23.0264  23.3813  23.6435  23.8778  24.4650  24.5606

     occupation numbers 
     1.0000   1.0000   1.0000   1.0000   1.0000   1.0000   1.0000   1.0000
     1.0000   1.0000   1.0000   1.0000   1.0000   1.0000   1.0000   1.0000
     1.0000   1.0000   1.0000   1.0000   1.0000   0.0000   0.0000   0.0000
     0.0000   0.0000   0.0000   0.0000   0.0000   0.0000   0.0000   0.0000
     0.0000   0.0000   0.0000   0.0000   0.0000   0.0000   0.0000   0.0000
     0.0000   0.0000   0.0000   0.0000   0.0000   0.0000   0.0000   0.0000
     0.0000   0.0000   0.0000   0.0000   0.0000   0.0000   0.0000   0.0000
     0.0000   0.0000   0.0000   0.0000   0.0000   0.0000   0.0000   0.0000

          k =-0.3333 0.3785 0.5043 (  2888 PWs)   bands (ev):

   -11.4001 -10.3986 -10.3554 -10.2024 -10.1644 -10.1164  -8.6134  -8.3961
    -8.1907  -3.9687  -1.8672  -0.9853  -0.6437  -0.1258   1.0481   1.7900
     2.0835   2.4949   2.6791   3.0012   3.4827   6.4483   6.5555   7.4001
     8.1730   8.4945   9.2199  10.0386  10.6363  11.0769  11.3528  12.0142
    12.6086  12.7807  13.4442  13.9047  14.3863  14.6045  15.0163  15.4626
    15.6645  16.7153  16.9568  17.3436  17.4896  17.7766  18.6503  18.9592
    19.0678  19.6120  19.7057  20.1695  20.6835  21.2389  21.4270  21.9455
    22.0126  22.2403  22.8024  22.9313  23.2454  23.6345  24.1239  24.2563

     occupation numbers 
     1.0000   1.0000   1.0000   1.0000   1.0000   1.0000   1.0000   1.0000
     1.0000   1.0000   1.0000   1.0000   1.0000   1.0000   1.0000   1.0000
     1.0000   1.0000   1.0000   1.0000   1.0000   0.0000   0.0000   0.0000
     0.0000   0.0000   0.0000   0.0000   0.0000   0.0000   0.0000   0.0000
     0.0000   0.0000   0.0000   0.0000   0.0000   0.0000   0.0000   0.0000
     0.0000   0.0000   0.0000   0.0000   0.0000   0.0000   0.0000   0.0000
     0.0000   0.0000   0.0000   0.0000   0.0000   0.0000   0.0000   0.0000
     0.0000   0.0000   0.0000   0.0000   0.0000   0.0000   0.0000   0.0000

     highest occupied, lowest unoccupied level (ev):     3.4827    5.9480

!    total energy              =    -255.43186021 Ry
     estimated scf accuracy    <       0.00000090 Ry

     The total energy is the sum of the following terms:
     one-electron contribution =     -93.31631296 Ry
     hartree contribution      =      68.19410278 Ry
     xc contribution           =     -85.79925220 Ry
     ewald contribution        =    -144.51039784 Ry

     convergence has been achieved in   6 iterations

     Writing all to output data dir calculations_bands/myprefix.save/
 
     init_run     :      5.92s CPU      2.49s WALL (       1 calls)
     electrons    :     36.69s CPU      9.95s WALL (       1 calls)

     Called by init_run:
     wfcinit      :      1.60s CPU      0.54s WALL (       1 calls)
     wfcinit:atom :      0.01s CPU      0.00s WALL (       7 calls)
     wfcinit:wfcr :      1.57s CPU      0.53s WALL (       7 calls)
     potinit      :      1.15s CPU      0.40s WALL (       1 calls)
     hinit0       :      2.72s CPU      1.39s WALL (       1 calls)

     Called by electrons:
     c_bands      :     28.35s CPU      7.62s WALL (       7 calls)
     sum_band     :      5.98s CPU      1.68s WALL (       7 calls)
     v_of_rho     :      0.64s CPU      0.19s WALL (       7 calls)
     v_h          :      0.03s CPU      0.01s WALL (       7 calls)
     v_xc         :      0.61s CPU      0.18s WALL (       7 calls)
     newd         :      1.88s CPU      0.53s WALL (       7 calls)
     mix_rho      :      0.09s CPU      0.03s WALL (       7 calls)

     Called by c_bands:
     init_us_2    :      0.09s CPU      0.03s WALL (     105 calls)
     init_us_2:cp :      0.09s CPU      0.02s WALL (     105 calls)
     cegterg      :     25.42s CPU      6.82s WALL (      49 calls)

     Called by sum_band:
     sum_band:wei :      0.01s CPU      0.00s WALL (       7 calls)
     sum_band:loo :      3.72s CPU      1.02s WALL (       7 calls)
     sum_band:buf :      0.03s CPU      0.01s WALL (      49 calls)
     sum_band:ini :      0.04s CPU      0.01s WALL (      49 calls)
     sum_band:cal :      0.18s CPU      0.05s WALL (      49 calls)
     sum_band:bec :      0.02s CPU      0.01s WALL (      49 calls)
     addusdens    :      1.06s CPU      0.34s WALL (       7 calls)
     addusd:skk   :      0.01s CPU      0.00s WALL (      21 calls)
     addusd:dgemm :      0.15s CPU      0.09s WALL (      21 calls)
     addusd:qvan2 :      0.75s CPU      0.20s WALL (      21 calls)

     Called by *egterg:
     cdiaghg      :      3.74s CPU      1.02s WALL (     232 calls)
     cegterg:over :      1.15s CPU      0.33s WALL (     190 calls)
     cegterg:upda :      0.46s CPU      0.13s WALL (     190 calls)
     cegterg:last :      0.66s CPU      0.18s WALL (     108 calls)
     cdiaghg:chol :      0.26s CPU      0.07s WALL (     232 calls)
     cdiaghg:inve :      0.05s CPU      0.01s WALL (     232 calls)
     cdiaghg:para :      0.69s CPU      0.19s WALL (     464 calls)
     h_psi        :     20.01s CPU      5.42s WALL (     246 calls)
     s_psi        :      0.18s CPU      0.05s WALL (     246 calls)
     g_psi        :      0.02s CPU      0.01s WALL (     190 calls)

     Called by h_psi:
     h_psi:calbec :      0.60s CPU      0.17s WALL (     246 calls)
     vloc_psi     :     19.09s CPU      5.16s WALL (     246 calls)
     add_vuspsi   :      0.27s CPU      0.08s WALL (     246 calls)

     General routines
     calbec       :      0.77s CPU      0.21s WALL (     295 calls)
     fft          :      2.43s CPU      0.84s WALL (      90 calls)
     ffts         :      0.40s CPU      0.14s WALL (      14 calls)
     fftw         :     20.34s CPU      5.50s WALL (   19706 calls)
     interpolate  :      0.40s CPU      0.14s WALL (       7 calls)
 
     Parallel routines
 
     PWSCF        :     43.91s CPU     13.20s WALL

 
   This run was terminated on:  20:37:43   6Jun2023            

=------------------------------------------------------------------------------=
   JOB DONE.
=------------------------------------------------------------------------------=
