
     Program PWSCF v.7.0 starts on  5Jun2023 at 19:23:30 

     This program is part of the open-source Quantum ESPRESSO suite
     for quantum simulation of materials; please cite
         "P. Giannozzi et al., J. Phys.:Condens. Matter 21 395502 (2009);
         "P. Giannozzi et al., J. Phys.:Condens. Matter 29 465901 (2017);
         "P. Giannozzi et al., J. Chem. Phys. 152 154105 (2020);
          URL http://www.quantum-espresso.org", 
     in publications or presentations arising from this work. More details at
     http://www.quantum-espresso.org/quote

     Parallel version (MPI & OpenMP), running on      32 processor cores
     Number of MPI processes:                 8
     Threads/MPI process:                     4

     MPI processes distributed on     1 nodes
     K-points division:     npool     =       2
     R & G space division:  proc/nbgrp/npool/nimage =       4
     108012 MiB available memory on the printing compute node when the environment starts
 
     Reading input from espresso_11235.pwi
Warning: card &CELL ignored
Warning: card / ignored

     Current dimensions of program PWSCF are:
     Max number of different atomic species (ntypx) = 10
     Max number of k-points (npk) =  40000
     Max angular momentum in pseudopotentials (lmaxx) =  4
     Message from routine setup:
     using ibrav=0 with symmetry is DISCOURAGED, use correct ibrav instead

     Subspace diagonalization in iterative solution of the eigenvalue problem:
     one sub-group per band group will be used
     scalapack distributed-memory algorithm (size of sub-group:  2*  2 procs)

 
     Parallelization info
     --------------------
     sticks:   dense  smooth     PW     G-vecs:    dense   smooth      PW
     Min         453     231     63                12932     4604     684
     Max         454     232     64                12937     4607     688
     Sum        1813     925    253                51733    18421    2741
 
     Using Slab Decomposition
 


     bravais-lattice index     =            0
     lattice parameter (alat)  =      10.5393  a.u.
     unit-cell volume          =     827.7897 (a.u.)^3
     number of atoms/cell      =            4
     number of atomic types    =            3
     number of electrons       =        68.00
     number of Kohn-Sham states=           64
     kinetic-energy cutoff     =      30.0000  Ry
     charge density cutoff     =     240.0000  Ry
     scf convergence threshold =      1.0E-06
     mixing beta               =       0.7000
     number of iterations used =            8  plain     mixing
     Exchange-correlation= SLA  PW   PBE  PBE
                           (   1   4   3   4   0   0   0)

     celldm(1)=  10.539298  celldm(2)=   0.000000  celldm(3)=   0.000000
     celldm(4)=   0.000000  celldm(5)=   0.000000  celldm(6)=   0.000000

     crystal axes: (cart. coord. in units of alat)
               a(1) = (   1.000000   0.000000   0.000000 )  
               a(2) = (   0.500000   0.866025   0.000000 )  
               a(3) = (   0.500000   0.288675   0.816497 )  

     reciprocal axes: (cart. coord. in units 2 pi/alat)
               b(1) = (  1.000000 -0.577350 -0.408248 )  
               b(2) = (  0.000000  1.154701 -0.408248 )  
               b(3) = (  0.000000  0.000000  1.224745 )  


     PseudoPot. # 1 for Eu read from file:
     /home/pragov/projects/rrg-bengioy-ad/pragov/crystal_structure_design/SSSP/Eu.GGA-PBE-paw-v1.0.UPF
     MD5 check sum: acec5fd9176fb57ec8e299eae1ecaf48
     Pseudo is Projector augmented-wave + core cor, Zval = 17.0
     Generated using ATOMPAW code
     Shape of augmentation charge: BESSEL
     Using radial grid of 1109 points,  8 beta functions with: 
                l(1) =   0
                l(2) =   0
                l(3) =   1
                l(4) =   1
                l(5) =   2
                l(6) =   2
                l(7) =   3
                l(8) =   3
     Q(r) pseudized with 0 coefficients 


     PseudoPot. # 2 for Ag read from file:
     /home/pragov/projects/rrg-bengioy-ad/pragov/crystal_structure_design/SSSP/Ag_ONCV_PBE-1.0.oncvpsp.upf
     MD5 check sum: 94f47bd0669c641108e45594df92fabc
     Pseudo is Norm-conserving, Zval = 19.0
     Generated using ONCVPSP code by D. R. Hamann
     Using radial grid of 1398 points,  6 beta functions with: 
                l(1) =   0
                l(2) =   0
                l(3) =   1
                l(4) =   1
                l(5) =   2
                l(6) =   2

     PseudoPot. # 3 for Bi read from file:
     /home/pragov/projects/rrg-bengioy-ad/pragov/crystal_structure_design/SSSP/Bi_pbe_v1.uspp.F.UPF
     MD5 check sum: cceb9f28ec65b6d7ff33140f5b0b1758
     Pseudo is Ultrasoft + core correction, Zval = 15.0
     Generated by new atomic code, or converted to UPF format
     Using radial grid of  899 points,  6 beta functions with: 
                l(1) =   0
                l(2) =   0
                l(3) =   1
                l(4) =   1
                l(5) =   2
                l(6) =   2
     Q(r) pseudized with  6 coefficients,  rinner =    1.000   1.000   1.000
                                                       1.000   1.000

     atomic species   valence    mass     pseudopotential
        Eu            17.00   151.96400     Eu( 1.00)
        Ag            19.00   107.86820     Ag( 1.00)
        Bi            15.00   208.98040     Bi( 1.00)

     12 Sym. Ops., with inversion, found


                                    s                        frac. trans.

      isym =  1     identity                                     

 cryst.   s( 1) = (     1          0          0      )
                  (     0          1          0      )
                  (     0          0          1      )

 cart.    s( 1) = (  1.0000000  0.0000000  0.0000000 )
                  (  0.0000000  1.0000000 -0.0000000 )
                  (  0.0000000  0.0000000  1.0000000 )


      isym =  2     180 deg rotation - cart. axis [1,0,0]        

 cryst.   s( 2) = (     1          0          0      )
                  (     1         -1          0      )
                  (     1          0         -1      )

 cart.    s( 2) = (  1.0000000  0.0000000  0.0000000 )
                  (  0.0000000 -1.0000000  0.0000000 )
                  (  0.0000000  0.0000000 -1.0000000 )


      isym =  3     120 deg rotation - cryst. axis [0,0,1]       

 cryst.   s( 3) = (    -1          1          0      )
                  (    -1          0          0      )
                  (    -1          0          1      )

 cart.    s( 3) = ( -0.5000000 -0.8660254  0.0000000 )
                  (  0.8660254 -0.5000000  0.0000000 )
                  (  0.0000000  0.0000000  1.0000000 )


      isym =  4     120 deg rotation - cryst. axis [0,0,-1]      

 cryst.   s( 4) = (     0         -1          0      )
                  (     1         -1          0      )
                  (     0         -1          1      )

 cart.    s( 4) = ( -0.5000000  0.8660254  0.0000000 )
                  ( -0.8660254 -0.5000000  0.0000000 )
                  (  0.0000000  0.0000000  1.0000000 )


      isym =  5     180 deg rotation - cryst. axis [0,1,0]       

 cryst.   s( 5) = (     0         -1          0      )
                  (    -1          0          0      )
                  (     0          0         -1      )

 cart.    s( 5) = ( -0.5000000 -0.8660254  0.0000000 )
                  ( -0.8660254  0.5000000 -0.0000000 )
                  (  0.0000000  0.0000000 -1.0000000 )


      isym =  6     180 deg rotation - cryst. axis [1,1,0]       

 cryst.   s( 6) = (    -1          1          0      )
                  (     0          1          0      )
                  (     0          1         -1      )

 cart.    s( 6) = ( -0.5000000  0.8660254  0.0000000 )
                  (  0.8660254  0.5000000 -0.0000000 )
                  (  0.0000000  0.0000000 -1.0000000 )


      isym =  7     inversion                                    

 cryst.   s( 7) = (    -1          0          0      )
                  (     0         -1          0      )
                  (     0          0         -1      )

 cart.    s( 7) = ( -1.0000000  0.0000000  0.0000000 )
                  (  0.0000000 -1.0000000  0.0000000 )
                  (  0.0000000  0.0000000 -1.0000000 )


      isym =  8     inv. 180 deg rotation - cart. axis [1,0,0]   

 cryst.   s( 8) = (    -1          0          0      )
                  (    -1          1          0      )
                  (    -1          0          1      )

 cart.    s( 8) = ( -1.0000000  0.0000000  0.0000000 )
                  (  0.0000000  1.0000000 -0.0000000 )
                  (  0.0000000  0.0000000  1.0000000 )


      isym =  9     inv. 120 deg rotation - cryst. axis [0,0,1]  

 cryst.   s( 9) = (     1         -1          0      )
                  (     1          0          0      )
                  (     1          0         -1      )

 cart.    s( 9) = (  0.5000000  0.8660254  0.0000000 )
                  ( -0.8660254  0.5000000 -0.0000000 )
                  (  0.0000000  0.0000000 -1.0000000 )


      isym = 10     inv. 120 deg rotation - cryst. axis [0,0,-1] 

 cryst.   s(10) = (     0          1          0      )
                  (    -1          1          0      )
                  (     0          1         -1      )

 cart.    s(10) = (  0.5000000 -0.8660254  0.0000000 )
                  (  0.8660254  0.5000000 -0.0000000 )
                  (  0.0000000  0.0000000 -1.0000000 )


      isym = 11     inv. 180 deg rotation - cryst. axis [0,1,0]  

 cryst.   s(11) = (     0          1          0      )
                  (     1          0          0      )
                  (     0          0          1      )

 cart.    s(11) = (  0.5000000  0.8660254  0.0000000 )
                  (  0.8660254 -0.5000000  0.0000000 )
                  (  0.0000000  0.0000000  1.0000000 )


      isym = 12     inv. 180 deg rotation - cryst. axis [1,1,0]  

 cryst.   s(12) = (     1         -1          0      )
                  (     0         -1          0      )
                  (     0         -1          1      )

 cart.    s(12) = (  0.5000000 -0.8660254  0.0000000 )
                  ( -0.8660254 -0.5000000  0.0000000 )
                  (  0.0000000  0.0000000  1.0000000 )


   Cartesian axes

     site n.     atom                  positions (alat units)
         1           Eu  tau(   1) = (   0.5000000   0.2886751   0.2041241  )
         2           Eu  tau(   2) = (   1.5000000   0.8660254   0.6123724  )
         3           Ag  tau(   3) = (   1.0000000   0.5773503   0.4082483  )
         4           Bi  tau(   4) = (   0.0000000   0.0000000   0.0000000  )

   Crystallographic axes

     site n.     atom                  positions (cryst. coord.)
         1           Eu  tau(   1) = (  0.2500000  0.2500000  0.2500000  )
         2           Eu  tau(   2) = (  0.7500000  0.7500000  0.7500000  )
         3           Ag  tau(   3) = (  0.5000000  0.5000000  0.5000000  )
         4           Bi  tau(   4) = (  0.0000000  0.0000000  0.0000000  )

     number of k points=     6
                       cart. coord. in units 2pi/alat
        k(    1) = (   0.0000000   0.0000000   0.0000000), wk =   0.0740741
        k(    2) = (   0.0000000   0.0000000   0.4082483), wk =   0.1481481
        k(    3) = (   0.0000000   0.3849002  -0.1360828), wk =   0.4444444
        k(    4) = (   0.0000000   0.3849002   0.2721655), wk =   0.4444444
        k(    5) = (   0.0000000   0.3849002  -0.5443311), wk =   0.4444444
        k(    6) = (   0.3333333  -0.5773503   0.0000000), wk =   0.4444444

                       cryst. coord.
        k(    1) = (   0.0000000   0.0000000   0.0000000), wk =   0.0740741
        k(    2) = (   0.0000000   0.0000000   0.3333333), wk =   0.1481481
        k(    3) = (   0.0000000   0.3333333  -0.0000000), wk =   0.4444444
        k(    4) = (   0.0000000   0.3333333   0.3333333), wk =   0.4444444
        k(    5) = (   0.0000000   0.3333333  -0.3333333), wk =   0.4444444
        k(    6) = (   0.3333333  -0.3333333   0.0000000), wk =   0.4444444

     Dense  grid:    51733 G-vectors     FFT dimensions: (  54,  54,  54)

     Smooth grid:    18421 G-vectors     FFT dimensions: (  40,  40,  40)

     Dynamical RAM for                 wfc:       0.56 MB

     Dynamical RAM for     wfc (w. buffer):       2.24 MB

     Dynamical RAM for           str. fact:       0.59 MB

     Dynamical RAM for           local pot:       0.00 MB

     Dynamical RAM for          nlocal pot:       0.88 MB

     Dynamical RAM for                qrad:       8.96 MB

     Dynamical RAM for          rho,v,vnew:       1.53 MB

     Dynamical RAM for               rhoin:       0.51 MB

     Dynamical RAM for            rho*nmix:       3.16 MB

     Dynamical RAM for           G-vectors:       0.78 MB

     Dynamical RAM for          h,s,v(r/c):       0.19 MB

     Dynamical RAM for          <psi|beta>:       0.10 MB

     Dynamical RAM for                 psi:       1.12 MB

     Dynamical RAM for                hpsi:       1.12 MB

     Dynamical RAM for                spsi:       1.12 MB

     Dynamical RAM for      wfcinit/wfcrot:       1.61 MB

     Dynamical RAM for           addusdens:      55.07 MB

     Estimated static dynamical RAM per process >      17.83 MB

     Estimated max dynamical RAM per process >      76.06 MB

     Estimated total dynamical RAM >     595.81 MB

     Check: negative core charge=   -0.000003

     Initial potential from superposition of free atoms

     starting charge      66.9902, renormalised to      68.0000

     negative rho (up, down):  3.924E-02 0.000E+00
     Starting wfcs are   83 randomized atomic wfcs
     Checking if some PAW data can be deallocated... 
       PAW data deallocated on    4 nodes for type:  1

     total cpu time spent up to now is        2.3 secs

     Self-consistent Calculation

     iteration #  1     ecut=    30.00 Ry     beta= 0.70
     Davidson diagonalization with overlap

---- Real-time Memory Report at c_bands before calling an iterative solver
           223 MiB given to the printing process from OS
             0 MiB allocation reported by mallinfo(arena+hblkhd)
        107285 MiB available memory on the node where the printing process lives
------------------
     ethr =  1.00E-02,  avg # of iterations =  6.0

     negative rho (up, down):  4.004E-02 0.000E+00

     total cpu time spent up to now is        3.6 secs

     total energy              =   -1755.60584557 Ry
     estimated scf accuracy    <       0.75290113 Ry

     iteration #  2     ecut=    30.00 Ry     beta= 0.70
     Davidson diagonalization with overlap

---- Real-time Memory Report at c_bands before calling an iterative solver
           274 MiB given to the printing process from OS
             0 MiB allocation reported by mallinfo(arena+hblkhd)
        107144 MiB available memory on the node where the printing process lives
------------------
     ethr =  1.11E-03,  avg # of iterations =  3.7

     negative rho (up, down):  4.035E-02 0.000E+00

     total cpu time spent up to now is        4.8 secs

     total energy              =   -1755.01702242 Ry
     estimated scf accuracy    <      46.92759280 Ry

     iteration #  3     ecut=    30.00 Ry     beta= 0.70
     Davidson diagonalization with overlap

---- Real-time Memory Report at c_bands before calling an iterative solver
           278 MiB given to the printing process from OS
             0 MiB allocation reported by mallinfo(arena+hblkhd)
        107114 MiB available memory on the node where the printing process lives
------------------
     ethr =  1.11E-03,  avg # of iterations =  3.0

     negative rho (up, down):  4.032E-02 0.000E+00

     total cpu time spent up to now is        5.5 secs

     total energy              =   -1756.26190277 Ry
     estimated scf accuracy    <       1.65345168 Ry

     iteration #  4     ecut=    30.00 Ry     beta= 0.70
     Davidson diagonalization with overlap

---- Real-time Memory Report at c_bands before calling an iterative solver
           278 MiB given to the printing process from OS
             0 MiB allocation reported by mallinfo(arena+hblkhd)
        107110 MiB available memory on the node where the printing process lives
------------------
     ethr =  1.11E-03,  avg # of iterations =  1.7

     negative rho (up, down):  4.041E-02 0.000E+00

     total cpu time spent up to now is        6.2 secs

     total energy              =   -1756.37742472 Ry
     estimated scf accuracy    <       0.84754456 Ry

     iteration #  5     ecut=    30.00 Ry     beta= 0.70
     Davidson diagonalization with overlap

---- Real-time Memory Report at c_bands before calling an iterative solver
           278 MiB given to the printing process from OS
             0 MiB allocation reported by mallinfo(arena+hblkhd)
        107109 MiB available memory on the node where the printing process lives
------------------
     ethr =  1.11E-03,  avg # of iterations =  1.2

     negative rho (up, down):  4.092E-02 0.000E+00

     total cpu time spent up to now is        7.0 secs

     total energy              =   -1756.37373424 Ry
     estimated scf accuracy    <       0.35251551 Ry

     iteration #  6     ecut=    30.00 Ry     beta= 0.70
     Davidson diagonalization with overlap

---- Real-time Memory Report at c_bands before calling an iterative solver
           278 MiB given to the printing process from OS
             0 MiB allocation reported by mallinfo(arena+hblkhd)
        107108 MiB available memory on the node where the printing process lives
------------------
     ethr =  5.18E-04,  avg # of iterations =  2.3

     negative rho (up, down):  4.094E-02 0.000E+00

     total cpu time spent up to now is        7.6 secs

     total energy              =   -1756.49344028 Ry
     estimated scf accuracy    <       0.47245326 Ry

     iteration #  7     ecut=    30.00 Ry     beta= 0.70
     Davidson diagonalization with overlap

---- Real-time Memory Report at c_bands before calling an iterative solver
           278 MiB given to the printing process from OS
             0 MiB allocation reported by mallinfo(arena+hblkhd)
        107108 MiB available memory on the node where the printing process lives
------------------
     ethr =  5.18E-04,  avg # of iterations =  1.0

     negative rho (up, down):  4.093E-02 0.000E+00

     total cpu time spent up to now is        8.2 secs

     total energy              =   -1756.53916729 Ry
     estimated scf accuracy    <       0.01349909 Ry

     iteration #  8     ecut=    30.00 Ry     beta= 0.70
     Davidson diagonalization with overlap

---- Real-time Memory Report at c_bands before calling an iterative solver
           278 MiB given to the printing process from OS
             0 MiB allocation reported by mallinfo(arena+hblkhd)
        107111 MiB available memory on the node where the printing process lives
------------------
     ethr =  1.99E-05,  avg # of iterations =  3.7

     negative rho (up, down):  4.095E-02 0.000E+00

     total cpu time spent up to now is        8.9 secs

     total energy              =   -1756.54259357 Ry
     estimated scf accuracy    <       0.00973792 Ry

     iteration #  9     ecut=    30.00 Ry     beta= 0.70
     Davidson diagonalization with overlap

---- Real-time Memory Report at c_bands before calling an iterative solver
           279 MiB given to the printing process from OS
             0 MiB allocation reported by mallinfo(arena+hblkhd)
        107109 MiB available memory on the node where the printing process lives
------------------
     ethr =  1.43E-05,  avg # of iterations =  1.2

     negative rho (up, down):  4.095E-02 0.000E+00

     total cpu time spent up to now is        9.9 secs

     total energy              =   -1756.54538418 Ry
     estimated scf accuracy    <       0.01138010 Ry

     iteration # 10     ecut=    30.00 Ry     beta= 0.70
     Davidson diagonalization with overlap

---- Real-time Memory Report at c_bands before calling an iterative solver
           279 MiB given to the printing process from OS
             0 MiB allocation reported by mallinfo(arena+hblkhd)
        107109 MiB available memory on the node where the printing process lives
------------------
     ethr =  1.43E-05,  avg # of iterations =  1.0

     negative rho (up, down):  4.093E-02 0.000E+00

     total cpu time spent up to now is       10.9 secs

     total energy              =   -1756.55011088 Ry
     estimated scf accuracy    <       0.01490728 Ry

     iteration # 11     ecut=    30.00 Ry     beta= 0.70
     Davidson diagonalization with overlap

---- Real-time Memory Report at c_bands before calling an iterative solver
           279 MiB given to the printing process from OS
             0 MiB allocation reported by mallinfo(arena+hblkhd)
        107109 MiB available memory on the node where the printing process lives
------------------
     ethr =  1.43E-05,  avg # of iterations =  1.0

     negative rho (up, down):  4.096E-02 0.000E+00

     total cpu time spent up to now is       11.4 secs

     total energy              =   -1756.56167017 Ry
     estimated scf accuracy    <       0.02905202 Ry

     iteration # 12     ecut=    30.00 Ry     beta= 0.70
     Davidson diagonalization with overlap

---- Real-time Memory Report at c_bands before calling an iterative solver
           279 MiB given to the printing process from OS
             0 MiB allocation reported by mallinfo(arena+hblkhd)
        107110 MiB available memory on the node where the printing process lives
------------------
     ethr =  1.43E-05,  avg # of iterations =  1.0

     negative rho (up, down):  4.098E-02 0.000E+00

     total cpu time spent up to now is       12.0 secs

     total energy              =   -1756.55539870 Ry
     estimated scf accuracy    <       0.01460054 Ry

     iteration # 13     ecut=    30.00 Ry     beta= 0.70
     Davidson diagonalization with overlap

---- Real-time Memory Report at c_bands before calling an iterative solver
           279 MiB given to the printing process from OS
             0 MiB allocation reported by mallinfo(arena+hblkhd)
        107110 MiB available memory on the node where the printing process lives
------------------
     ethr =  1.43E-05,  avg # of iterations =  1.0

     negative rho (up, down):  4.098E-02 0.000E+00

     total cpu time spent up to now is       12.6 secs

     total energy              =   -1756.55877692 Ry
     estimated scf accuracy    <       0.00429753 Ry

     iteration # 14     ecut=    30.00 Ry     beta= 0.70
     Davidson diagonalization with overlap

---- Real-time Memory Report at c_bands before calling an iterative solver
           279 MiB given to the printing process from OS
             0 MiB allocation reported by mallinfo(arena+hblkhd)
        107110 MiB available memory on the node where the printing process lives
------------------
     ethr =  6.32E-06,  avg # of iterations =  1.0

     negative rho (up, down):  4.099E-02 0.000E+00

     total cpu time spent up to now is       13.2 secs

     total energy              =   -1756.55955226 Ry
     estimated scf accuracy    <       0.00231124 Ry

     iteration # 15     ecut=    30.00 Ry     beta= 0.70
     Davidson diagonalization with overlap

---- Real-time Memory Report at c_bands before calling an iterative solver
           279 MiB given to the printing process from OS
             0 MiB allocation reported by mallinfo(arena+hblkhd)
        107111 MiB available memory on the node where the printing process lives
------------------
     ethr =  3.40E-06,  avg # of iterations =  1.0

     negative rho (up, down):  4.099E-02 0.000E+00

     total cpu time spent up to now is       13.8 secs

     total energy              =   -1756.55974543 Ry
     estimated scf accuracy    <       0.00080614 Ry

     iteration # 16     ecut=    30.00 Ry     beta= 0.70
     Davidson diagonalization with overlap

---- Real-time Memory Report at c_bands before calling an iterative solver
           279 MiB given to the printing process from OS
             0 MiB allocation reported by mallinfo(arena+hblkhd)
        107111 MiB available memory on the node where the printing process lives
------------------
     ethr =  1.19E-06,  avg # of iterations =  1.3

     negative rho (up, down):  4.099E-02 0.000E+00

     total cpu time spent up to now is       14.4 secs

     total energy              =   -1756.55919011 Ry
     estimated scf accuracy    <       0.00285200 Ry

     iteration # 17     ecut=    30.00 Ry     beta= 0.70
     Davidson diagonalization with overlap

---- Real-time Memory Report at c_bands before calling an iterative solver
           281 MiB given to the printing process from OS
             0 MiB allocation reported by mallinfo(arena+hblkhd)
        107105 MiB available memory on the node where the printing process lives
------------------
     ethr =  1.19E-06,  avg # of iterations =  1.2

     negative rho (up, down):  4.099E-02 0.000E+00

     total cpu time spent up to now is       14.9 secs

     total energy              =   -1756.55966553 Ry
     estimated scf accuracy    <       0.00033573 Ry

     iteration # 18     ecut=    30.00 Ry     beta= 0.70
     Davidson diagonalization with overlap

---- Real-time Memory Report at c_bands before calling an iterative solver
           281 MiB given to the printing process from OS
             0 MiB allocation reported by mallinfo(arena+hblkhd)
        107100 MiB available memory on the node where the printing process lives
------------------
     ethr =  4.94E-07,  avg # of iterations =  1.2

     negative rho (up, down):  4.099E-02 0.000E+00

     total cpu time spent up to now is       15.5 secs

     total energy              =   -1756.55984768 Ry
     estimated scf accuracy    <       0.00025883 Ry

     iteration # 19     ecut=    30.00 Ry     beta= 0.70
     Davidson diagonalization with overlap

---- Real-time Memory Report at c_bands before calling an iterative solver
           281 MiB given to the printing process from OS
             0 MiB allocation reported by mallinfo(arena+hblkhd)
        107103 MiB available memory on the node where the printing process lives
------------------
     ethr =  3.81E-07,  avg # of iterations =  1.5

     negative rho (up, down):  4.099E-02 0.000E+00

     total cpu time spent up to now is       16.1 secs

     total energy              =   -1756.56021795 Ry
     estimated scf accuracy    <       0.00855989 Ry

     iteration # 20     ecut=    30.00 Ry     beta= 0.70
     Davidson diagonalization with overlap

---- Real-time Memory Report at c_bands before calling an iterative solver
           281 MiB given to the printing process from OS
             0 MiB allocation reported by mallinfo(arena+hblkhd)
        107104 MiB available memory on the node where the printing process lives
------------------
     ethr =  3.81E-07,  avg # of iterations =  1.0

     negative rho (up, down):  4.099E-02 0.000E+00

     total cpu time spent up to now is       16.7 secs

     total energy              =   -1756.56086802 Ry
     estimated scf accuracy    <       0.00763203 Ry

     iteration # 21     ecut=    30.00 Ry     beta= 0.70
     Davidson diagonalization with overlap

---- Real-time Memory Report at c_bands before calling an iterative solver
           281 MiB given to the printing process from OS
             0 MiB allocation reported by mallinfo(arena+hblkhd)
        107107 MiB available memory on the node where the printing process lives
------------------
     ethr =  3.81E-07,  avg # of iterations =  1.2

     negative rho (up, down):  4.099E-02 0.000E+00

     total cpu time spent up to now is       17.2 secs

     total energy              =   -1756.56078316 Ry
     estimated scf accuracy    <       0.00668370 Ry

     iteration # 22     ecut=    30.00 Ry     beta= 0.70
     Davidson diagonalization with overlap

---- Real-time Memory Report at c_bands before calling an iterative solver
           281 MiB given to the printing process from OS
             0 MiB allocation reported by mallinfo(arena+hblkhd)
        107108 MiB available memory on the node where the printing process lives
------------------
     ethr =  3.81E-07,  avg # of iterations =  1.0

     negative rho (up, down):  4.099E-02 0.000E+00

     total cpu time spent up to now is       17.8 secs

     total energy              =   -1756.56040950 Ry
     estimated scf accuracy    <       0.00590226 Ry

     iteration # 23     ecut=    30.00 Ry     beta= 0.70
     Davidson diagonalization with overlap

---- Real-time Memory Report at c_bands before calling an iterative solver
           281 MiB given to the printing process from OS
             0 MiB allocation reported by mallinfo(arena+hblkhd)
        107111 MiB available memory on the node where the printing process lives
------------------
     ethr =  3.81E-07,  avg # of iterations =  1.2

     negative rho (up, down):  4.099E-02 0.000E+00

     total cpu time spent up to now is       18.3 secs

     total energy              =   -1756.55956555 Ry
     estimated scf accuracy    <       0.00651403 Ry

     iteration # 24     ecut=    30.00 Ry     beta= 0.70
     Davidson diagonalization with overlap

---- Real-time Memory Report at c_bands before calling an iterative solver
           281 MiB given to the printing process from OS
             0 MiB allocation reported by mallinfo(arena+hblkhd)
        107110 MiB available memory on the node where the printing process lives
------------------
     ethr =  3.81E-07,  avg # of iterations =  2.0

     negative rho (up, down):  4.099E-02 0.000E+00

     total cpu time spent up to now is       18.8 secs

     total energy              =   -1756.55939897 Ry
     estimated scf accuracy    <       0.00034014 Ry

     iteration # 25     ecut=    30.00 Ry     beta= 0.70
     Davidson diagonalization with overlap

---- Real-time Memory Report at c_bands before calling an iterative solver
           281 MiB given to the printing process from OS
             0 MiB allocation reported by mallinfo(arena+hblkhd)
        107112 MiB available memory on the node where the printing process lives
------------------
     ethr =  3.81E-07,  avg # of iterations =  2.2

     negative rho (up, down):  4.099E-02 0.000E+00

     total cpu time spent up to now is       19.4 secs

     total energy              =   -1756.56098964 Ry
     estimated scf accuracy    <       0.00068053 Ry

     iteration # 26     ecut=    30.00 Ry     beta= 0.70
     Davidson diagonalization with overlap

---- Real-time Memory Report at c_bands before calling an iterative solver
           281 MiB given to the printing process from OS
             0 MiB allocation reported by mallinfo(arena+hblkhd)
        107113 MiB available memory on the node where the printing process lives
------------------
     ethr =  3.81E-07,  avg # of iterations =  1.2

     negative rho (up, down):  4.100E-02 0.000E+00

     total cpu time spent up to now is       20.0 secs

     total energy              =   -1756.56116731 Ry
     estimated scf accuracy    <       0.00037885 Ry

     iteration # 27     ecut=    30.00 Ry     beta= 0.70
     Davidson diagonalization with overlap

---- Real-time Memory Report at c_bands before calling an iterative solver
           281 MiB given to the printing process from OS
             0 MiB allocation reported by mallinfo(arena+hblkhd)
        107114 MiB available memory on the node where the printing process lives
------------------
     ethr =  3.81E-07,  avg # of iterations =  1.3

     negative rho (up, down):  4.099E-02 0.000E+00

     total cpu time spent up to now is       20.5 secs

     total energy              =   -1756.56096154 Ry
     estimated scf accuracy    <       0.00042450 Ry

     iteration # 28     ecut=    30.00 Ry     beta= 0.70
     Davidson diagonalization with overlap

---- Real-time Memory Report at c_bands before calling an iterative solver
           281 MiB given to the printing process from OS
             0 MiB allocation reported by mallinfo(arena+hblkhd)
        107112 MiB available memory on the node where the printing process lives
------------------
     ethr =  3.81E-07,  avg # of iterations =  1.2

     negative rho (up, down):  4.099E-02 0.000E+00

     total cpu time spent up to now is       21.0 secs

     total energy              =   -1756.56109801 Ry
     estimated scf accuracy    <       0.00107472 Ry

     iteration # 29     ecut=    30.00 Ry     beta= 0.70
     Davidson diagonalization with overlap

---- Real-time Memory Report at c_bands before calling an iterative solver
           281 MiB given to the printing process from OS
             0 MiB allocation reported by mallinfo(arena+hblkhd)
        107114 MiB available memory on the node where the printing process lives
------------------
     ethr =  3.81E-07,  avg # of iterations =  1.0

     negative rho (up, down):  4.099E-02 0.000E+00

     total cpu time spent up to now is       21.5 secs

     total energy              =   -1756.56113135 Ry
     estimated scf accuracy    <       0.00121019 Ry

     iteration # 30     ecut=    30.00 Ry     beta= 0.70
     Davidson diagonalization with overlap

---- Real-time Memory Report at c_bands before calling an iterative solver
           281 MiB given to the printing process from OS
             0 MiB allocation reported by mallinfo(arena+hblkhd)
        107115 MiB available memory on the node where the printing process lives
------------------
     ethr =  3.81E-07,  avg # of iterations =  1.0

     negative rho (up, down):  4.099E-02 0.000E+00

     total cpu time spent up to now is       22.0 secs

     total energy              =   -1756.56133722 Ry
     estimated scf accuracy    <       0.00080687 Ry

     iteration # 31     ecut=    30.00 Ry     beta= 0.70
     Davidson diagonalization with overlap

---- Real-time Memory Report at c_bands before calling an iterative solver
           281 MiB given to the printing process from OS
             0 MiB allocation reported by mallinfo(arena+hblkhd)
        107115 MiB available memory on the node where the printing process lives
------------------
     ethr =  3.81E-07,  avg # of iterations =  1.2

     negative rho (up, down):  4.099E-02 0.000E+00

     total cpu time spent up to now is       22.6 secs

     total energy              =   -1756.56118372 Ry
     estimated scf accuracy    <       0.00110599 Ry

     iteration # 32     ecut=    30.00 Ry     beta= 0.70
     Davidson diagonalization with overlap

---- Real-time Memory Report at c_bands before calling an iterative solver
           281 MiB given to the printing process from OS
             0 MiB allocation reported by mallinfo(arena+hblkhd)
        107115 MiB available memory on the node where the printing process lives
------------------
     ethr =  3.81E-07,  avg # of iterations =  1.0

     negative rho (up, down):  4.100E-02 0.000E+00

     total cpu time spent up to now is       23.1 secs

     total energy              =   -1756.56105039 Ry
     estimated scf accuracy    <       0.00037063 Ry

     iteration # 33     ecut=    30.00 Ry     beta= 0.70
     Davidson diagonalization with overlap

---- Real-time Memory Report at c_bands before calling an iterative solver
           281 MiB given to the printing process from OS
             0 MiB allocation reported by mallinfo(arena+hblkhd)
        107116 MiB available memory on the node where the printing process lives
------------------
     ethr =  3.81E-07,  avg # of iterations =  1.2

     negative rho (up, down):  4.100E-02 0.000E+00

     total cpu time spent up to now is       23.6 secs

     total energy              =   -1756.56136133 Ry
     estimated scf accuracy    <       0.00003622 Ry

     iteration # 34     ecut=    30.00 Ry     beta= 0.70
     Davidson diagonalization with overlap

---- Real-time Memory Report at c_bands before calling an iterative solver
           281 MiB given to the printing process from OS
             0 MiB allocation reported by mallinfo(arena+hblkhd)
        107117 MiB available memory on the node where the printing process lives
------------------
     ethr =  5.33E-08,  avg # of iterations =  1.0

     negative rho (up, down):  4.100E-02 0.000E+00

     total cpu time spent up to now is       24.1 secs

     total energy              =   -1756.56138138 Ry
     estimated scf accuracy    <       0.00004469 Ry

     iteration # 35     ecut=    30.00 Ry     beta= 0.70
     Davidson diagonalization with overlap

---- Real-time Memory Report at c_bands before calling an iterative solver
           281 MiB given to the printing process from OS
             0 MiB allocation reported by mallinfo(arena+hblkhd)
        107117 MiB available memory on the node where the printing process lives
------------------
     ethr =  5.33E-08,  avg # of iterations =  1.0

     negative rho (up, down):  4.100E-02 0.000E+00

     total cpu time spent up to now is       24.7 secs

     total energy              =   -1756.56135257 Ry
     estimated scf accuracy    <       0.00004090 Ry

     iteration # 36     ecut=    30.00 Ry     beta= 0.70
     Davidson diagonalization with overlap

---- Real-time Memory Report at c_bands before calling an iterative solver
           281 MiB given to the printing process from OS
             0 MiB allocation reported by mallinfo(arena+hblkhd)
        107116 MiB available memory on the node where the printing process lives
------------------
     ethr =  5.33E-08,  avg # of iterations =  1.2

     negative rho (up, down):  4.100E-02 0.000E+00

     total cpu time spent up to now is       25.2 secs

     total energy              =   -1756.56138295 Ry
     estimated scf accuracy    <       0.00005000 Ry

     iteration # 37     ecut=    30.00 Ry     beta= 0.70
     Davidson diagonalization with overlap

---- Real-time Memory Report at c_bands before calling an iterative solver
           281 MiB given to the printing process from OS
             0 MiB allocation reported by mallinfo(arena+hblkhd)
        107118 MiB available memory on the node where the printing process lives
------------------
     ethr =  5.33E-08,  avg # of iterations =  1.0

     negative rho (up, down):  4.100E-02 0.000E+00

     total cpu time spent up to now is       25.7 secs

     total energy              =   -1756.56135379 Ry
     estimated scf accuracy    <       0.00005160 Ry

     iteration # 38     ecut=    30.00 Ry     beta= 0.70
     Davidson diagonalization with overlap

---- Real-time Memory Report at c_bands before calling an iterative solver
           281 MiB given to the printing process from OS
             0 MiB allocation reported by mallinfo(arena+hblkhd)
        107118 MiB available memory on the node where the printing process lives
------------------
     ethr =  5.33E-08,  avg # of iterations =  2.2

     negative rho (up, down):  4.100E-02 0.000E+00

     total cpu time spent up to now is       26.2 secs

     total energy              =   -1756.56142016 Ry
     estimated scf accuracy    <       0.00008195 Ry

     iteration # 39     ecut=    30.00 Ry     beta= 0.70
     Davidson diagonalization with overlap

---- Real-time Memory Report at c_bands before calling an iterative solver
           281 MiB given to the printing process from OS
             0 MiB allocation reported by mallinfo(arena+hblkhd)
        107120 MiB available memory on the node where the printing process lives
------------------
     ethr =  5.33E-08,  avg # of iterations =  1.0

     negative rho (up, down):  4.099E-02 0.000E+00

     total cpu time spent up to now is       26.7 secs

     total energy              =   -1756.56142578 Ry
     estimated scf accuracy    <       0.00001662 Ry

     iteration # 40     ecut=    30.00 Ry     beta= 0.70
     Davidson diagonalization with overlap

---- Real-time Memory Report at c_bands before calling an iterative solver
           281 MiB given to the printing process from OS
             0 MiB allocation reported by mallinfo(arena+hblkhd)
        107119 MiB available memory on the node where the printing process lives
------------------
     ethr =  2.44E-08,  avg # of iterations =  1.2

     negative rho (up, down):  4.100E-02 0.000E+00

     total cpu time spent up to now is       27.3 secs

     total energy              =   -1756.56142389 Ry
     estimated scf accuracy    <       0.00000261 Ry

     iteration # 41     ecut=    30.00 Ry     beta= 0.70
     Davidson diagonalization with overlap

---- Real-time Memory Report at c_bands before calling an iterative solver
           281 MiB given to the printing process from OS
             0 MiB allocation reported by mallinfo(arena+hblkhd)
        107119 MiB available memory on the node where the printing process lives
------------------
     ethr =  3.83E-09,  avg # of iterations =  2.0

     negative rho (up, down):  4.100E-02 0.000E+00

     total cpu time spent up to now is       27.8 secs

     total energy              =   -1756.56142973 Ry
     estimated scf accuracy    <       0.00000137 Ry

     iteration # 42     ecut=    30.00 Ry     beta= 0.70
     Davidson diagonalization with overlap

---- Real-time Memory Report at c_bands before calling an iterative solver
           281 MiB given to the printing process from OS
             0 MiB allocation reported by mallinfo(arena+hblkhd)
        107121 MiB available memory on the node where the printing process lives
------------------
     ethr =  2.02E-09,  avg # of iterations =  1.3

     negative rho (up, down):  4.100E-02 0.000E+00

     total cpu time spent up to now is       28.3 secs

     End of self-consistent calculation

          k = 0.0000 0.0000 0.0000 (  2277 PWs)   bands (ev):

   -81.2536 -44.2749 -44.2749 -44.2651 -29.1531 -29.1234 -10.3844 -10.3841
   -10.3841 -10.3329 -10.3329  -8.1497  -8.1497  -8.1280  -8.0028  -8.0028
    -7.9805   1.1960   7.5965   7.5965   7.6098   7.6098   7.6143   9.1085
     9.4409   9.4521   9.4521  12.0622  12.0622  12.0881  12.0881  12.1270
    12.2006  12.2114  12.2414  12.2672  12.2888  12.4425  12.4425  12.4858
    12.4858  12.5284  12.5284  15.1872  15.1872  15.2051  15.9511  15.9673
    15.9673  16.8991  16.8991  16.9090  17.6157  17.6157  18.2032  19.1005
    20.4621  20.4681  20.4681  22.4241  22.4241  23.8226  23.8428  23.8428

     occupation numbers 
     1.0000   1.0000   1.0000   1.0000   1.0000   1.0000   1.0000   1.0000
     1.0000   1.0000   1.0000   1.0000   1.0000   1.0000   1.0000   1.0000
     1.0000   1.0000   1.0000   1.0000   1.0000   1.0000   1.0000   1.0000
     1.0000   1.0000   1.0000   1.0000   1.0000   1.0000   1.0000   1.0000
     1.0000   1.0000   0.0000   0.0000   0.0000   0.0000   0.0000   0.0000
     0.0000   0.0000   0.0000   0.0000   0.0000   0.0000   0.0000   0.0000
     0.0000   0.0000   0.0000   0.0000   0.0000   0.0000   0.0000   0.0000
     0.0000   0.0000   0.0000   0.0000   0.0000   0.0000   0.0000   0.0000

          k = 0.0000 0.0000 0.4082 (  2301 PWs)   bands (ev):

   -81.2536 -44.2767 -44.2767 -44.2686 -29.1455 -29.1307 -10.3803 -10.3803
   -10.3713 -10.3332 -10.3332  -8.1197  -8.1196  -8.1196  -8.0424  -8.0424
    -8.0363   1.4086   7.4715   7.5276   7.5276   7.5752   7.5752   8.0715
    10.0603  10.0603  11.5312  12.0168  12.0774  12.0774  12.0902  12.0902
    12.1491  12.1888  12.1913  12.2020  12.2020  12.2621  12.5125  12.5125
    12.5899  12.6059  12.6059  12.9404  14.3918  14.3918  14.7799  14.8754
    14.8754  17.0216  17.1960  17.1960  18.7287  18.7287  19.0788  21.2039
    21.2039  21.4453  21.8698  21.8698  22.8883  23.8639  24.4962  25.0110

     occupation numbers 
     1.0000   1.0000   1.0000   1.0000   1.0000   1.0000   1.0000   1.0000
     1.0000   1.0000   1.0000   1.0000   1.0000   1.0000   1.0000   1.0000
     1.0000   1.0000   1.0000   1.0000   1.0000   1.0000   1.0000   1.0000
     1.0000   1.0000   1.0000   1.0000   1.0000   1.0000   1.0000   1.0000
     1.0000   1.0000   0.0000   0.0000   0.0000   0.0000   0.0000   0.0000
     0.0000   0.0000   0.0000   0.0000   0.0000   0.0000   0.0000   0.0000
     0.0000   0.0000   0.0000   0.0000   0.0000   0.0000   0.0000   0.0000
     0.0000   0.0000   0.0000   0.0000   0.0000   0.0000   0.0000   0.0000

          k = 0.0000 0.3849-0.1361 (  2301 PWs)   bands (ev):

   -81.2536 -44.2783 -44.2767 -44.2671 -29.1455 -29.1307 -10.3806 -10.3804
   -10.3710 -10.3331 -10.3331  -8.1403  -8.1194  -8.0991  -8.0571  -8.0426
    -8.0214   1.4079   7.4678   7.5246   7.5273   7.5785   7.5865   8.0709
    10.0486  10.0580  11.5270  11.9103  12.0162  12.0836  12.0856  12.1049
    12.1672  12.1982  12.2082  12.2613  12.2796  12.4135  12.4829  12.4972
    12.5302  12.5559  12.6247  12.9140  14.3699  14.3813  14.7907  14.8750
    14.8799  17.0237  17.1950  17.2033  18.7288  18.7419  19.0755  21.1894
    21.1942  21.4494  21.8647  21.8772  22.8893  23.8549  24.5088  25.0094

     occupation numbers 
     1.0000   1.0000   1.0000   1.0000   1.0000   1.0000   1.0000   1.0000
     1.0000   1.0000   1.0000   1.0000   1.0000   1.0000   1.0000   1.0000
     1.0000   1.0000   1.0000   1.0000   1.0000   1.0000   1.0000   1.0000
     1.0000   1.0000   1.0000   1.0000   1.0000   1.0000   1.0000   1.0000
     1.0000   1.0000   0.0000   0.0000   0.0000   0.0000   0.0000   0.0000
     0.0000   0.0000   0.0000   0.0000   0.0000   0.0000   0.0000   0.0000
     0.0000   0.0000   0.0000   0.0000   0.0000   0.0000   0.0000   0.0000
     0.0000   0.0000   0.0000   0.0000   0.0000   0.0000   0.0000   0.0000

          k = 0.0000 0.3849 0.2722 (  2297 PWs)   bands (ev):

   -81.2536 -44.2790 -44.2759 -44.2671 -29.1454 -29.1307 -10.3773 -10.3771
   -10.3704 -10.3344 -10.3324  -8.1921  -8.1849  -8.1783  -8.0002  -7.9767
    -7.9612   1.4620   7.4395   7.4975   7.5569   7.5662   7.6726   8.2585
     9.9712   9.9782  10.3345  12.0237  12.0779  12.0829  12.0971  12.1109
    12.1367  12.1860  12.2216  12.2710  12.2983  12.4531  12.4729  12.5287
    12.5314  12.6522  13.0723  13.6972  13.7018  13.7340  15.3431  15.3448
    15.6489  16.2251  17.5067  18.2271  18.6710  18.6712  18.9898  19.6184
    20.3135  21.1978  21.2016  22.9550  23.1266  23.1339  23.9735  24.4483

     occupation numbers 
     1.0000   1.0000   1.0000   1.0000   1.0000   1.0000   1.0000   1.0000
     1.0000   1.0000   1.0000   1.0000   1.0000   1.0000   1.0000   1.0000
     1.0000   1.0000   1.0000   1.0000   1.0000   1.0000   1.0000   1.0000
     1.0000   1.0000   1.0000   1.0000   1.0000   1.0000   1.0000   1.0000
     1.0000   1.0000   0.0000   0.0000   0.0000   0.0000   0.0000   0.0000
     0.0000   0.0000   0.0000   0.0000   0.0000   0.0000   0.0000   0.0000
     0.0000   0.0000   0.0000   0.0000   0.0000   0.0000   0.0000   0.0000
     0.0000   0.0000   0.0000   0.0000   0.0000   0.0000   0.0000   0.0000

          k = 0.0000 0.3849-0.5443 (  2301 PWs)   bands (ev):

   -81.2536 -44.2791 -44.2778 -44.2679 -29.1381 -29.1380 -10.3767 -10.3711
   -10.3706 -10.3340 -10.3330  -8.2235  -8.1550  -8.1467  -8.0173  -8.0151
    -7.9574   1.5278   7.4431   7.4908   7.5492   7.5624   7.6724   8.7440
     8.9773  10.3289  10.4250  12.0520  12.0799  12.0835  12.0935  12.1045
    12.1396  12.1504  12.1961  12.2761  12.3110  12.4101  12.4914  12.5014
    12.5066  12.8851  12.9216  13.2990  13.8970  14.1180  15.1535  15.2891
    15.5245  16.6287  17.0758  17.6582  18.2265  18.4825  19.4710  19.9148
    21.2266  21.4260  21.5821  21.7364  22.7314  23.5780  24.4102  25.3204

     occupation numbers 
     1.0000   1.0000   1.0000   1.0000   1.0000   1.0000   1.0000   1.0000
     1.0000   1.0000   1.0000   1.0000   1.0000   1.0000   1.0000   1.0000
     1.0000   1.0000   1.0000   1.0000   1.0000   1.0000   1.0000   1.0000
     1.0000   1.0000   1.0000   1.0000   1.0000   1.0000   1.0000   1.0000
     1.0000   1.0000   0.0000   0.0000   0.0000   0.0000   0.0000   0.0000
     0.0000   0.0000   0.0000   0.0000   0.0000   0.0000   0.0000   0.0000
     0.0000   0.0000   0.0000   0.0000   0.0000   0.0000   0.0000   0.0000
     0.0000   0.0000   0.0000   0.0000   0.0000   0.0000   0.0000   0.0000

          k = 0.3333-0.5774 0.0000 (  2301 PWs)   bands (ev):

   -81.2536 -44.2783 -44.2776 -44.2688 -29.1380 -29.1380 -10.3770 -10.3709
   -10.3706 -10.3339 -10.3330  -8.2238  -8.1602  -8.1410  -8.0327  -7.9998
    -7.9574   1.5275   7.4520   7.4819   7.5569   7.5630   7.6664   8.7460
     8.9760  10.3199  10.4252  12.0629  12.0795  12.0840  12.1019  12.1264
    12.1318  12.1400  12.2076  12.2775  12.2957  12.3834  12.4883  12.4974
    12.5200  12.9037  12.9097  13.3021  13.8972  14.1144  15.1463  15.2861
    15.5271  16.6285  17.0831  17.6659  18.2246  18.4840  19.4681  19.9045
    21.2294  21.4243  21.5827  21.7315  22.7377  23.5777  24.3957  25.3386

     occupation numbers 
     1.0000   1.0000   1.0000   1.0000   1.0000   1.0000   1.0000   1.0000
     1.0000   1.0000   1.0000   1.0000   1.0000   1.0000   1.0000   1.0000
     1.0000   1.0000   1.0000   1.0000   1.0000   1.0000   1.0000   1.0000
     1.0000   1.0000   1.0000   1.0000   1.0000   1.0000   1.0000   1.0000
     1.0000   1.0000   0.0000   0.0000   0.0000   0.0000   0.0000   0.0000
     0.0000   0.0000   0.0000   0.0000   0.0000   0.0000   0.0000   0.0000
     0.0000   0.0000   0.0000   0.0000   0.0000   0.0000   0.0000   0.0000
     0.0000   0.0000   0.0000   0.0000   0.0000   0.0000   0.0000   0.0000

     highest occupied, lowest unoccupied level (ev):    12.2114   12.1913

!    total energy              =   -1756.56142899 Ry
     estimated scf accuracy    <       0.00000033 Ry

     The total energy is the sum of the following terms:
     one-electron contribution =    -367.26666485 Ry
     hartree contribution      =     223.07628949 Ry
     xc contribution           =    -131.91333371 Ry
     ewald contribution        =    -566.38523161 Ry
     one-center paw contrib.   =    -914.07248832 Ry
      -> PAW hartree energy AE =     157.61668301 Ry
      -> PAW hartree energy PS =    -150.42259369 Ry
      -> PAW xc energy AE      =    -483.38888805 Ry
      -> PAW xc energy PS      =      19.15855456 Ry
      -> total E_H with PAW    =     230.27037882 Ry
      -> total E_XC with PAW   =    -596.14366719 Ry

     convergence has been achieved in  42 iterations

     Writing all to output data dir calculations_bands/myprefix.save/
 
     init_run     :      6.96s CPU      1.97s WALL (       1 calls)
     electrons    :     97.57s CPU     26.06s WALL (       1 calls)

     Called by init_run:
     wfcinit      :      0.44s CPU      0.12s WALL (       1 calls)
     wfcinit:atom :      0.00s CPU      0.00s WALL (       3 calls)
     wfcinit:wfcr :      0.40s CPU      0.11s WALL (       3 calls)
     potinit      :      2.47s CPU      0.68s WALL (       1 calls)
     hinit0       :      1.91s CPU      0.52s WALL (       1 calls)

     Called by electrons:
     c_bands      :     32.68s CPU      8.52s WALL (      42 calls)
     sum_band     :     14.24s CPU      4.15s WALL (      42 calls)
     v_of_rho     :      1.71s CPU      0.44s WALL (      43 calls)
     v_h          :      0.12s CPU      0.03s WALL (      43 calls)
     v_xc         :      1.58s CPU      0.41s WALL (      43 calls)
     newd         :      9.14s CPU      2.52s WALL (      43 calls)
     PAW_pot      :     40.21s CPU     10.54s WALL (      43 calls)
     mix_rho      :      0.51s CPU      0.13s WALL (      42 calls)

     Called by c_bands:
     init_us_2    :      0.22s CPU      0.06s WALL (     255 calls)
     init_us_2:cp :      0.21s CPU      0.06s WALL (     255 calls)
     cegterg      :     25.02s CPU      6.51s WALL (     126 calls)

     Called by sum_band:
     sum_band:wei :      0.02s CPU      0.00s WALL (      42 calls)
     sum_band:loo :      4.62s CPU      1.19s WALL (      42 calls)
     sum_band:buf :      0.05s CPU      0.01s WALL (     126 calls)
     sum_band:ini :      0.11s CPU      0.03s WALL (     126 calls)
     sum_band:cal :      0.19s CPU      0.05s WALL (     126 calls)
     sum_band:bec :      0.03s CPU      0.01s WALL (     126 calls)
     addusdens    :      7.06s CPU      2.29s WALL (      42 calls)
     addusd:skk   :      0.01s CPU      0.00s WALL (      84 calls)
     addusd:dgemm :      1.27s CPU      0.81s WALL (      84 calls)
     addusd:qvan2 :      4.89s CPU      1.23s WALL (      84 calls)

     Called by *egterg:
     cdiaghg      :      4.86s CPU      1.28s WALL (     314 calls)
     cegterg:over :      0.63s CPU      0.17s WALL (     188 calls)
     cegterg:upda :      0.31s CPU      0.08s WALL (     188 calls)
     cegterg:last :      0.36s CPU      0.09s WALL (     158 calls)
     cdiaghg:chol :      0.34s CPU      0.09s WALL (     314 calls)
     cdiaghg:inve :      0.06s CPU      0.02s WALL (     314 calls)
     cdiaghg:para :      0.76s CPU      0.20s WALL (     628 calls)
     h_psi        :     18.57s CPU      4.81s WALL (     317 calls)
     s_psi        :      0.22s CPU      0.06s WALL (     317 calls)
     g_psi        :      0.03s CPU      0.01s WALL (     188 calls)

     Called by h_psi:
     h_psi:calbec :      0.47s CPU      0.12s WALL (     317 calls)
     vloc_psi     :     17.76s CPU      4.60s WALL (     317 calls)
     add_vuspsi   :      0.28s CPU      0.07s WALL (     317 calls)

     General routines
     calbec       :      0.65s CPU      0.17s WALL (     443 calls)
     fft          :      1.99s CPU      0.52s WALL (     557 calls)
     ffts         :      1.09s CPU      0.31s WALL (      85 calls)
     fftw         :     18.55s CPU      4.81s WALL (   42086 calls)
     interpolate  :      1.20s CPU      0.34s WALL (      43 calls)
 
     Parallel routines

     PAW routines
     PAW_pot      :     40.21s CPU     10.54s WALL (      43 calls)
     PAW_symme    :      0.18s CPU      0.05s WALL (      85 calls)
 
     PWSCF        :   1m45.50s CPU     28.66s WALL

 
   This run was terminated on:  19:23:59   5Jun2023            

=------------------------------------------------------------------------------=
   JOB DONE.
=------------------------------------------------------------------------------=
