
     Program PWSCF v.7.0 starts on  7Jun2023 at  4:45:29 

     This program is part of the open-source Quantum ESPRESSO suite
     for quantum simulation of materials; please cite
         "P. Giannozzi et al., J. Phys.:Condens. Matter 21 395502 (2009);
         "P. Giannozzi et al., J. Phys.:Condens. Matter 29 465901 (2017);
         "P. Giannozzi et al., J. Chem. Phys. 152 154105 (2020);
          URL http://www.quantum-espresso.org", 
     in publications or presentations arising from this work. More details at
     http://www.quantum-espresso.org/quote

     Parallel version (MPI & OpenMP), running on      32 processor cores
     Number of MPI processes:                 8
     Threads/MPI process:                     4

     MPI processes distributed on     1 nodes
     K-points division:     npool     =       2
     R & G space division:  proc/nbgrp/npool/nimage =       4
     52590 MiB available memory on the printing compute node when the environment starts
 
     Reading input from espresso_1614.pwi
Warning: card &CELL ignored
Warning: card / ignored

     Current dimensions of program PWSCF are:
     Max number of different atomic species (ntypx) = 10
     Max number of k-points (npk) =  40000
     Max angular momentum in pseudopotentials (lmaxx) =  4
     file O.pbe-n-kjpaw_psl.0.1.UPF: wavefunction(s)  2P renormalized
     Message from routine setup:
     using ibrav=0 with symmetry is DISCOURAGED, use correct ibrav instead

     Subspace diagonalization in iterative solution of the eigenvalue problem:
     one sub-group per band group will be used
     scalapack distributed-memory algorithm (size of sub-group:  2*  2 procs)

 
     Parallelization info
     --------------------
     sticks:   dense  smooth     PW     G-vecs:    dense   smooth      PW
     Min         552     275     80                17587     6231     959
     Max         553     276     81                17589     6234     960
     Sum        2211    1101    321                70353    24929    3839
 
     Using Slab Decomposition
 


     bravais-lattice index     =            0
     lattice parameter (alat)  =      11.3792  a.u.
     unit-cell volume          =    1122.5194 (a.u.)^3
     number of atoms/cell      =           12
     number of atomic types    =            3
     number of electrons       =        96.00
     number of Kohn-Sham states=           64
     kinetic-energy cutoff     =      30.0000  Ry
     charge density cutoff     =     240.0000  Ry
     scf convergence threshold =      1.0E-06
     mixing beta               =       0.7000
     number of iterations used =            8  plain     mixing
     Exchange-correlation= SLA  PW   PBX  PBC
                           (   1   4   3   4   0   0   0)

     celldm(1)=  11.379191  celldm(2)=   0.000000  celldm(3)=   0.000000
     celldm(4)=   0.000000  celldm(5)=   0.000000  celldm(6)=   0.000000

     crystal axes: (cart. coord. in units of alat)
               a(1) = (   1.000000   0.000000   0.000000 )  
               a(2) = (  -0.440945   0.897534   0.000000 )  
               a(3) = (  -0.279528  -0.448767   0.848806 )  

     reciprocal axes: (cart. coord. in units 2 pi/alat)
               b(1) = (  1.000000  0.491285  0.589062 )  
               b(2) = (  0.000000  1.114164  0.589062 )  
               b(3) = (  0.000000  0.000000  1.178125 )  


     PseudoPot. # 1 for Y  read from file:
     /home/pragov/projects/rrg-bengioy-ad/pragov/crystal_structure_design/SSSP/Y_pbe_v1.uspp.F.UPF
     MD5 check sum: 2cf71db95cafeb975fc457bd7f14888e
     Pseudo is Ultrasoft + core correction, Zval = 11.0
     Generated by new atomic code, or converted to UPF format
     Using radial grid of  885 points,  6 beta functions with: 
                l(1) =   0
                l(2) =   0
                l(3) =   1
                l(4) =   1
                l(5) =   2
                l(6) =   2
     Q(r) pseudized with  6 coefficients,  rinner =    1.200   1.200   1.200
                                                       1.200   1.200

     PseudoPot. # 2 for V  read from file:
     /home/pragov/projects/rrg-bengioy-ad/pragov/crystal_structure_design/SSSP/v_pbe_v1.4.uspp.F.UPF
     MD5 check sum: 22b79981416ebb76fdaf5b1b8640f6fb
     Pseudo is Ultrasoft + core correction, Zval = 13.0
     Generated by new atomic code, or converted to UPF format
     Using radial grid of  853 points,  6 beta functions with: 
                l(1) =   0
                l(2) =   0
                l(3) =   1
                l(4) =   1
                l(5) =   2
                l(6) =   2
     Q(r) pseudized with  8 coefficients,  rinner =    1.100   1.100   1.100
                                                       1.100   1.100

     PseudoPot. # 3 for O  read from file:
     /home/pragov/projects/rrg-bengioy-ad/pragov/crystal_structure_design/SSSP/O.pbe-n-kjpaw_psl.0.1.UPF
     MD5 check sum: 0234752ac141de4415c5fc33072bef88
     Pseudo is Projector augmented-wave + core cor, Zval =  6.0
     Generated using "atomic" code by A. Dal Corso  v.5.0.99 svn rev. 10869
     Shape of augmentation charge: BESSEL
     Using radial grid of 1095 points,  4 beta functions with: 
                l(1) =   0
                l(2) =   0
                l(3) =   1
                l(4) =   1
     Q(r) pseudized with 0 coefficients 


     atomic species   valence    mass     pseudopotential
        Y             11.00    88.90584     Y ( 1.00)
        V             13.00    50.94150     V ( 1.00)
        O              6.00    15.99900     O ( 1.00)

      4 Sym. Ops., with inversion, found ( 2 have fractional translation)


                                    s                        frac. trans.

      isym =  1     identity                                     

 cryst.   s( 1) = (     1          0          0      )
                  (     0          1          0      )
                  (     0          0          1      )

 cart.    s( 1) = (  1.0000000  0.0000000 -0.0000000 )
                  (  0.0000000  1.0000000  0.0000000 )
                  (  0.0000000  0.0000000  1.0000000 )


      isym =  2     180 deg rotation - cart. axis [0,0,1]        

 cryst.   s( 2) = (    -1          0          0      )
                  (     0         -1          0      )
                  (     1          1          1      )

 cart.    s( 2) = ( -1.0000000 -0.0000000  0.0000000 )
                  (  0.0000000 -1.0000000  0.0000000 )
                  (  0.0000000  0.0000000  1.0000000 )


      isym =  3     inversion                                    

 cryst.   s( 3) = (    -1          0          0      )    f =( -0.2500000 )
                  (     0         -1          0      )       (  0.2500000 )
                  (     0          0         -1      )       (  0.5000000 )

 cart.    s( 3) = ( -1.0000000 -0.0000000  0.0000000 )    f =( -0.5000000 )
                  (  0.0000000 -1.0000000 -0.0000000 )       (  0.0000000 )
                  (  0.0000000  0.0000000 -1.0000000 )       (  0.4244032 )


      isym =  4     inv. 180 deg rotation - cart. axis [0,0,1]   

 cryst.   s( 4) = (     1          0          0      )    f =( -0.2500000 )
                  (     0          1          0      )       (  0.2500000 )
                  (    -1         -1         -1      )       (  0.5000000 )

 cart.    s( 4) = (  1.0000000  0.0000000 -0.0000000 )    f =( -0.5000000 )
                  (  0.0000000  1.0000000 -0.0000000 )       (  0.0000000 )
                  (  0.0000000  0.0000000 -1.0000000 )       (  0.4244032 )


   Cartesian axes

     site n.     atom                  positions (alat units)
         1           Y   tau(   1) = (   0.0000000   0.0000000   0.0000000  )
         2           Y   tau(   2) = (  -0.2204723   0.4487671   0.4244032  )
         3           V   tau(   3) = (   0.2795277   0.4487671   0.0000000  )
         4           V   tau(   4) = (   0.5000000   0.0000000   0.4244032  )
         5           O   tau(   5) = (   0.5349334  -0.2402964   0.5811005  )
         6           O   tau(   6) = (   0.0484497   0.3741636   0.1566973  )
         7           O   tau(   7) = (   0.0349334  -0.2402964   0.6921091  )
         8           O   tau(   8) = (   0.2689220  -0.0746035   0.2677059  )
         9           O   tau(   9) = (   0.4650666   0.2402964   0.5811005  )
        10           O   tau(  10) = (   0.5106056   0.5233706   0.1566973  )
        11           O   tau(  11) = (  -0.0349334   0.2402964   0.6921091  )
        12           O   tau(  12) = (   0.7310780   0.0746035   0.2677059  )

   Crystallographic axes

     site n.     atom                  positions (cryst. coord.)
         1           Y   tau(   1) = (  0.0000000  0.0000000  0.0000000  )
         2           Y   tau(   2) = (  0.2500000  0.7500000  0.5000000  )
         3           V   tau(   3) = (  0.5000000  0.5000000  0.0000000  )
         4           V   tau(   4) = (  0.7500000  0.2500000  0.5000000  )
         5           O   tau(   5) = (  0.7591840  0.0745750  0.6846090  )
         6           O   tau(   6) = (  0.3245750  0.5091840  0.1846090  )
         7           O   tau(   7) = (  0.3245750  0.1399660  0.8153910  )
         8           O   tau(   8) = (  0.3899660  0.0745750  0.3153910  )
         9           O   tau(   9) = (  0.9254250  0.6100340  0.6846090  )
        10           O   tau(  10) = (  0.8600340  0.6754250  0.1846090  )
        11           O   tau(  11) = (  0.4908160  0.6754250  0.8153910  )
        12           O   tau(  12) = (  0.9254250  0.2408160  0.3153910  )

     number of k points=    10
                       cart. coord. in units 2pi/alat
        k(    1) = (   0.0000000   0.0000000   0.0000000), wk =   0.0740741
        k(    2) = (   0.0000000   0.0000000   0.3927083), wk =   0.1481481
        k(    3) = (   0.0000000   0.3713879   0.1963542), wk =   0.2962963
        k(    4) = (   0.0000000   0.3713879   0.5890625), wk =   0.1481481
        k(    5) = (   0.3333333   0.1637615   0.1963542), wk =   0.2962963
        k(    6) = (   0.3333333   0.1637615   0.5890625), wk =   0.1481481
        k(    7) = (   0.3333333   0.5351494   0.3927083), wk =   0.2962963
        k(    8) = (   0.3333333   0.5351494  -0.0000000), wk =   0.1481481
        k(    9) = (   0.3333333  -0.2076264  -0.0000000), wk =   0.1481481
        k(   10) = (   0.3333333  -0.2076264   0.3927083), wk =   0.2962963

                       cryst. coord.
        k(    1) = (   0.0000000   0.0000000   0.0000000), wk =   0.0740741
        k(    2) = (   0.0000000   0.0000000   0.3333333), wk =   0.1481481
        k(    3) = (   0.0000000   0.3333333  -0.0000000), wk =   0.2962963
        k(    4) = (   0.0000000   0.3333333   0.3333333), wk =   0.1481481
        k(    5) = (   0.3333333   0.0000000  -0.0000000), wk =   0.2962963
        k(    6) = (   0.3333333   0.0000000   0.3333333), wk =   0.1481481
        k(    7) = (   0.3333333   0.3333333  -0.0000000), wk =   0.2962963
        k(    8) = (   0.3333333   0.3333333  -0.3333333), wk =   0.1481481
        k(    9) = (   0.3333333  -0.3333333   0.0000000), wk =   0.1481481
        k(   10) = (   0.3333333  -0.3333333   0.3333333), wk =   0.2962963

     Dense  grid:    70353 G-vectors     FFT dimensions: (  60,  60,  60)

     Smooth grid:    24929 G-vectors     FFT dimensions: (  40,  40,  40)

     Dynamical RAM for                 wfc:       0.76 MB

     Dynamical RAM for     wfc (w. buffer):       4.56 MB

     Dynamical RAM for           str. fact:       0.81 MB

     Dynamical RAM for           local pot:       0.00 MB

     Dynamical RAM for          nlocal pot:       1.61 MB

     Dynamical RAM for                qrad:       3.73 MB

     Dynamical RAM for          rho,v,vnew:       2.04 MB

     Dynamical RAM for               rhoin:       0.68 MB

     Dynamical RAM for            rho*nmix:       4.29 MB

     Dynamical RAM for           G-vectors:       1.05 MB

     Dynamical RAM for          h,s,v(r/c):       0.19 MB

     Dynamical RAM for          <psi|beta>:       0.13 MB

     Dynamical RAM for                 psi:       1.52 MB

     Dynamical RAM for                hpsi:       1.52 MB

     Dynamical RAM for                spsi:       1.52 MB

     Dynamical RAM for      wfcinit/wfcrot:       1.99 MB

     Dynamical RAM for           addusdens:      26.17 MB

     Estimated static dynamical RAM per process >      17.62 MB

     Estimated max dynamical RAM per process >      48.08 MB

     Estimated total dynamical RAM >     367.46 MB

     Check: negative core charge=   -0.000015

     Initial potential from superposition of free atoms

     starting charge      95.9886, renormalised to      96.0000

     negative rho (up, down):  9.211E-02 0.000E+00
     Starting wfcs are   78 randomized atomic wfcs
     Checking if some PAW data can be deallocated... 
       PAW data deallocated on    2 nodes for type:  3

     total cpu time spent up to now is        3.0 secs

     Self-consistent Calculation

     iteration #  1     ecut=    30.00 Ry     beta= 0.70
     Davidson diagonalization with overlap

---- Real-time Memory Report at c_bands before calling an iterative solver
           165 MiB given to the printing process from OS
             0 MiB allocation reported by mallinfo(arena+hblkhd)
         52301 MiB available memory on the node where the printing process lives
------------------
     ethr =  1.00E-02,  avg # of iterations =  2.0

     negative rho (up, down):  9.634E-02 0.000E+00

     total cpu time spent up to now is        3.7 secs

     total energy              =    -796.19955330 Ry
     estimated scf accuracy    <       5.42914024 Ry

     iteration #  2     ecut=    30.00 Ry     beta= 0.70
     Davidson diagonalization with overlap

---- Real-time Memory Report at c_bands before calling an iterative solver
           192 MiB given to the printing process from OS
             0 MiB allocation reported by mallinfo(arena+hblkhd)
         51872 MiB available memory on the node where the printing process lives
------------------
     ethr =  5.66E-03,  avg # of iterations =  3.0

     negative rho (up, down):  9.476E-02 0.000E+00

     total cpu time spent up to now is        4.5 secs

     total energy              =    -790.06069875 Ry
     estimated scf accuracy    <      87.55918666 Ry

     iteration #  3     ecut=    30.00 Ry     beta= 0.70
     Davidson diagonalization with overlap

---- Real-time Memory Report at c_bands before calling an iterative solver
           200 MiB given to the printing process from OS
             0 MiB allocation reported by mallinfo(arena+hblkhd)
         51417 MiB available memory on the node where the printing process lives
------------------
     ethr =  5.66E-03,  avg # of iterations =  2.0

     negative rho (up, down):  9.545E-02 0.000E+00

     total cpu time spent up to now is        5.2 secs

     total energy              =    -799.30827904 Ry
     estimated scf accuracy    <       1.97513529 Ry

     iteration #  4     ecut=    30.00 Ry     beta= 0.70
     Davidson diagonalization with overlap

---- Real-time Memory Report at c_bands before calling an iterative solver
           200 MiB given to the printing process from OS
             0 MiB allocation reported by mallinfo(arena+hblkhd)
         52105 MiB available memory on the node where the printing process lives
------------------
     ethr =  2.06E-03,  avg # of iterations =  2.0

     negative rho (up, down):  9.602E-02 0.000E+00

     total cpu time spent up to now is        5.8 secs

     total energy              =    -799.49293231 Ry
     estimated scf accuracy    <       0.28541042 Ry

     iteration #  5     ecut=    30.00 Ry     beta= 0.70
     Davidson diagonalization with overlap

---- Real-time Memory Report at c_bands before calling an iterative solver
           200 MiB given to the printing process from OS
             0 MiB allocation reported by mallinfo(arena+hblkhd)
         52060 MiB available memory on the node where the printing process lives
------------------
     ethr =  2.97E-04,  avg # of iterations =  1.0

     negative rho (up, down):  9.695E-02 0.000E+00

     total cpu time spent up to now is        6.4 secs

     total energy              =    -799.49315002 Ry
     estimated scf accuracy    <       0.05462264 Ry

     iteration #  6     ecut=    30.00 Ry     beta= 0.70
     Davidson diagonalization with overlap

---- Real-time Memory Report at c_bands before calling an iterative solver
           200 MiB given to the printing process from OS
             0 MiB allocation reported by mallinfo(arena+hblkhd)
         52061 MiB available memory on the node where the printing process lives
------------------
     ethr =  5.69E-05,  avg # of iterations =  2.0

     negative rho (up, down):  9.727E-02 0.000E+00

     total cpu time spent up to now is        7.5 secs

     total energy              =    -799.50075778 Ry
     estimated scf accuracy    <       0.00104041 Ry

     iteration #  7     ecut=    30.00 Ry     beta= 0.70
     Davidson diagonalization with overlap

---- Real-time Memory Report at c_bands before calling an iterative solver
           200 MiB given to the printing process from OS
             0 MiB allocation reported by mallinfo(arena+hblkhd)
         51905 MiB available memory on the node where the printing process lives
------------------
     ethr =  1.08E-06,  avg # of iterations =  6.5

     negative rho (up, down):  9.728E-02 0.000E+00

     total cpu time spent up to now is        8.8 secs

     total energy              =    -799.50099604 Ry
     estimated scf accuracy    <       0.00019004 Ry

     iteration #  8     ecut=    30.00 Ry     beta= 0.70
     Davidson diagonalization with overlap

---- Real-time Memory Report at c_bands before calling an iterative solver
           202 MiB given to the printing process from OS
             0 MiB allocation reported by mallinfo(arena+hblkhd)
         52046 MiB available memory on the node where the printing process lives
------------------
     ethr =  1.98E-07,  avg # of iterations =  2.0

     negative rho (up, down):  9.728E-02 0.000E+00

     total cpu time spent up to now is        9.6 secs

     total energy              =    -799.50101165 Ry
     estimated scf accuracy    <       0.00007937 Ry

     iteration #  9     ecut=    30.00 Ry     beta= 0.70
     Davidson diagonalization with overlap

---- Real-time Memory Report at c_bands before calling an iterative solver
           202 MiB given to the printing process from OS
             0 MiB allocation reported by mallinfo(arena+hblkhd)
         52090 MiB available memory on the node where the printing process lives
------------------
     ethr =  8.27E-08,  avg # of iterations =  1.4

     negative rho (up, down):  9.732E-02 0.000E+00

     total cpu time spent up to now is       10.4 secs

     total energy              =    -799.50102106 Ry
     estimated scf accuracy    <       0.00000164 Ry

     iteration # 10     ecut=    30.00 Ry     beta= 0.70
     Davidson diagonalization with overlap

---- Real-time Memory Report at c_bands before calling an iterative solver
           202 MiB given to the printing process from OS
             0 MiB allocation reported by mallinfo(arena+hblkhd)
         52047 MiB available memory on the node where the printing process lives
------------------
     ethr =  1.71E-09,  avg # of iterations =  3.2

     negative rho (up, down):  9.732E-02 0.000E+00

     total cpu time spent up to now is       11.0 secs

     End of self-consistent calculation

          k = 0.0000 0.0000 0.0000 (  3111 PWs)   bands (ev):

   -57.8398 -57.8391 -34.0279 -34.0085 -31.8633 -31.8621 -31.7055 -31.7055
   -31.7033 -31.7033 -14.3991 -14.3990 -14.2734 -14.1564 -14.0480 -14.0480
   -10.9183 -10.3137  -9.9980  -9.9639  -9.9639  -9.7264  -9.6862  -9.6862
     1.9230   2.2750   2.4890   2.5935   2.7918   2.7918   3.1739   3.1848
     3.1848   3.4253   3.4253   3.4505   3.6379   4.1475   4.3109   4.4173
     4.7123   4.7123   5.5180   5.5180   5.5308   5.5604   5.5604   5.9084
     8.6770   9.2865   9.5102   9.5651   9.8423  10.8843  11.0001  11.0001
    11.4416  11.4416  12.0943  12.8719  12.9223  12.9223  13.2520  13.7434

     occupation numbers 
     1.0000   1.0000   1.0000   1.0000   1.0000   1.0000   1.0000   1.0000
     1.0000   1.0000   1.0000   1.0000   1.0000   1.0000   1.0000   1.0000
     1.0000   1.0000   1.0000   1.0000   1.0000   1.0000   1.0000   1.0000
     1.0000   1.0000   1.0000   1.0000   1.0000   1.0000   1.0000   1.0000
     1.0000   1.0000   1.0000   1.0000   1.0000   1.0000   1.0000   1.0000
     1.0000   1.0000   1.0000   1.0000   1.0000   1.0000   1.0000   1.0000
     0.0000   0.0000   0.0000   0.0000   0.0000   0.0000   0.0000   0.0000
     0.0000   0.0000   0.0000   0.0000   0.0000   0.0000   0.0000   0.0000

          k = 0.0000 0.0000 0.3927 (  3127 PWs)   bands (ev):

   -57.8397 -57.8393 -34.0231 -34.0134 -31.8631 -31.8619 -31.7065 -31.7042
   -31.7040 -31.7040 -14.4097 -14.3294 -14.2985 -14.1577 -14.1427 -14.0184
   -10.6054 -10.2565 -10.1208 -10.0511  -9.9718  -9.9633  -9.7053  -9.5778
     2.1503   2.3598   2.4967   2.5074   2.6457   2.7502   3.0375   3.0510
     3.1643   3.4663   3.5289   3.9002   3.9845   4.0174   4.3501   4.7059
     4.7420   4.9401   5.1080   5.1706   5.2844   5.3466   5.5564   5.7139
     9.0597   9.3161   9.3711   9.6173  10.0381  10.6136  10.6436  10.7792
    10.8165  11.0750  12.9018  12.9751  13.0829  13.1859  13.3646  13.5941

     occupation numbers 
     1.0000   1.0000   1.0000   1.0000   1.0000   1.0000   1.0000   1.0000
     1.0000   1.0000   1.0000   1.0000   1.0000   1.0000   1.0000   1.0000
     1.0000   1.0000   1.0000   1.0000   1.0000   1.0000   1.0000   1.0000
     1.0000   1.0000   1.0000   1.0000   1.0000   1.0000   1.0000   1.0000
     1.0000   1.0000   1.0000   1.0000   1.0000   1.0000   1.0000   1.0000
     1.0000   1.0000   1.0000   1.0000   1.0000   1.0000   1.0000   1.0000
     0.0000   0.0000   0.0000   0.0000   0.0000   0.0000   0.0000   0.0000
     0.0000   0.0000   0.0000   0.0000   0.0000   0.0000   0.0000   0.0000

          k = 0.0000 0.3714 0.1964 (  3115 PWs)   bands (ev):

   -57.8396 -57.8392 -34.0256 -34.0125 -31.8607 -31.8606 -31.7064 -31.7051
   -31.7039 -31.7021 -14.4074 -14.4027 -14.2903 -14.1917 -14.0647 -14.0422
   -10.5722 -10.2297 -10.0922  -9.9949  -9.9471  -9.8616  -9.7912  -9.6993
     2.1646   2.3201   2.5975   2.6092   2.6937   2.8948   2.9902   3.1576
     3.1660   3.4336   3.7266   3.9140   3.9188   4.0766   4.1157   4.3188
     4.4857   4.6907   5.0257   5.0300   5.3323   5.3969   5.7136   5.8524
     9.1477   9.3700   9.4699   9.5223  10.2595  10.4079  10.8378  10.9561
    11.0754  11.2229  12.9141  13.0264  13.0344  13.1479  13.2956  13.5727

     occupation numbers 
     1.0000   1.0000   1.0000   1.0000   1.0000   1.0000   1.0000   1.0000
     1.0000   1.0000   1.0000   1.0000   1.0000   1.0000   1.0000   1.0000
     1.0000   1.0000   1.0000   1.0000   1.0000   1.0000   1.0000   1.0000
     1.0000   1.0000   1.0000   1.0000   1.0000   1.0000   1.0000   1.0000
     1.0000   1.0000   1.0000   1.0000   1.0000   1.0000   1.0000   1.0000
     1.0000   1.0000   1.0000   1.0000   1.0000   1.0000   1.0000   1.0000
     0.0000   0.0000   0.0000   0.0000   0.0000   0.0000   0.0000   0.0000
     0.0000   0.0000   0.0000   0.0000   0.0000   0.0000   0.0000   0.0000

          k = 0.0000 0.3714 0.5891 (  3116 PWs)   bands (ev):

   -57.8396 -57.8393 -34.0217 -34.0165 -31.8604 -31.8600 -31.7054 -31.7049
   -31.7040 -31.7038 -14.4324 -14.3711 -14.2795 -14.2036 -14.0896 -14.0353
   -10.3173 -10.2634 -10.1442 -10.0187 -10.0090  -9.9199  -9.8132  -9.7032
     2.2359   2.3831   2.3999   2.4175   2.5795   2.8808   3.2305   3.3979
     3.5784   3.5833   3.7012   3.7955   3.8750   3.9747   4.0520   4.4842
     4.5860   4.7136   4.8988   4.9866   5.2975   5.3607   5.4254   5.6870
     9.3939   9.4283   9.4332   9.4962  10.1030  10.4437  10.6357  10.7906
    10.9777  11.0339  12.9147  12.9771  13.1849  13.2816  13.3676  13.5067

     occupation numbers 
     1.0000   1.0000   1.0000   1.0000   1.0000   1.0000   1.0000   1.0000
     1.0000   1.0000   1.0000   1.0000   1.0000   1.0000   1.0000   1.0000
     1.0000   1.0000   1.0000   1.0000   1.0000   1.0000   1.0000   1.0000
     1.0000   1.0000   1.0000   1.0000   1.0000   1.0000   1.0000   1.0000
     1.0000   1.0000   1.0000   1.0000   1.0000   1.0000   1.0000   1.0000
     1.0000   1.0000   1.0000   1.0000   1.0000   1.0000   1.0000   1.0000
     0.0000   0.0000   0.0000   0.0000   0.0000   0.0000   0.0000   0.0000
     0.0000   0.0000   0.0000   0.0000   0.0000   0.0000   0.0000   0.0000

          k = 0.3333 0.1638 0.1964 (  3115 PWs)   bands (ev):

   -57.8396 -57.8392 -34.0256 -34.0125 -31.8607 -31.8606 -31.7064 -31.7051
   -31.7039 -31.7021 -14.4074 -14.4027 -14.2902 -14.1918 -14.0647 -14.0422
   -10.5723 -10.2295 -10.0925  -9.9947  -9.9471  -9.8617  -9.7912  -9.6993
     2.1646   2.3202   2.5976   2.6092   2.6938   2.8948   2.9903   3.1576
     3.1660   3.4336   3.7262   3.9140   3.9188   4.0766   4.1157   4.3188
     4.4858   4.6907   5.0258   5.0300   5.3321   5.3970   5.7135   5.8524
     9.1477   9.3700   9.4699   9.5223  10.2595  10.4079  10.8378  10.9561
    11.0753  11.2229  12.9141  13.0263  13.0344  13.1479  13.2956  13.5727

     occupation numbers 
     1.0000   1.0000   1.0000   1.0000   1.0000   1.0000   1.0000   1.0000
     1.0000   1.0000   1.0000   1.0000   1.0000   1.0000   1.0000   1.0000
     1.0000   1.0000   1.0000   1.0000   1.0000   1.0000   1.0000   1.0000
     1.0000   1.0000   1.0000   1.0000   1.0000   1.0000   1.0000   1.0000
     1.0000   1.0000   1.0000   1.0000   1.0000   1.0000   1.0000   1.0000
     1.0000   1.0000   1.0000   1.0000   1.0000   1.0000   1.0000   1.0000
     0.0000   0.0000   0.0000   0.0000   0.0000   0.0000   0.0000   0.0000
     0.0000   0.0000   0.0000   0.0000   0.0000   0.0000   0.0000   0.0000

          k = 0.3333 0.1638 0.5891 (  3116 PWs)   bands (ev):

   -57.8396 -57.8393 -34.0217 -34.0165 -31.8604 -31.8600 -31.7054 -31.7049
   -31.7040 -31.7038 -14.4324 -14.3711 -14.2796 -14.2035 -14.0897 -14.0353
   -10.3175 -10.2629 -10.1446 -10.0182 -10.0093  -9.9197  -9.8134  -9.7031
     2.2360   2.3833   2.3998   2.4175   2.5795   2.8806   3.2307   3.3976
     3.5781   3.5832   3.7015   3.7954   3.8750   3.9751   4.0519   4.4841
     4.5858   4.7140   4.8986   4.9865   5.2977   5.3608   5.4249   5.6872
     9.3939   9.4282   9.4333   9.4961  10.1030  10.4438  10.6355  10.7907
    10.9776  11.0340  12.9147  12.9770  13.1849  13.2816  13.3676  13.5066

     occupation numbers 
     1.0000   1.0000   1.0000   1.0000   1.0000   1.0000   1.0000   1.0000
     1.0000   1.0000   1.0000   1.0000   1.0000   1.0000   1.0000   1.0000
     1.0000   1.0000   1.0000   1.0000   1.0000   1.0000   1.0000   1.0000
     1.0000   1.0000   1.0000   1.0000   1.0000   1.0000   1.0000   1.0000
     1.0000   1.0000   1.0000   1.0000   1.0000   1.0000   1.0000   1.0000
     1.0000   1.0000   1.0000   1.0000   1.0000   1.0000   1.0000   1.0000
     0.0000   0.0000   0.0000   0.0000   0.0000   0.0000   0.0000   0.0000
     0.0000   0.0000   0.0000   0.0000   0.0000   0.0000   0.0000   0.0000

          k = 0.3333 0.5351 0.3927 (  3116 PWs)   bands (ev):

   -57.8396 -57.8393 -34.0217 -34.0165 -31.8604 -31.8600 -31.7054 -31.7049
   -31.7040 -31.7038 -14.4324 -14.3711 -14.2795 -14.2036 -14.0897 -14.0353
   -10.3174 -10.2631 -10.1444 -10.0184 -10.0091  -9.9198  -9.8133  -9.7032
     2.2359   2.3832   2.3998   2.4175   2.5795   2.8807   3.2306   3.3977
     3.5783   3.5832   3.7013   3.7955   3.8750   3.9749   4.0520   4.4841
     4.5859   4.7138   4.8987   4.9865   5.2976   5.3608   5.4251   5.6871
     9.3939   9.4282   9.4332   9.4962  10.1030  10.4438  10.6356  10.7906
    10.9777  11.0339  12.9147  12.9770  13.1849  13.2816  13.3676  13.5067

     occupation numbers 
     1.0000   1.0000   1.0000   1.0000   1.0000   1.0000   1.0000   1.0000
     1.0000   1.0000   1.0000   1.0000   1.0000   1.0000   1.0000   1.0000
     1.0000   1.0000   1.0000   1.0000   1.0000   1.0000   1.0000   1.0000
     1.0000   1.0000   1.0000   1.0000   1.0000   1.0000   1.0000   1.0000
     1.0000   1.0000   1.0000   1.0000   1.0000   1.0000   1.0000   1.0000
     1.0000   1.0000   1.0000   1.0000   1.0000   1.0000   1.0000   1.0000
     0.0000   0.0000   0.0000   0.0000   0.0000   0.0000   0.0000   0.0000
     0.0000   0.0000   0.0000   0.0000   0.0000   0.0000   0.0000   0.0000

          k = 0.3333 0.5351-0.0000 (  3110 PWs)   bands (ev):

   -57.8396 -57.8392 -34.0242 -34.0139 -31.8605 -31.8601 -31.7059 -31.7059
   -31.7023 -31.7023 -14.4142 -14.4142 -14.2869 -14.2061 -14.0367 -14.0367
   -10.5098 -10.3632 -10.1755  -9.9343  -9.9343  -9.8460  -9.7116  -9.7116
     2.3008   2.4668   2.6417   2.6716   2.6716   2.9865   3.0402   3.0402
     3.0614   3.3945   3.6550   3.7784   4.0084   4.0835   4.0835   4.3645
     4.5947   4.5947   4.8207   5.0526   5.0526   5.6047   5.6542   5.6542
     9.3990   9.4146   9.4196   9.5379  10.0960  10.6915  10.9825  10.9825
    11.2863  11.2863  12.8590  12.9212  12.9351  13.2122  13.2122  13.5950

     occupation numbers 
     1.0000   1.0000   1.0000   1.0000   1.0000   1.0000   1.0000   1.0000
     1.0000   1.0000   1.0000   1.0000   1.0000   1.0000   1.0000   1.0000
     1.0000   1.0000   1.0000   1.0000   1.0000   1.0000   1.0000   1.0000
     1.0000   1.0000   1.0000   1.0000   1.0000   1.0000   1.0000   1.0000
     1.0000   1.0000   1.0000   1.0000   1.0000   1.0000   1.0000   1.0000
     1.0000   1.0000   1.0000   1.0000   1.0000   1.0000   1.0000   1.0000
     0.0000   0.0000   0.0000   0.0000   0.0000   0.0000   0.0000   0.0000
     0.0000   0.0000   0.0000   0.0000   0.0000   0.0000   0.0000   0.0000

          k = 0.3333-0.2076-0.0000 (  3127 PWs)   bands (ev):

   -57.8397 -57.8393 -34.0231 -34.0134 -31.8631 -31.8619 -31.7064 -31.7042
   -31.7040 -31.7040 -14.4097 -14.3294 -14.2985 -14.1577 -14.1427 -14.0184
   -10.6054 -10.2565 -10.1208 -10.0511  -9.9718  -9.9633  -9.7053  -9.5778
     2.1503   2.3598   2.4967   2.5075   2.6457   2.7502   3.0375   3.0510
     3.1643   3.4663   3.5289   3.9002   3.9845   4.0174   4.3501   4.7059
     4.7420   4.9401   5.1080   5.1706   5.2844   5.3466   5.5564   5.7139
     9.0597   9.3161   9.3711   9.6173  10.0381  10.6136  10.6436  10.7792
    10.8165  11.0750  12.9018  12.9751  13.0829  13.1859  13.3646  13.5941

     occupation numbers 
     1.0000   1.0000   1.0000   1.0000   1.0000   1.0000   1.0000   1.0000
     1.0000   1.0000   1.0000   1.0000   1.0000   1.0000   1.0000   1.0000
     1.0000   1.0000   1.0000   1.0000   1.0000   1.0000   1.0000   1.0000
     1.0000   1.0000   1.0000   1.0000   1.0000   1.0000   1.0000   1.0000
     1.0000   1.0000   1.0000   1.0000   1.0000   1.0000   1.0000   1.0000
     1.0000   1.0000   1.0000   1.0000   1.0000   1.0000   1.0000   1.0000
     0.0000   0.0000   0.0000   0.0000   0.0000   0.0000   0.0000   0.0000
     0.0000   0.0000   0.0000   0.0000   0.0000   0.0000   0.0000   0.0000

          k = 0.3333-0.2076 0.3927 (  3140 PWs)   bands (ev):

   -57.8395 -57.8395 -34.0206 -34.0158 -31.8626 -31.8624 -31.7069 -31.7060
   -31.7048 -31.7023 -14.4126 -14.3817 -14.2884 -14.1534 -14.0763 -14.0372
   -10.6193 -10.4338 -10.0694 -10.0292  -9.9378  -9.7324  -9.7193  -9.7117
     2.2417   2.2974   2.4855   2.5139   2.5571   2.6745   3.2531   3.2841
     3.3710   3.4403   3.5810   3.8347   3.9791   4.0048   4.2506   4.4599
     4.8198   4.9862   5.0030   5.0579   5.2046   5.2787   5.4321   5.4737
     9.2959   9.3468   9.3508   9.6349  10.2201  10.4438  10.6507  10.8177
    11.0587  11.3051  12.8910  12.9740  13.1369  13.2547  13.2810  13.6666

     occupation numbers 
     1.0000   1.0000   1.0000   1.0000   1.0000   1.0000   1.0000   1.0000
     1.0000   1.0000   1.0000   1.0000   1.0000   1.0000   1.0000   1.0000
     1.0000   1.0000   1.0000   1.0000   1.0000   1.0000   1.0000   1.0000
     1.0000   1.0000   1.0000   1.0000   1.0000   1.0000   1.0000   1.0000
     1.0000   1.0000   1.0000   1.0000   1.0000   1.0000   1.0000   1.0000
     1.0000   1.0000   1.0000   1.0000   1.0000   1.0000   1.0000   1.0000
     0.0000   0.0000   0.0000   0.0000   0.0000   0.0000   0.0000   0.0000
     0.0000   0.0000   0.0000   0.0000   0.0000   0.0000   0.0000   0.0000

     highest occupied, lowest unoccupied level (ev):     5.9084    8.6770

!    total energy              =    -799.50102141 Ry
     estimated scf accuracy    <       0.00000049 Ry

     The total energy is the sum of the following terms:
     one-electron contribution =    -326.30359850 Ry
     hartree contribution      =     204.93276347 Ry
     xc contribution           =    -142.36005827 Ry
     ewald contribution        =    -459.56253873 Ry
     one-center paw contrib.   =     -76.20758939 Ry
      -> PAW hartree energy AE =       0.00000000 Ry
      -> PAW hartree energy PS =       0.00000000 Ry
      -> PAW xc energy AE      =       0.00000000 Ry
      -> PAW xc energy PS      =       0.00000000 Ry
      -> total E_H with PAW    =     204.93276347 Ry
      -> total E_XC with PAW   =    -142.36005827 Ry

     convergence has been achieved in  10 iterations

     Writing all to output data dir calculations_bands/myprefix.save/
 
     init_run     :      6.64s CPU      2.75s WALL (       1 calls)
     electrons    :     29.73s CPU      8.07s WALL (       1 calls)

     Called by init_run:
     wfcinit      :      0.82s CPU      0.22s WALL (       1 calls)
     wfcinit:atom :      0.01s CPU      0.00s WALL (       5 calls)
     wfcinit:wfcr :      0.74s CPU      0.19s WALL (       5 calls)
     potinit      :      1.95s CPU      0.57s WALL (       1 calls)
     hinit0       :      2.58s CPU      1.43s WALL (       1 calls)

     Called by electrons:
     c_bands      :     19.78s CPU      5.24s WALL (      10 calls)
     sum_band     :      4.85s CPU      1.41s WALL (      10 calls)
     v_of_rho     :      0.79s CPU      0.21s WALL (      11 calls)
     v_h          :      0.05s CPU      0.01s WALL (      11 calls)
     v_xc         :      0.74s CPU      0.20s WALL (      11 calls)
     newd         :      2.94s CPU      0.86s WALL (      11 calls)
     PAW_pot      :      1.61s CPU      0.42s WALL (      11 calls)
     mix_rho      :      0.16s CPU      0.04s WALL (      10 calls)

     Called by c_bands:
     init_us_2    :      0.14s CPU      0.05s WALL (     105 calls)
     init_us_2:cp :      0.14s CPU      0.05s WALL (     105 calls)
     cegterg      :     17.64s CPU      4.66s WALL (      50 calls)

     Called by sum_band:
     sum_band:wei :      0.02s CPU      0.01s WALL (      10 calls)
     sum_band:loo :      2.64s CPU      0.70s WALL (      10 calls)
     sum_band:buf :      0.03s CPU      0.01s WALL (      50 calls)
     sum_band:ini :      0.06s CPU      0.02s WALL (      50 calls)
     sum_band:cal :      0.14s CPU      0.04s WALL (      50 calls)
     sum_band:bec :      0.03s CPU      0.01s WALL (      50 calls)
     addusdens    :      1.37s CPU      0.49s WALL (      10 calls)
     addusd:skk   :      0.03s CPU      0.01s WALL (      30 calls)
     addusd:dgemm :      0.15s CPU      0.15s WALL (      30 calls)
     addusd:qvan2 :      0.71s CPU      0.18s WALL (      30 calls)

     Called by *egterg:
     cdiaghg      :      3.28s CPU      0.88s WALL (     179 calls)
     cegterg:over :      0.73s CPU      0.20s WALL (     129 calls)
     cegterg:upda :      0.39s CPU      0.11s WALL (     129 calls)
     cegterg:last :      0.52s CPU      0.13s WALL (      92 calls)
     cdiaghg:chol :      0.23s CPU      0.06s WALL (     179 calls)
     cdiaghg:inve :      0.04s CPU      0.01s WALL (     179 calls)
     cdiaghg:para :      0.60s CPU      0.16s WALL (     358 calls)
     h_psi        :     12.74s CPU      3.35s WALL (     184 calls)
     s_psi        :      0.19s CPU      0.05s WALL (     184 calls)
     g_psi        :      0.02s CPU      0.00s WALL (     129 calls)

     Called by h_psi:
     h_psi:calbec :      0.44s CPU      0.12s WALL (     184 calls)
     vloc_psi     :     12.01s CPU      3.16s WALL (     184 calls)
     add_vuspsi   :      0.25s CPU      0.07s WALL (     184 calls)

     General routines
     calbec       :      0.57s CPU      0.15s WALL (     234 calls)
     fft          :      1.74s CPU      0.70s WALL (     141 calls)
     ffts         :      1.04s CPU      0.29s WALL (      21 calls)
     fftw         :     12.69s CPU      3.35s WALL (   19344 calls)
     interpolate  :      1.07s CPU      0.30s WALL (      11 calls)
 
     Parallel routines

     PAW routines
     PAW_pot      :      1.61s CPU      0.42s WALL (      11 calls)
     PAW_symme    :      0.13s CPU      0.03s WALL (      21 calls)
 
     PWSCF        :     37.76s CPU     11.45s WALL

 
   This run was terminated on:   4:45:40   7Jun2023            

=------------------------------------------------------------------------------=
   JOB DONE.
=------------------------------------------------------------------------------=
