
     Program PWSCF v.7.0 starts on  5Jun2023 at 18:42:11 

     This program is part of the open-source Quantum ESPRESSO suite
     for quantum simulation of materials; please cite
         "P. Giannozzi et al., J. Phys.:Condens. Matter 21 395502 (2009);
         "P. Giannozzi et al., J. Phys.:Condens. Matter 29 465901 (2017);
         "P. Giannozzi et al., J. Chem. Phys. 152 154105 (2020);
          URL http://www.quantum-espresso.org", 
     in publications or presentations arising from this work. More details at
     http://www.quantum-espresso.org/quote

     Parallel version (MPI & OpenMP), running on      32 processor cores
     Number of MPI processes:                 8
     Threads/MPI process:                     4

     MPI processes distributed on     1 nodes
     K-points division:     npool     =       2
     R & G space division:  proc/nbgrp/npool/nimage =       4
     96574 MiB available memory on the printing compute node when the environment starts
 
     Reading input from espresso_11111.pwi
Warning: card &CELL ignored
Warning: card / ignored

     Current dimensions of program PWSCF are:
     Max number of different atomic species (ntypx) = 10
     Max number of k-points (npk) =  40000
     Max angular momentum in pseudopotentials (lmaxx) =  4
     Message from routine setup:
     using ibrav=0 with symmetry is DISCOURAGED, use correct ibrav instead

     Subspace diagonalization in iterative solution of the eigenvalue problem:
     one sub-group per band group will be used
     scalapack distributed-memory algorithm (size of sub-group:  2*  2 procs)

 
     Parallelization info
     --------------------
     sticks:   dense  smooth     PW     G-vecs:    dense   smooth      PW
     Min         240     119     37                 7211     2557     444
     Max         241     120     38                 7215     2559     446
     Sum         963     477    151                28855    10231    1781
 
     Using Slab Decomposition
 


     bravais-lattice index     =            0
     lattice parameter (alat)  =       9.0948  a.u.
     unit-cell volume          =     459.3210 (a.u.)^3
     number of atoms/cell      =            6
     number of atomic types    =            2
     number of electrons       =        50.00
     number of Kohn-Sham states=           64
     kinetic-energy cutoff     =      30.0000  Ry
     charge density cutoff     =     240.0000  Ry
     scf convergence threshold =      1.0E-06
     mixing beta               =       0.7000
     number of iterations used =            8  plain     mixing
     Exchange-correlation= PBE
                           (   1   4   3   4   0   0   0)

     celldm(1)=   9.094844  celldm(2)=   0.000000  celldm(3)=   0.000000
     celldm(4)=   0.000000  celldm(5)=   0.000000  celldm(6)=   0.000000

     crystal axes: (cart. coord. in units of alat)
               a(1) = (   1.000000   0.000000   0.000000 )  
               a(2) = (   0.000000   0.606752   0.000000 )  
               a(3) = (   0.000000   0.583605   1.006281 )  

     reciprocal axes: (cart. coord. in units 2 pi/alat)
               b(1) = (  1.000000  0.000000  0.000000 )  
               b(2) = (  0.000000  1.648120 -0.955847 )  
               b(3) = (  0.000000  0.000000  0.993758 )  


     PseudoPot. # 1 for Re read from file:
     /home/pragov/projects/rrg-bengioy-ad/pragov/crystal_structure_design/SSSP/Re_pbe_v1.2.uspp.F.UPF
     MD5 check sum: 85f993410f3e006da9d71c142b4ad953
     Pseudo is Ultrasoft + core correction, Zval = 15.0
     Generated by new atomic code, or converted to UPF format
     Using radial grid of  981 points,  8 beta functions with: 
                l(1) =   0
                l(2) =   0
                l(3) =   1
                l(4) =   1
                l(5) =   2
                l(6) =   2
                l(7) =   3
                l(8) =   3
     Q(r) pseudized with  8 coefficients,  rinner =    1.150   1.150   1.150
                                                       1.150   1.150   1.150
                                                       1.150

     PseudoPot. # 2 for N  read from file:
     /home/pragov/projects/rrg-bengioy-ad/pragov/crystal_structure_design/SSSP/N.pbe-n-radius_5.UPF
     MD5 check sum: 16739722b17309cd8fe442a2ace49922
     Pseudo is Ultrasoft + core correction, Zval =  5.0
     Generated using "atomic" code by A. Dal Corso  v.5.1
     Using radial grid of 1085 points,  4 beta functions with: 
                l(1) =   0
                l(2) =   0
                l(3) =   1
                l(4) =   1
     Q(r) pseudized with 0 coefficients 


     atomic species   valence    mass     pseudopotential
        Re            15.00   186.20700     Re( 1.00)
        N              5.00    14.00700     N ( 1.00)

      2 Sym. Ops. (no inversion) found ( 1 have fractional translation)


                                    s                        frac. trans.

      isym =  1     identity                                     

 cryst.   s( 1) = (     1          0          0      )
                  (     0          1          0      )
                  (     0          0          1      )

 cart.    s( 1) = (  1.0000000  0.0000000  0.0000000 )
                  (  0.0000000  1.0000000  0.0000000 )
                  (  0.0000000  0.0000000  1.0000000 )


      isym =  2     inv. 180 deg rotation - cart. axis [1,0,0]   

 cryst.   s( 2) = (    -1          0          0      )    f =( -0.0000000 )
                  (     0          1          0      )       ( -0.0000000 )
                  (     0          0          1      )       (  0.5000000 )

 cart.    s( 2) = ( -1.0000000  0.0000000  0.0000000 )    f =( -0.0000000 )
                  (  0.0000000  1.0000000  0.0000000 )       (  0.2918024 )
                  (  0.0000000  0.0000000  1.0000000 )       (  0.5031407 )


   Cartesian axes

     site n.     atom                  positions (alat units)
         1           Re  tau(   1) = (   0.7517500   0.0776492   0.0162686  )
         2           Re  tau(   2) = (   0.2482500   0.3694516   0.5194092  )
         3           N   tau(   3) = (   0.9598350   1.0254230   0.7963047  )
         4           N   tau(   4) = (   0.0401650   0.7336206   0.2931640  )
         5           N   tau(   5) = (   0.4536820   0.7070857   0.7079190  )
         6           N   tau(   6) = (   0.5463180   0.4152833   0.2047783  )

   Crystallographic axes

     site n.     atom                  positions (cryst. coord.)
         1           Re  tau(   1) = (  0.7517500  0.1124250  0.0161670  )
         2           Re  tau(   2) = (  0.2482500  0.1124250  0.5161670  )
         3           N   tau(   3) = (  0.9598350  0.9288750  0.7913340  )
         4           N   tau(   4) = (  0.0401650  0.9288750  0.2913340  )
         5           N   tau(   5) = (  0.4536820  0.4887000  0.7035000  )
         6           N   tau(   6) = (  0.5463180  0.4887000  0.2035000  )

     number of k points=    10
                       cart. coord. in units 2pi/alat
        k(    1) = (   0.0000000   0.0000000   0.0000000), wk =   0.0740741
        k(    2) = (   0.0000000   0.0000000   0.3312526), wk =   0.1481481
        k(    3) = (   0.0000000   0.5493733  -0.3186156), wk =   0.1481481
        k(    4) = (   0.0000000   0.5493733   0.0126370), wk =   0.1481481
        k(    5) = (   0.0000000   0.5493733  -0.6498682), wk =   0.1481481
        k(    6) = (   0.3333333   0.0000000   0.0000000), wk =   0.1481481
        k(    7) = (   0.3333333   0.0000000   0.3312526), wk =   0.2962963
        k(    8) = (   0.3333333   0.5493733  -0.3186156), wk =   0.2962963
        k(    9) = (   0.3333333   0.5493733   0.0126370), wk =   0.2962963
        k(   10) = (   0.3333333   0.5493733  -0.6498682), wk =   0.2962963

                       cryst. coord.
        k(    1) = (   0.0000000   0.0000000   0.0000000), wk =   0.0740741
        k(    2) = (   0.0000000   0.0000000   0.3333333), wk =   0.1481481
        k(    3) = (   0.0000000   0.3333333  -0.0000000), wk =   0.1481481
        k(    4) = (   0.0000000   0.3333333   0.3333333), wk =   0.1481481
        k(    5) = (   0.0000000   0.3333333  -0.3333333), wk =   0.1481481
        k(    6) = (   0.3333333   0.0000000   0.0000000), wk =   0.1481481
        k(    7) = (   0.3333333   0.0000000   0.3333333), wk =   0.2962963
        k(    8) = (   0.3333333   0.3333333  -0.0000000), wk =   0.2962963
        k(    9) = (   0.3333333   0.3333333   0.3333333), wk =   0.2962963
        k(   10) = (   0.3333333   0.3333333  -0.3333333), wk =   0.2962963

     Dense  grid:    28855 G-vectors     FFT dimensions: (  45,  27,  54)

     Smooth grid:    10231 G-vectors     FFT dimensions: (  32,  20,  40)

     Dynamical RAM for                 wfc:       0.31 MB

     Dynamical RAM for     wfc (w. buffer):       1.86 MB

     Dynamical RAM for           str. fact:       0.22 MB

     Dynamical RAM for           local pot:       0.00 MB

     Dynamical RAM for          nlocal pot:       0.47 MB

     Dynamical RAM for                qrad:       5.97 MB

     Dynamical RAM for          rho,v,vnew:       0.72 MB

     Dynamical RAM for               rhoin:       0.24 MB

     Dynamical RAM for            rho*nmix:       1.76 MB

     Dynamical RAM for           G-vectors:       0.43 MB

     Dynamical RAM for          h,s,v(r/c):       0.19 MB

     Dynamical RAM for          <psi|beta>:       0.09 MB

     Dynamical RAM for                 psi:       0.62 MB

     Dynamical RAM for                hpsi:       0.62 MB

     Dynamical RAM for                spsi:       0.62 MB

     Dynamical RAM for      wfcinit/wfcrot:       0.72 MB

     Dynamical RAM for           addusdens:      30.82 MB

     Estimated static dynamical RAM per process >      10.89 MB

     Estimated max dynamical RAM per process >      43.47 MB

     Estimated total dynamical RAM >     340.75 MB

     Check: negative core charge=   -0.000002

     Initial potential from superposition of free atoms

     starting charge      48.9999, renormalised to      50.0000

     negative rho (up, down):  2.563E-01 0.000E+00
     Starting wfcs are   42 randomized atomic wfcs +   22 random wfcs

     total cpu time spent up to now is        1.7 secs

     Self-consistent Calculation

     iteration #  1     ecut=    30.00 Ry     beta= 0.70
     Davidson diagonalization with overlap

---- Real-time Memory Report at c_bands before calling an iterative solver
           161 MiB given to the printing process from OS
             0 MiB allocation reported by mallinfo(arena+hblkhd)
         96314 MiB available memory on the node where the printing process lives
------------------
     ethr =  1.00E-02,  avg # of iterations =  6.1

     negative rho (up, down):  2.842E-01 0.000E+00

     total cpu time spent up to now is        3.4 secs

     total energy              =    -460.18076226 Ry
     estimated scf accuracy    <       2.95827044 Ry

     iteration #  2     ecut=    30.00 Ry     beta= 0.70
     Davidson diagonalization with overlap

---- Real-time Memory Report at c_bands before calling an iterative solver
           177 MiB given to the printing process from OS
             0 MiB allocation reported by mallinfo(arena+hblkhd)
         96244 MiB available memory on the node where the printing process lives
------------------
     ethr =  5.92E-03,  avg # of iterations =  2.1

     negative rho (up, down):  2.554E-01 0.000E+00

     total cpu time spent up to now is        4.4 secs

     total energy              =    -459.64487637 Ry
     estimated scf accuracy    <      16.28889029 Ry

     iteration #  3     ecut=    30.00 Ry     beta= 0.70
     Davidson diagonalization with overlap

---- Real-time Memory Report at c_bands before calling an iterative solver
           180 MiB given to the printing process from OS
             0 MiB allocation reported by mallinfo(arena+hblkhd)
         96227 MiB available memory on the node where the printing process lives
------------------
     ethr =  5.92E-03,  avg # of iterations =  1.4

     negative rho (up, down):  2.579E-01 0.000E+00

     total cpu time spent up to now is        4.9 secs

     total energy              =    -461.92772314 Ry
     estimated scf accuracy    <       0.06514056 Ry

     iteration #  4     ecut=    30.00 Ry     beta= 0.70
     Davidson diagonalization with overlap

---- Real-time Memory Report at c_bands before calling an iterative solver
           180 MiB given to the printing process from OS
             0 MiB allocation reported by mallinfo(arena+hblkhd)
         96226 MiB available memory on the node where the printing process lives
------------------
     ethr =  1.30E-04,  avg # of iterations =  2.0

     negative rho (up, down):  2.591E-01 0.000E+00

     total cpu time spent up to now is        5.5 secs

     total energy              =    -461.92903007 Ry
     estimated scf accuracy    <       0.02434730 Ry

     iteration #  5     ecut=    30.00 Ry     beta= 0.70
     Davidson diagonalization with overlap

---- Real-time Memory Report at c_bands before calling an iterative solver
           180 MiB given to the printing process from OS
             0 MiB allocation reported by mallinfo(arena+hblkhd)
         96225 MiB available memory on the node where the printing process lives
------------------
     ethr =  4.87E-05,  avg # of iterations =  1.7

     negative rho (up, down):  2.616E-01 0.000E+00

     total cpu time spent up to now is        5.9 secs

     total energy              =    -461.92979508 Ry
     estimated scf accuracy    <       0.02512277 Ry

     iteration #  6     ecut=    30.00 Ry     beta= 0.70
     Davidson diagonalization with overlap

---- Real-time Memory Report at c_bands before calling an iterative solver
           180 MiB given to the printing process from OS
             0 MiB allocation reported by mallinfo(arena+hblkhd)
         96226 MiB available memory on the node where the printing process lives
------------------
     ethr =  4.87E-05,  avg # of iterations =  1.0

     negative rho (up, down):  2.614E-01 0.000E+00

     total cpu time spent up to now is        6.2 secs

     total energy              =    -461.93310762 Ry
     estimated scf accuracy    <       0.00049769 Ry

     iteration #  7     ecut=    30.00 Ry     beta= 0.70
     Davidson diagonalization with overlap

---- Real-time Memory Report at c_bands before calling an iterative solver
           180 MiB given to the printing process from OS
             0 MiB allocation reported by mallinfo(arena+hblkhd)
         96225 MiB available memory on the node where the printing process lives
------------------
     ethr =  9.95E-07,  avg # of iterations =  4.4

     negative rho (up, down):  2.614E-01 0.000E+00

     total cpu time spent up to now is        6.6 secs

     total energy              =    -461.93318102 Ry
     estimated scf accuracy    <       0.00001156 Ry

     iteration #  8     ecut=    30.00 Ry     beta= 0.70
     Davidson diagonalization with overlap

---- Real-time Memory Report at c_bands before calling an iterative solver
           180 MiB given to the printing process from OS
             0 MiB allocation reported by mallinfo(arena+hblkhd)
         96225 MiB available memory on the node where the printing process lives
------------------
     ethr =  2.31E-08,  avg # of iterations =  2.0

     negative rho (up, down):  2.615E-01 0.000E+00

     total cpu time spent up to now is        6.9 secs

     End of self-consistent calculation

          k = 0.0000 0.0000 0.0000 (  1277 PWs)   bands (ev):

   -67.6560 -67.6538 -29.5051 -29.4983 -29.4901 -29.4730 -29.4086 -29.4040
    -3.1758  -1.3626  -0.2047  -0.1656   5.2024   5.8751   6.5762   8.2455
     8.2510   9.8501  10.0184  10.3656  10.5996  11.4855  11.6603  12.3717
    13.9053  14.2485  14.5736  14.8455  15.0959  17.6291  17.7676  19.1234
    19.3604  20.8922  22.3110  24.3255  24.3519  25.4103  26.9163  27.1789
    29.0342  30.2391  30.8528  31.0792  32.7465  32.9637  33.2385  33.7157
    33.8175  35.2113  35.6553  37.7333  39.1851  39.6377  39.7746  40.8193
    42.5266  42.6409  42.7194  43.1130  43.2794  43.6663  43.7566  44.4951

     occupation numbers 
     1.0000   1.0000   1.0000   1.0000   1.0000   1.0000   1.0000   1.0000
     1.0000   1.0000   1.0000   1.0000   1.0000   1.0000   1.0000   1.0000
     1.0000   1.0000   1.0000   1.0000   1.0000   1.0000   1.0000   1.0000
     1.0000   0.0000   0.0000   0.0000   0.0000   0.0000   0.0000   0.0000
     0.0000   0.0000   0.0000   0.0000   0.0000   0.0000   0.0000   0.0000
     0.0000   0.0000   0.0000   0.0000   0.0000   0.0000   0.0000   0.0000
     0.0000   0.0000   0.0000   0.0000   0.0000   0.0000   0.0000   0.0000
     0.0000   0.0000   0.0000   0.0000   0.0000   0.0000   0.0000   0.0000

          k = 0.0000 0.0000 0.3313 (  1278 PWs)   bands (ev):

   -67.6555 -67.6543 -29.4985 -29.4953 -29.4837 -29.4755 -29.4147 -29.4123
    -2.6650  -1.5670  -0.7059  -0.4435   6.0781   6.3795   7.3384   7.8369
     7.8397   9.2671   9.7364   9.7876  10.7514  11.3973  12.0929  12.4478
    12.9588  13.2707  15.0468  15.8493  16.2237  16.7020  17.9109  18.4813
    20.3396  21.4741  22.3256  23.9551  24.1355  25.4823  26.8954  27.2322
    28.1036  29.2824  30.8544  31.1091  31.5713  33.5405  34.2898  34.6291
    34.7220  35.8765  36.7038  37.5901  38.6614  38.6816  39.5075  40.3081
    41.2063  42.2813  42.5556  42.9060  43.5452  44.7797  44.9294  45.0872

     occupation numbers 
     1.0000   1.0000   1.0000   1.0000   1.0000   1.0000   1.0000   1.0000
     1.0000   1.0000   1.0000   1.0000   1.0000   1.0000   1.0000   1.0000
     1.0000   1.0000   1.0000   1.0000   1.0000   1.0000   1.0000   1.0000
     1.0000   0.0000   0.0000   0.0000   0.0000   0.0000   0.0000   0.0000
     0.0000   0.0000   0.0000   0.0000   0.0000   0.0000   0.0000   0.0000
     0.0000   0.0000   0.0000   0.0000   0.0000   0.0000   0.0000   0.0000
     0.0000   0.0000   0.0000   0.0000   0.0000   0.0000   0.0000   0.0000
     0.0000   0.0000   0.0000   0.0000   0.0000   0.0000   0.0000   0.0000

          k = 0.0000 0.5494-0.3186 (  1268 PWs)   bands (ev):

   -67.6412 -67.6403 -29.7954 -29.7917 -29.4454 -29.4437 -29.3884 -29.3867
    -1.6963  -1.2025  -0.5727  -0.4332   6.6066   6.7880   7.1135   7.4316
     8.4810   8.4904   9.1447  10.0953  10.1296  10.7221  11.2407  12.3783
    12.8798  14.5391  15.4153  15.5144  16.2890  16.5469  18.1720  18.4267
    20.6414  22.2290  24.0556  25.4673  26.1004  26.6693  27.2079  27.2160
    28.0978  28.2984  28.9275  29.0311  30.5036  31.1054  32.3197  33.9673
    35.3607  35.7736  36.8302  37.1601  38.1061  38.2419  39.4399  39.6604
    41.2339  41.9534  42.8855  43.6539  44.6927  44.8122  45.4160  46.0497

     occupation numbers 
     1.0000   1.0000   1.0000   1.0000   1.0000   1.0000   1.0000   1.0000
     1.0000   1.0000   1.0000   1.0000   1.0000   1.0000   1.0000   1.0000
     1.0000   1.0000   1.0000   1.0000   1.0000   1.0000   1.0000   1.0000
     1.0000   0.0000   0.0000   0.0000   0.0000   0.0000   0.0000   0.0000
     0.0000   0.0000   0.0000   0.0000   0.0000   0.0000   0.0000   0.0000
     0.0000   0.0000   0.0000   0.0000   0.0000   0.0000   0.0000   0.0000
     0.0000   0.0000   0.0000   0.0000   0.0000   0.0000   0.0000   0.0000
     0.0000   0.0000   0.0000   0.0000   0.0000   0.0000   0.0000   0.0000

          k = 0.0000 0.5494 0.0126 (  1264 PWs)   bands (ev):

   -67.6413 -67.6402 -29.7963 -29.7897 -29.4485 -29.4450 -29.3875 -29.3836
    -1.7363  -0.8481  -0.8097  -0.5888   6.9403   7.2095   7.5672   7.6606
     7.6641   7.9882   8.8393   9.7239   9.7562  11.2804  11.5938  11.6775
    14.0521  14.4876  15.0112  15.8960  16.0376  16.4617  18.8501  19.6650
    20.1057  20.4558  23.6408  25.9059  26.1824  27.2937  27.3929  27.6527
    27.8042  28.2570  28.8944  29.1467  29.4681  31.6888  33.9387  34.0012
    35.5466  35.6348  36.7506  36.9598  37.0437  37.5300  39.0225  39.1504
    40.5343  40.5568  41.6104  43.8866  44.7752  44.9009  45.6083  46.1314

     occupation numbers 
     1.0000   1.0000   1.0000   1.0000   1.0000   1.0000   1.0000   1.0000
     1.0000   1.0000   1.0000   1.0000   1.0000   1.0000   1.0000   1.0000
     1.0000   1.0000   1.0000   1.0000   1.0000   1.0000   1.0000   1.0000
     1.0000   0.0000   0.0000   0.0000   0.0000   0.0000   0.0000   0.0000
     0.0000   0.0000   0.0000   0.0000   0.0000   0.0000   0.0000   0.0000
     0.0000   0.0000   0.0000   0.0000   0.0000   0.0000   0.0000   0.0000
     0.0000   0.0000   0.0000   0.0000   0.0000   0.0000   0.0000   0.0000
     0.0000   0.0000   0.0000   0.0000   0.0000   0.0000   0.0000   0.0000

          k = 0.0000 0.5494-0.6499 (  1278 PWs)   bands (ev):

   -67.6409 -67.6406 -29.7950 -29.7921 -29.4447 -29.4425 -29.3898 -29.3874
    -1.4833  -1.2900  -0.7482  -0.4263   6.5613   6.6839   7.1626   7.4756
     8.5802   8.7422   9.3916  10.0186  10.1445  10.6404  11.0595  11.5332
    13.6856  14.3537  15.2880  15.4438  16.3565  16.6652  18.2565  18.3944
    21.3049  21.5245  24.0000  25.4049  26.3585  26.6312  26.9908  27.0282
    27.8566  28.4855  29.0301  29.4423  30.6263  30.9144  32.3460  33.8720
    36.0518  36.2123  36.5932  36.7879  37.7400  37.7801  39.5103  39.9139
    41.3770  41.4927  42.9978  44.1945  44.4200  44.9836  45.2337  45.9005

     occupation numbers 
     1.0000   1.0000   1.0000   1.0000   1.0000   1.0000   1.0000   1.0000
     1.0000   1.0000   1.0000   1.0000   1.0000   1.0000   1.0000   1.0000
     1.0000   1.0000   1.0000   1.0000   1.0000   1.0000   1.0000   1.0000
     1.0000   0.0000   0.0000   0.0000   0.0000   0.0000   0.0000   0.0000
     0.0000   0.0000   0.0000   0.0000   0.0000   0.0000   0.0000   0.0000
     0.0000   0.0000   0.0000   0.0000   0.0000   0.0000   0.0000   0.0000
     0.0000   0.0000   0.0000   0.0000   0.0000   0.0000   0.0000   0.0000
     0.0000   0.0000   0.0000   0.0000   0.0000   0.0000   0.0000   0.0000

          k = 0.3333 0.0000 0.0000 (  1272 PWs)   bands (ev):

   -67.6554 -67.6543 -29.4993 -29.4941 -29.4846 -29.4751 -29.4150 -29.4120
    -2.6592  -1.5568  -0.7008  -0.4684   6.0918   6.3409   7.3935   7.7805
     7.8651   9.2296   9.7576   9.8321  10.7637  11.4666  12.0613  12.3737
    13.0502  13.2543  14.9379  15.8153  16.2601  16.7525  17.8106  18.5850
    20.1908  21.6198  22.3380  23.9277  24.1440  25.4644  26.8121  27.3305
    28.0903  29.2949  30.7874  31.1688  31.6744  33.5032  34.2572  34.4981
    34.8672  35.8481  36.7497  37.4581  38.7664  38.9009  39.2302  40.3172
    41.2806  42.3415  42.4111  43.2258  43.5975  44.2180  44.6932  44.9134

     occupation numbers 
     1.0000   1.0000   1.0000   1.0000   1.0000   1.0000   1.0000   1.0000
     1.0000   1.0000   1.0000   1.0000   1.0000   1.0000   1.0000   1.0000
     1.0000   1.0000   1.0000   1.0000   1.0000   1.0000   1.0000   1.0000
     1.0000   0.0000   0.0000   0.0000   0.0000   0.0000   0.0000   0.0000
     0.0000   0.0000   0.0000   0.0000   0.0000   0.0000   0.0000   0.0000
     0.0000   0.0000   0.0000   0.0000   0.0000   0.0000   0.0000   0.0000
     0.0000   0.0000   0.0000   0.0000   0.0000   0.0000   0.0000   0.0000
     0.0000   0.0000   0.0000   0.0000   0.0000   0.0000   0.0000   0.0000

          k = 0.3333 0.0000 0.3313 (  1270 PWs)   bands (ev):

   -67.6551 -67.6546 -29.5048 -29.4984 -29.4824 -29.4786 -29.4123 -29.4044
    -2.4310  -1.8921  -0.6411  -0.3631   5.5875   6.2542   7.7043   7.8948
     8.4634   9.4702   9.5656  10.1053  10.7117  10.9140  11.5732  11.8453
    12.8102  14.2015  14.5603  15.9186  16.2503  16.9119  18.0493  19.3291
    19.5917  20.7682  23.2544  24.0770  24.7432  25.5062  25.7533  26.4435
    28.1127  29.6152  31.5223  32.0605  32.7851  33.2787  34.1384  34.4261
    34.9801  35.4727  36.0707  36.7077  37.3135  37.6011  39.8242  40.7172
    41.0397  41.8037  42.3238  43.2811  44.0730  45.0983  45.4612  45.7352

     occupation numbers 
     1.0000   1.0000   1.0000   1.0000   1.0000   1.0000   1.0000   1.0000
     1.0000   1.0000   1.0000   1.0000   1.0000   1.0000   1.0000   1.0000
     1.0000   1.0000   1.0000   1.0000   1.0000   1.0000   1.0000   1.0000
     1.0000   0.0000   0.0000   0.0000   0.0000   0.0000   0.0000   0.0000
     0.0000   0.0000   0.0000   0.0000   0.0000   0.0000   0.0000   0.0000
     0.0000   0.0000   0.0000   0.0000   0.0000   0.0000   0.0000   0.0000
     0.0000   0.0000   0.0000   0.0000   0.0000   0.0000   0.0000   0.0000
     0.0000   0.0000   0.0000   0.0000   0.0000   0.0000   0.0000   0.0000

          k = 0.3333 0.5494-0.3186 (  1281 PWs)   bands (ev):

   -67.6411 -67.6405 -29.7952 -29.7912 -29.4480 -29.4440 -29.3886 -29.3851
    -1.4502  -1.0111  -0.9102  -0.5861   6.5760   6.9403   7.1356   7.3351
     8.0593   8.9959   9.2479   9.6776   9.9799  10.8910  11.6199  12.6933
    13.3800  14.3500  14.8419  15.3732  15.7029  16.4662  18.4142  19.6873
    20.1154  21.9553  23.6653  24.4453  24.8792  25.9710  27.4048  28.0138
    28.3057  28.7226  29.2753  29.6178  30.3093  31.8599  32.1753  34.3808
    35.1286  36.1716  36.9197  37.3512  39.1589  39.3752  40.4624  40.9321
    41.4294  41.7827  43.3451  43.8027  43.9864  44.3583  44.8345  45.4920

     occupation numbers 
     1.0000   1.0000   1.0000   1.0000   1.0000   1.0000   1.0000   1.0000
     1.0000   1.0000   1.0000   1.0000   1.0000   1.0000   1.0000   1.0000
     1.0000   1.0000   1.0000   1.0000   1.0000   1.0000   1.0000   1.0000
     1.0000   0.0000   0.0000   0.0000   0.0000   0.0000   0.0000   0.0000
     0.0000   0.0000   0.0000   0.0000   0.0000   0.0000   0.0000   0.0000
     0.0000   0.0000   0.0000   0.0000   0.0000   0.0000   0.0000   0.0000
     0.0000   0.0000   0.0000   0.0000   0.0000   0.0000   0.0000   0.0000
     0.0000   0.0000   0.0000   0.0000   0.0000   0.0000   0.0000   0.0000

          k = 0.3333 0.5494 0.0126 (  1274 PWs)   bands (ev):

   -67.6411 -67.6405 -29.7953 -29.7918 -29.4453 -29.4429 -29.3894 -29.3868
    -1.6002  -1.2364  -0.6676  -0.4219   6.6025   6.7258   7.1232   7.4799
     8.3812   8.6910   9.3113   9.9969  10.1856  10.7373  11.1040  11.9504
    13.2320  14.5072  15.3435  15.5034  16.3355  16.5850  18.0685  18.5758
    20.9891  21.8301  24.0281  25.4944  26.2489  26.6452  26.9614  27.1561
    27.9006  28.3820  28.8970  29.3526  30.4758  31.0910  32.3359  33.9864
    35.6471  36.0483  36.6305  37.0733  37.7783  38.0056  39.4096  39.7806
    41.3486  41.8950  43.0484  43.9168  44.6414  44.8620  45.4417  45.9241

     occupation numbers 
     1.0000   1.0000   1.0000   1.0000   1.0000   1.0000   1.0000   1.0000
     1.0000   1.0000   1.0000   1.0000   1.0000   1.0000   1.0000   1.0000
     1.0000   1.0000   1.0000   1.0000   1.0000   1.0000   1.0000   1.0000
     1.0000   0.0000   0.0000   0.0000   0.0000   0.0000   0.0000   0.0000
     0.0000   0.0000   0.0000   0.0000   0.0000   0.0000   0.0000   0.0000
     0.0000   0.0000   0.0000   0.0000   0.0000   0.0000   0.0000   0.0000
     0.0000   0.0000   0.0000   0.0000   0.0000   0.0000   0.0000   0.0000
     0.0000   0.0000   0.0000   0.0000   0.0000   0.0000   0.0000   0.0000

          k = 0.3333 0.5494-0.6499 (  1281 PWs)   bands (ev):

   -67.6409 -67.6407 -29.7948 -29.7917 -29.4482 -29.4454 -29.3872 -29.3849
    -1.4181  -1.1028  -0.9191  -0.5062   6.6370   6.9186   7.0974   7.3446
     8.0668   8.7633   9.4348   9.7237  10.0147  10.5863  11.8543  12.3882
    13.8617  14.4041  14.8110  15.1308  15.7540  16.6446  18.1651  20.0040
    20.1257  21.4743  23.7276  24.4499  25.0631  25.8981  27.3870  27.7648
    28.2585  28.9082  29.5927  29.6511  30.2779  31.9423  32.1410  34.3671
    35.3539  36.3604  36.7100  37.0721  39.0083  39.4062  40.5460  40.8144
    41.2504  41.7005  43.3127  43.6236  43.8648  44.3197  44.7864  45.4645

     occupation numbers 
     1.0000   1.0000   1.0000   1.0000   1.0000   1.0000   1.0000   1.0000
     1.0000   1.0000   1.0000   1.0000   1.0000   1.0000   1.0000   1.0000
     1.0000   1.0000   1.0000   1.0000   1.0000   1.0000   1.0000   1.0000
     1.0000   0.0000   0.0000   0.0000   0.0000   0.0000   0.0000   0.0000
     0.0000   0.0000   0.0000   0.0000   0.0000   0.0000   0.0000   0.0000
     0.0000   0.0000   0.0000   0.0000   0.0000   0.0000   0.0000   0.0000
     0.0000   0.0000   0.0000   0.0000   0.0000   0.0000   0.0000   0.0000
     0.0000   0.0000   0.0000   0.0000   0.0000   0.0000   0.0000   0.0000

     highest occupied, lowest unoccupied level (ev):    14.0521   13.2543

!    total energy              =    -461.93318448 Ry
     estimated scf accuracy    <       0.00000064 Ry

     The total energy is the sum of the following terms:
     one-electron contribution =    -108.84594286 Ry
     hartree contribution      =      78.70315828 Ry
     xc contribution           =    -126.42346608 Ry
     ewald contribution        =    -305.36693382 Ry

     convergence has been achieved in   8 iterations

     Writing all to output data dir calculations_bands/myprefix.save/
 
     init_run     :      3.43s CPU      1.48s WALL (       1 calls)
     electrons    :     17.98s CPU      5.29s WALL (       1 calls)

     Called by init_run:
     wfcinit      :      1.14s CPU      0.31s WALL (       1 calls)
     wfcinit:atom :      0.00s CPU      0.00s WALL (       5 calls)
     wfcinit:wfcr :      1.13s CPU      0.30s WALL (       5 calls)
     potinit      :      0.74s CPU      0.34s WALL (       1 calls)
     hinit0       :      1.30s CPU      0.69s WALL (       1 calls)

     Called by electrons:
     c_bands      :     11.94s CPU      3.44s WALL (       8 calls)
     sum_band     :      3.40s CPU      1.07s WALL (       8 calls)
     v_of_rho     :      0.21s CPU      0.06s WALL (       9 calls)
     v_h          :      0.01s CPU      0.00s WALL (       9 calls)
     v_xc         :      0.19s CPU      0.06s WALL (       9 calls)
     newd         :      2.36s CPU      0.73s WALL (       9 calls)
     mix_rho      :      0.05s CPU      0.02s WALL (       8 calls)

     Called by c_bands:
     init_us_2    :      0.07s CPU      0.02s WALL (      85 calls)
     init_us_2:cp :      0.07s CPU      0.02s WALL (      85 calls)
     cegterg      :     11.24s CPU      3.24s WALL (      40 calls)

     Called by sum_band:
     sum_band:wei :      0.01s CPU      0.00s WALL (       8 calls)
     sum_band:loo :      1.52s CPU      0.46s WALL (       8 calls)
     sum_band:buf :      0.01s CPU      0.00s WALL (      40 calls)
     sum_band:ini :      0.03s CPU      0.01s WALL (      40 calls)
     sum_band:cal :      0.06s CPU      0.02s WALL (      40 calls)
     sum_band:bec :      0.03s CPU      0.01s WALL (      40 calls)
     addusdens    :      1.38s CPU      0.48s WALL (       8 calls)
     addusd:skk   :      0.00s CPU      0.00s WALL (      16 calls)
     addusd:dgemm :      0.12s CPU      0.09s WALL (      16 calls)
     addusd:qvan2 :      1.13s CPU      0.34s WALL (      16 calls)

     Called by *egterg:
     cdiaghg      :      2.76s CPU      0.79s WALL (     151 calls)
     cegterg:over :      0.39s CPU      0.11s WALL (     111 calls)
     cegterg:upda :      0.24s CPU      0.07s WALL (     111 calls)
     cegterg:last :      0.31s CPU      0.09s WALL (      76 calls)
     cdiaghg:chol :      0.16s CPU      0.04s WALL (     151 calls)
     cdiaghg:inve :      0.03s CPU      0.01s WALL (     151 calls)
     cdiaghg:para :      0.49s CPU      0.14s WALL (     302 calls)
     h_psi        :      8.29s CPU      2.38s WALL (     156 calls)
     s_psi        :      0.07s CPU      0.02s WALL (     156 calls)
     g_psi        :      0.01s CPU      0.00s WALL (     111 calls)

     Called by h_psi:
     h_psi:calbec :      0.22s CPU      0.06s WALL (     156 calls)
     vloc_psi     :      7.95s CPU      2.28s WALL (     156 calls)
     add_vuspsi   :      0.10s CPU      0.03s WALL (     156 calls)

     General routines
     calbec       :      0.27s CPU      0.08s WALL (     196 calls)
     fft          :      0.51s CPU      0.21s WALL (     115 calls)
     ffts         :      0.51s CPU      0.24s WALL (      17 calls)
     fftw         :      7.73s CPU      2.21s WALL (   15098 calls)
     interpolate  :      0.52s CPU      0.24s WALL (       9 calls)
 
     Parallel routines
 
     PWSCF        :     22.36s CPU      7.28s WALL

 
   This run was terminated on:  18:42:18   5Jun2023            

=------------------------------------------------------------------------------=
   JOB DONE.
=------------------------------------------------------------------------------=
