
     Program PWSCF v.7.0 starts on  7Jun2023 at  2:41:45 

     This program is part of the open-source Quantum ESPRESSO suite
     for quantum simulation of materials; please cite
         "P. Giannozzi et al., J. Phys.:Condens. Matter 21 395502 (2009);
         "P. Giannozzi et al., J. Phys.:Condens. Matter 29 465901 (2017);
         "P. Giannozzi et al., J. Chem. Phys. 152 154105 (2020);
          URL http://www.quantum-espresso.org", 
     in publications or presentations arising from this work. More details at
     http://www.quantum-espresso.org/quote

     Parallel version (MPI & OpenMP), running on      32 processor cores
     Number of MPI processes:                 8
     Threads/MPI process:                     4

     MPI processes distributed on     1 nodes
     K-points division:     npool     =       2
     R & G space division:  proc/nbgrp/npool/nimage =       4
     53302 MiB available memory on the printing compute node when the environment starts
 
     Reading input from espresso_1318.pwi
Warning: card &CELL ignored
Warning: card / ignored

     Current dimensions of program PWSCF are:
     Max number of different atomic species (ntypx) = 10
     Max number of k-points (npk) =  40000
     Max angular momentum in pseudopotentials (lmaxx) =  4
     Message from routine setup:
     using ibrav=0 with symmetry is DISCOURAGED, use correct ibrav instead

     Subspace diagonalization in iterative solution of the eigenvalue problem:
     one sub-group per band group will be used
     scalapack distributed-memory algorithm (size of sub-group:  2*  2 procs)

 
     Parallelization info
     --------------------
     sticks:   dense  smooth     PW     G-vecs:    dense   smooth      PW
     Min         221     109     34                15763     5559     886
     Max         222     110     35                15776     5574     893
     Sum         885     437    137                63069    22255    3553
 
     Using Slab Decomposition
 


     bravais-lattice index     =            0
     lattice parameter (alat)  =       6.8761  a.u.
     unit-cell volume          =    1007.4280 (a.u.)^3
     number of atoms/cell      =           10
     number of atomic types    =            4
     number of electrons       =        74.00
     number of Kohn-Sham states=           64
     kinetic-energy cutoff     =      30.0000  Ry
     charge density cutoff     =     240.0000  Ry
     scf convergence threshold =      1.0E-06
     mixing beta               =       0.7000
     number of iterations used =            8  plain     mixing
     Exchange-correlation=  SLA  PW   PBX  PBC
                           (   1   4   3   4   0   0   0)

     celldm(1)=   6.876056  celldm(2)=   0.000000  celldm(3)=   0.000000
     celldm(4)=   0.000000  celldm(5)=   0.000000  celldm(6)=   0.000000

     crystal axes: (cart. coord. in units of alat)
               a(1) = (   1.000000   0.000000   0.000000 )  
               a(2) = (   0.000000   1.000000   0.000000 )  
               a(3) = (   0.000000   0.000000   3.098817 )  

     reciprocal axes: (cart. coord. in units 2 pi/alat)
               b(1) = (  1.000000  0.000000  0.000000 )  
               b(2) = (  0.000000  1.000000  0.000000 )  
               b(3) = (  0.000000  0.000000  0.322704 )  


     PseudoPot. # 1 for Na read from file:
     /home/pragov/projects/rrg-bengioy-ad/pragov/crystal_structure_design/SSSP/na_pbe_v1.5.uspp.F.UPF
     MD5 check sum: 44600605ef58000f06b90626533354dc
     Pseudo is Ultrasoft, Zval =  9.0
     Generated by new atomic code, or converted to UPF format
     Using radial grid of  819 points,  5 beta functions with: 
                l(1) =   0
                l(2) =   0
                l(3) =   1
                l(4) =   1
                l(5) =   2
     Q(r) pseudized with  8 coefficients,  rinner =    1.250   1.250   1.250
                                                       1.250   1.250

     PseudoPot. # 2 for H  read from file:
     /home/pragov/projects/rrg-bengioy-ad/pragov/crystal_structure_design/SSSP/H.pbe-rrkjus_psl.1.0.0.UPF
     MD5 check sum: f52b6d4d1c606e5624b1dc7b2218f220
     Pseudo is Ultrasoft, Zval =  1.0
     Generated using "atomic" code by A. Dal Corso  v.5.1
     Using radial grid of  929 points,  2 beta functions with: 
                l(1) =   0
                l(2) =   0
     Q(r) pseudized with 0 coefficients 


     PseudoPot. # 3 for Pd read from file:
     /home/pragov/projects/rrg-bengioy-ad/pragov/crystal_structure_design/SSSP/Pd_ONCV_PBE-1.0.oncvpsp.upf
     MD5 check sum: eb77f42b51d86fb18e25f68156a31cf1
     Pseudo is Norm-conserving, Zval = 18.0
     Generated using ONCVPSP code by D. R. Hamann
     Using radial grid of 1410 points,  6 beta functions with: 
                l(1) =   0
                l(2) =   0
                l(3) =   1
                l(4) =   1
                l(5) =   2
                l(6) =   2

     PseudoPot. # 4 for Pt read from file:
     /home/pragov/projects/rrg-bengioy-ad/pragov/crystal_structure_design/SSSP/pt_pbe_v1.4.uspp.F.UPF
     MD5 check sum: f09d6de1a584b5a045c4fc126da2d0c4
     Pseudo is Ultrasoft + core correction, Zval = 16.0
     Generated by new atomic code, or converted to UPF format
     Using radial grid of  985 points,  6 beta functions with: 
                l(1) =   0
                l(2) =   0
                l(3) =   1
                l(4) =   1
                l(5) =   2
                l(6) =   2
     Q(r) pseudized with  8 coefficients,  rinner =    1.300   1.300   1.300
                                                       1.300   1.300

     atomic species   valence    mass     pseudopotential
        Na             9.00    22.98977     Na( 1.00)
        H              1.00     1.00800     H ( 1.00)
        Pd            18.00   106.42000     Pd( 1.00)
        Pt            16.00   195.08400     Pt( 1.00)

     16 Sym. Ops., with inversion, found


                                    s                        frac. trans.

      isym =  1     identity                                     

 cryst.   s( 1) = (     1          0          0      )
                  (     0          1          0      )
                  (     0          0          1      )

 cart.    s( 1) = (  1.0000000  0.0000000  0.0000000 )
                  (  0.0000000  1.0000000  0.0000000 )
                  (  0.0000000  0.0000000  1.0000000 )


      isym =  2     180 deg rotation - cart. axis [0,0,1]        

 cryst.   s( 2) = (    -1          0          0      )
                  (     0         -1          0      )
                  (     0          0          1      )

 cart.    s( 2) = ( -1.0000000  0.0000000  0.0000000 )
                  (  0.0000000 -1.0000000  0.0000000 )
                  (  0.0000000  0.0000000  1.0000000 )


      isym =  3     180 deg rotation - cart. axis [0,1,0]        

 cryst.   s( 3) = (    -1          0          0      )
                  (     0          1          0      )
                  (     0          0         -1      )

 cart.    s( 3) = ( -1.0000000  0.0000000  0.0000000 )
                  (  0.0000000  1.0000000  0.0000000 )
                  (  0.0000000  0.0000000 -1.0000000 )


      isym =  4     180 deg rotation - cart. axis [1,0,0]        

 cryst.   s( 4) = (     1          0          0      )
                  (     0         -1          0      )
                  (     0          0         -1      )

 cart.    s( 4) = (  1.0000000  0.0000000  0.0000000 )
                  (  0.0000000 -1.0000000  0.0000000 )
                  (  0.0000000  0.0000000 -1.0000000 )


      isym =  5     180 deg rotation - cart. axis [1,1,0]        

 cryst.   s( 5) = (     0          1          0      )
                  (     1          0          0      )
                  (     0          0         -1      )

 cart.    s( 5) = (  0.0000000  1.0000000  0.0000000 )
                  (  1.0000000  0.0000000  0.0000000 )
                  (  0.0000000  0.0000000 -1.0000000 )


      isym =  6     180 deg rotation - cart. axis [1,-1,0]       

 cryst.   s( 6) = (     0         -1          0      )
                  (    -1          0          0      )
                  (     0          0         -1      )

 cart.    s( 6) = (  0.0000000 -1.0000000  0.0000000 )
                  ( -1.0000000  0.0000000  0.0000000 )
                  (  0.0000000  0.0000000 -1.0000000 )


      isym =  7      90 deg rotation - cart. axis [0,0,-1]       

 cryst.   s( 7) = (     0         -1          0      )
                  (     1          0          0      )
                  (     0          0          1      )

 cart.    s( 7) = (  0.0000000  1.0000000  0.0000000 )
                  ( -1.0000000  0.0000000  0.0000000 )
                  (  0.0000000  0.0000000  1.0000000 )


      isym =  8      90 deg rotation - cart. axis [0,0,1]        

 cryst.   s( 8) = (     0          1          0      )
                  (    -1          0          0      )
                  (     0          0          1      )

 cart.    s( 8) = (  0.0000000 -1.0000000  0.0000000 )
                  (  1.0000000  0.0000000  0.0000000 )
                  (  0.0000000  0.0000000  1.0000000 )


      isym =  9     inversion                                    

 cryst.   s( 9) = (    -1          0          0      )
                  (     0         -1          0      )
                  (     0          0         -1      )

 cart.    s( 9) = ( -1.0000000  0.0000000  0.0000000 )
                  (  0.0000000 -1.0000000  0.0000000 )
                  (  0.0000000  0.0000000 -1.0000000 )


      isym = 10     inv. 180 deg rotation - cart. axis [0,0,1]   

 cryst.   s(10) = (     1          0          0      )
                  (     0          1          0      )
                  (     0          0         -1      )

 cart.    s(10) = (  1.0000000  0.0000000  0.0000000 )
                  (  0.0000000  1.0000000  0.0000000 )
                  (  0.0000000  0.0000000 -1.0000000 )


      isym = 11     inv. 180 deg rotation - cart. axis [0,1,0]   

 cryst.   s(11) = (     1          0          0      )
                  (     0         -1          0      )
                  (     0          0          1      )

 cart.    s(11) = (  1.0000000  0.0000000  0.0000000 )
                  (  0.0000000 -1.0000000  0.0000000 )
                  (  0.0000000  0.0000000  1.0000000 )


      isym = 12     inv. 180 deg rotation - cart. axis [1,0,0]   

 cryst.   s(12) = (    -1          0          0      )
                  (     0          1          0      )
                  (     0          0          1      )

 cart.    s(12) = ( -1.0000000  0.0000000  0.0000000 )
                  (  0.0000000  1.0000000  0.0000000 )
                  (  0.0000000  0.0000000  1.0000000 )


      isym = 13     inv. 180 deg rotation - cart. axis [1,1,0]   

 cryst.   s(13) = (     0         -1          0      )
                  (    -1          0          0      )
                  (     0          0          1      )

 cart.    s(13) = (  0.0000000 -1.0000000  0.0000000 )
                  ( -1.0000000  0.0000000  0.0000000 )
                  (  0.0000000  0.0000000  1.0000000 )


      isym = 14     inv. 180 deg rotation - cart. axis [1,-1,0]  

 cryst.   s(14) = (     0          1          0      )
                  (     1          0          0      )
                  (     0          0          1      )

 cart.    s(14) = (  0.0000000  1.0000000  0.0000000 )
                  (  1.0000000  0.0000000  0.0000000 )
                  (  0.0000000  0.0000000  1.0000000 )


      isym = 15     inv.  90 deg rotation - cart. axis [0,0,-1]  

 cryst.   s(15) = (     0          1          0      )
                  (    -1          0          0      )
                  (     0          0         -1      )

 cart.    s(15) = (  0.0000000 -1.0000000  0.0000000 )
                  (  1.0000000  0.0000000  0.0000000 )
                  (  0.0000000  0.0000000 -1.0000000 )


      isym = 16     inv.  90 deg rotation - cart. axis [0,0,1]   

 cryst.   s(16) = (     0         -1          0      )
                  (     1          0          0      )
                  (     0          0         -1      )

 cart.    s(16) = (  0.0000000  1.0000000  0.0000000 )
                  ( -1.0000000  0.0000000  0.0000000 )
                  (  0.0000000  0.0000000 -1.0000000 )


   Cartesian axes

     site n.     atom                  positions (alat units)
         1           Na  tau(   1) = (   0.5000000   0.5000000   0.4300816  )
         2           Na  tau(   2) = (   0.0000000   0.0000000   1.9661960  )
         3           Na  tau(   3) = (   0.0000000   0.0000000   1.1326205  )
         4           Na  tau(   4) = (   0.5000000   0.5000000   2.6687349  )
         5           H   tau(   5) = (   0.5000000   0.5000000   1.0896245  )
         6           H   tau(   6) = (   0.0000000   0.0000000   2.6317598  )
         7           H   tau(   7) = (   0.0000000   0.0000000   0.4670567  )
         8           H   tau(   8) = (   0.5000000   0.5000000   2.0091921  )
         9           Pd  tau(   9) = (   0.0000000   0.0000000   0.0000000  )
        10           Pt  tau(  10) = (   0.5000000   0.5000000   1.5494083  )

   Crystallographic axes

     site n.     atom                  positions (cryst. coord.)
         1           Na  tau(   1) = (  0.5000000  0.5000000  0.1387890  )
         2           Na  tau(   2) = (  0.0000000  0.0000000  0.6344990  )
         3           Na  tau(   3) = (  0.0000000  0.0000000  0.3655010  )
         4           Na  tau(   4) = (  0.5000000  0.5000000  0.8612110  )
         5           H   tau(   5) = (  0.5000000  0.5000000  0.3516260  )
         6           H   tau(   6) = (  0.0000000  0.0000000  0.8492790  )
         7           H   tau(   7) = (  0.0000000  0.0000000  0.1507210  )
         8           H   tau(   8) = (  0.5000000  0.5000000  0.6483740  )
         9           Pd  tau(   9) = (  0.0000000  0.0000000  0.0000000  )
        10           Pt  tau(  10) = (  0.5000000  0.5000000  0.5000000  )

     number of k points=     6
                       cart. coord. in units 2pi/alat
        k(    1) = (   0.0000000   0.0000000   0.0000000), wk =   0.0740741
        k(    2) = (   0.0000000   0.0000000   0.1075679), wk =   0.1481481
        k(    3) = (   0.0000000   0.3333333   0.0000000), wk =   0.2962963
        k(    4) = (   0.0000000   0.3333333   0.1075679), wk =   0.5925926
        k(    5) = (   0.3333333   0.3333333   0.0000000), wk =   0.2962963
        k(    6) = (   0.3333333   0.3333333   0.1075679), wk =   0.5925926

                       cryst. coord.
        k(    1) = (   0.0000000   0.0000000   0.0000000), wk =   0.0740741
        k(    2) = (   0.0000000   0.0000000   0.3333333), wk =   0.1481481
        k(    3) = (   0.0000000   0.3333333   0.0000000), wk =   0.2962963
        k(    4) = (   0.0000000   0.3333333   0.3333333), wk =   0.5925926
        k(    5) = (   0.3333333   0.3333333   0.0000000), wk =   0.2962963
        k(    6) = (   0.3333333   0.3333333   0.3333333), wk =   0.5925926

     Dense  grid:    63069 G-vectors     FFT dimensions: (  36,  36, 108)

     Smooth grid:    22255 G-vectors     FFT dimensions: (  24,  24,  75)

     Dynamical RAM for                 wfc:       0.68 MB

     Dynamical RAM for     wfc (w. buffer):       2.73 MB

     Dynamical RAM for           str. fact:       0.96 MB

     Dynamical RAM for           local pot:       0.00 MB

     Dynamical RAM for          nlocal pot:       1.02 MB

     Dynamical RAM for                qrad:       4.98 MB

     Dynamical RAM for          rho,v,vnew:       1.52 MB

     Dynamical RAM for               rhoin:       0.51 MB

     Dynamical RAM for            rho*nmix:       3.85 MB

     Dynamical RAM for           G-vectors:       0.94 MB

     Dynamical RAM for          h,s,v(r/c):       0.19 MB

     Dynamical RAM for          <psi|beta>:       0.09 MB

     Dynamical RAM for                 psi:       1.36 MB

     Dynamical RAM for                hpsi:       1.36 MB

     Dynamical RAM for                spsi:       1.36 MB

     Dynamical RAM for      wfcinit/wfcrot:       1.46 MB

     Dynamical RAM for           addusdens:      22.97 MB

     Estimated static dynamical RAM per process >      15.20 MB

     Estimated max dynamical RAM per process >      42.02 MB

     Estimated total dynamical RAM >     320.74 MB

     Initial potential from superposition of free atoms

     starting charge      73.4744, renormalised to      74.0000

     negative rho (up, down):  1.777E-01 0.000E+00
     Starting wfcs are   46 randomized atomic wfcs +   18 random wfcs

     total cpu time spent up to now is        1.9 secs

     Self-consistent Calculation

     iteration #  1     ecut=    30.00 Ry     beta= 0.70
     Davidson diagonalization with overlap

---- Real-time Memory Report at c_bands before calling an iterative solver
           150 MiB given to the printing process from OS
             0 MiB allocation reported by mallinfo(arena+hblkhd)
         53149 MiB available memory on the node where the printing process lives
------------------
     ethr =  1.00E-02,  avg # of iterations =  7.8

     negative rho (up, down):  1.666E-01 0.000E+00

     total cpu time spent up to now is        2.6 secs

     total energy              =    -849.72675101 Ry
     estimated scf accuracy    <       0.84651736 Ry

     iteration #  2     ecut=    30.00 Ry     beta= 0.70
     Davidson diagonalization with overlap

---- Real-time Memory Report at c_bands before calling an iterative solver
           169 MiB given to the printing process from OS
             0 MiB allocation reported by mallinfo(arena+hblkhd)
         53047 MiB available memory on the node where the printing process lives
------------------
     ethr =  1.14E-03,  avg # of iterations =  4.8

     negative rho (up, down):  1.706E-01 0.000E+00

     total cpu time spent up to now is        3.1 secs

     total energy              =    -849.81444301 Ry
     estimated scf accuracy    <       0.38257088 Ry

     iteration #  3     ecut=    30.00 Ry     beta= 0.70
     Davidson diagonalization with overlap

---- Real-time Memory Report at c_bands before calling an iterative solver
           171 MiB given to the printing process from OS
             0 MiB allocation reported by mallinfo(arena+hblkhd)
         53013 MiB available memory on the node where the printing process lives
------------------
     ethr =  5.17E-04,  avg # of iterations =  3.3

     negative rho (up, down):  1.694E-01 0.000E+00

     total cpu time spent up to now is        3.5 secs

     total energy              =    -849.89562328 Ry
     estimated scf accuracy    <       0.23776503 Ry

     iteration #  4     ecut=    30.00 Ry     beta= 0.70
     Davidson diagonalization with overlap

---- Real-time Memory Report at c_bands before calling an iterative solver
           172 MiB given to the printing process from OS
             0 MiB allocation reported by mallinfo(arena+hblkhd)
         52873 MiB available memory on the node where the printing process lives
------------------
     ethr =  3.21E-04,  avg # of iterations =  3.3

     negative rho (up, down):  1.693E-01 0.000E+00

     total cpu time spent up to now is        3.9 secs

     total energy              =    -849.94439543 Ry
     estimated scf accuracy    <       0.00687812 Ry

     iteration #  5     ecut=    30.00 Ry     beta= 0.70
     Davidson diagonalization with overlap

---- Real-time Memory Report at c_bands before calling an iterative solver
           172 MiB given to the printing process from OS
             0 MiB allocation reported by mallinfo(arena+hblkhd)
         52770 MiB available memory on the node where the printing process lives
------------------
     ethr =  9.29E-06,  avg # of iterations =  7.0

     negative rho (up, down):  1.692E-01 0.000E+00

     total cpu time spent up to now is        4.5 secs

     total energy              =    -849.94554096 Ry
     estimated scf accuracy    <       0.00017029 Ry

     iteration #  6     ecut=    30.00 Ry     beta= 0.70
     Davidson diagonalization with overlap

---- Real-time Memory Report at c_bands before calling an iterative solver
           172 MiB given to the printing process from OS
             0 MiB allocation reported by mallinfo(arena+hblkhd)
         52542 MiB available memory on the node where the printing process lives
------------------
     ethr =  2.30E-07,  avg # of iterations =  2.8

     negative rho (up, down):  1.692E-01 0.000E+00

     total cpu time spent up to now is        5.2 secs

     total energy              =    -849.94556623 Ry
     estimated scf accuracy    <       0.00009791 Ry

     iteration #  7     ecut=    30.00 Ry     beta= 0.70
     Davidson diagonalization with overlap

---- Real-time Memory Report at c_bands before calling an iterative solver
           173 MiB given to the printing process from OS
             0 MiB allocation reported by mallinfo(arena+hblkhd)
         53012 MiB available memory on the node where the printing process lives
------------------
     ethr =  1.32E-07,  avg # of iterations =  2.0

     negative rho (up, down):  1.692E-01 0.000E+00

     total cpu time spent up to now is        5.8 secs

     total energy              =    -849.94558794 Ry
     estimated scf accuracy    <       0.00000877 Ry

     iteration #  8     ecut=    30.00 Ry     beta= 0.70
     Davidson diagonalization with overlap

---- Real-time Memory Report at c_bands before calling an iterative solver
           173 MiB given to the printing process from OS
             0 MiB allocation reported by mallinfo(arena+hblkhd)
         53015 MiB available memory on the node where the printing process lives
------------------
     ethr =  1.18E-08,  avg # of iterations =  2.0

     negative rho (up, down):  1.692E-01 0.000E+00

     total cpu time spent up to now is        6.5 secs

     End of self-consistent calculation

          k = 0.0000 0.0000 0.0000 (  2793 PWs)   bands (ev):

   -79.0414 -46.2665 -46.2638 -45.9319 -45.8972 -45.8758 -45.4274 -45.4274
   -44.7299 -44.2919 -44.2919 -18.2349 -18.1787 -18.1578 -18.1578 -18.1533
   -18.1533 -17.8740 -17.8003 -17.7922 -17.7922 -17.7850 -17.7850  -1.1674
    -0.2161   0.9190   2.3182   2.5564   2.5926   3.5233   3.6706   3.8231
     3.8231   4.1881   4.1881   4.2814   4.8434   7.0907  10.6814  11.0347
    12.5170  12.6796  12.6796  13.4035  13.4035  13.7431  14.0766  14.1349
    14.2697  14.9083  14.9083  15.8547  16.4966  16.5760  16.7253  16.7254
    18.6387  19.0668  19.2059  19.2059  20.5285  20.8821  21.4230  21.4230

     occupation numbers 
     1.0000   1.0000   1.0000   1.0000   1.0000   1.0000   1.0000   1.0000
     1.0000   1.0000   1.0000   1.0000   1.0000   1.0000   1.0000   1.0000
     1.0000   1.0000   1.0000   1.0000   1.0000   1.0000   1.0000   1.0000
     1.0000   1.0000   1.0000   1.0000   1.0000   1.0000   1.0000   1.0000
     1.0000   1.0000   1.0000   1.0000   1.0000   0.0000   0.0000   0.0000
     0.0000   0.0000   0.0000   0.0000   0.0000   0.0000   0.0000   0.0000
     0.0000   0.0000   0.0000   0.0000   0.0000   0.0000   0.0000   0.0000
     0.0000   0.0000   0.0000   0.0000   0.0000   0.0000   0.0000   0.0000

          k = 0.0000 0.0000 0.1076 (  2765 PWs)   bands (ev):

   -79.0413 -46.2660 -46.2636 -45.9320 -45.8968 -45.8752 -45.4273 -45.4273
   -44.7287 -44.2907 -44.2907 -18.2343 -18.1759 -18.1561 -18.1561 -18.1522
   -18.1522 -17.8714 -17.7998 -17.7905 -17.7905 -17.7838 -17.7838  -1.1057
    -0.4176   1.3696   2.1355   2.3340   2.6105   3.5277   3.6705   3.8309
     3.8309   4.1882   4.1882   4.3182   4.8444   7.7222   9.1744  12.2968
    12.6579  12.8092  12.8092  13.1479  13.1479  13.3902  13.8860  14.0965
    14.2560  15.3537  15.3537  16.2146  16.2146  16.3277  16.7363  16.7453
    18.4455  18.7444  19.4191  19.7859  19.7859  20.8616  20.9148  20.9149

     occupation numbers 
     1.0000   1.0000   1.0000   1.0000   1.0000   1.0000   1.0000   1.0000
     1.0000   1.0000   1.0000   1.0000   1.0000   1.0000   1.0000   1.0000
     1.0000   1.0000   1.0000   1.0000   1.0000   1.0000   1.0000   1.0000
     1.0000   1.0000   1.0000   1.0000   1.0000   1.0000   1.0000   1.0000
     1.0000   1.0000   1.0000   1.0000   1.0000   0.0000   0.0000   0.0000
     0.0000   0.0000   0.0000   0.0000   0.0000   0.0000   0.0000   0.0000
     0.0000   0.0000   0.0000   0.0000   0.0000   0.0000   0.0000   0.0000
     0.0000   0.0000   0.0000   0.0000   0.0000   0.0000   0.0000   0.0000

          k = 0.0000 0.3333 0.0000 (  2780 PWs)   bands (ev):

   -79.0412 -46.2660 -46.2625 -45.9204 -45.8978 -45.8858 -45.4320 -45.4269
   -44.7292 -44.2968 -44.2899 -18.2295 -18.1819 -18.1779 -18.1727 -18.1544
   -18.1488 -17.8676 -17.8166 -17.8047 -17.8000 -17.7886 -17.7808  -0.6592
     0.0837   1.7131   2.7962   3.0618   3.2354   3.4406   3.6895   3.8445
     4.0933   4.1037   4.2105   4.3811   4.5087   7.2372   7.9447   8.2143
    10.1449  10.4820  11.2264  12.5676  13.8086  14.0755  14.3919  14.5455
    14.6500  15.6051  15.8846  16.1953  16.3531  17.7107  18.1527  18.3990
    18.6830  18.8602  19.7230  20.1991  20.3140  20.3837  21.0736  21.2993

     occupation numbers 
     1.0000   1.0000   1.0000   1.0000   1.0000   1.0000   1.0000   1.0000
     1.0000   1.0000   1.0000   1.0000   1.0000   1.0000   1.0000   1.0000
     1.0000   1.0000   1.0000   1.0000   1.0000   1.0000   1.0000   1.0000
     1.0000   1.0000   1.0000   1.0000   1.0000   1.0000   1.0000   1.0000
     1.0000   1.0000   1.0000   1.0000   1.0000   0.0000   0.0000   0.0000
     0.0000   0.0000   0.0000   0.0000   0.0000   0.0000   0.0000   0.0000
     0.0000   0.0000   0.0000   0.0000   0.0000   0.0000   0.0000   0.0000
     0.0000   0.0000   0.0000   0.0000   0.0000   0.0000   0.0000   0.0000

          k = 0.0000 0.3333 0.1076 (  2770 PWs)   bands (ev):

   -79.0412 -46.2657 -46.2626 -45.9204 -45.8975 -45.8858 -45.4320 -45.4269
   -44.7289 -44.2964 -44.2895 -18.2303 -18.1808 -18.1762 -18.1728 -18.1529
   -18.1491 -17.8685 -17.8155 -17.8050 -17.7981 -17.7875 -17.7808  -0.6350
     0.0189   1.9648   2.4780   3.0847   3.2648   3.4553   3.6725   3.8470
     4.1113   4.1358   4.2106   4.3947   4.5088   7.3636   7.9433   8.3252
     9.3632  10.7772  11.7492  12.6038  13.9157  13.9343  14.1676  14.2725
    14.3524  15.8179  16.1072  16.3908  16.9802  17.4470  17.5173  18.2277
    18.7993  19.0814  19.2495  20.3598  20.5919  20.9652  20.9850  21.3575

     occupation numbers 
     1.0000   1.0000   1.0000   1.0000   1.0000   1.0000   1.0000   1.0000
     1.0000   1.0000   1.0000   1.0000   1.0000   1.0000   1.0000   1.0000
     1.0000   1.0000   1.0000   1.0000   1.0000   1.0000   1.0000   1.0000
     1.0000   1.0000   1.0000   1.0000   1.0000   1.0000   1.0000   1.0000
     1.0000   1.0000   1.0000   1.0000   1.0000   0.0000   0.0000   0.0000
     0.0000   0.0000   0.0000   0.0000   0.0000   0.0000   0.0000   0.0000
     0.0000   0.0000   0.0000   0.0000   0.0000   0.0000   0.0000   0.0000
     0.0000   0.0000   0.0000   0.0000   0.0000   0.0000   0.0000   0.0000

          k = 0.3333 0.3333 0.0000 (  2810 PWs)   bands (ev):

   -79.0411 -46.2654 -46.2622 -45.9160 -45.8966 -45.8894 -45.4331 -45.4324
   -44.7281 -44.2974 -44.2970 -18.2275 -18.1797 -18.1775 -18.1735 -18.1721
   -18.1714 -17.8658 -17.8142 -17.8121 -17.8044 -17.8037 -17.7962  -0.3672
     0.2852   2.3412   3.0061   3.5090   3.5525   3.5720   3.7501   3.7764
     3.8065   4.2108   4.5102   4.6817   4.7089   8.2685   8.3735   8.9169
     9.1600   9.2278  10.1871  10.4406  11.9669  12.5143  12.6052  13.1432
    14.5180  14.5344  14.5569  15.3030  16.4517  16.5032  16.6291  17.9881
    18.4139  18.9416  19.5867  20.5435  20.5887  21.1903  21.5828  22.6177

     occupation numbers 
     1.0000   1.0000   1.0000   1.0000   1.0000   1.0000   1.0000   1.0000
     1.0000   1.0000   1.0000   1.0000   1.0000   1.0000   1.0000   1.0000
     1.0000   1.0000   1.0000   1.0000   1.0000   1.0000   1.0000   1.0000
     1.0000   1.0000   1.0000   1.0000   1.0000   1.0000   1.0000   1.0000
     1.0000   1.0000   1.0000   1.0000   1.0000   0.0000   0.0000   0.0000
     0.0000   0.0000   0.0000   0.0000   0.0000   0.0000   0.0000   0.0000
     0.0000   0.0000   0.0000   0.0000   0.0000   0.0000   0.0000   0.0000
     0.0000   0.0000   0.0000   0.0000   0.0000   0.0000   0.0000   0.0000

          k = 0.3333 0.3333 0.1076 (  2818 PWs)   bands (ev):

   -79.0411 -46.2655 -46.2622 -45.9159 -45.8966 -45.8897 -45.4331 -45.4323
   -44.7284 -44.2978 -44.2971 -18.2268 -18.1792 -18.1782 -18.1750 -18.1729
   -18.1718 -17.8658 -17.8135 -17.8125 -17.8053 -17.8044 -17.7973  -0.3604
     0.2656   2.4852   2.8077   3.5051   3.5604   3.5730   3.7475   3.7979
     3.8095   4.2052   4.5753   4.6760   4.6816   8.3401   8.5026   8.9297
     8.9928   9.1084   9.8173  10.9429  11.8903  12.4420  13.0123  13.2180
    13.7129  14.4311  15.1599  15.3088  15.8535  16.8252  17.0823  17.6917
    17.9595  19.3873  19.5098  20.4721  20.9526  21.3709  22.1918  22.6580

     occupation numbers 
     1.0000   1.0000   1.0000   1.0000   1.0000   1.0000   1.0000   1.0000
     1.0000   1.0000   1.0000   1.0000   1.0000   1.0000   1.0000   1.0000
     1.0000   1.0000   1.0000   1.0000   1.0000   1.0000   1.0000   1.0000
     1.0000   1.0000   1.0000   1.0000   1.0000   1.0000   1.0000   1.0000
     1.0000   1.0000   1.0000   1.0000   1.0000   0.0000   0.0000   0.0000
     0.0000   0.0000   0.0000   0.0000   0.0000   0.0000   0.0000   0.0000
     0.0000   0.0000   0.0000   0.0000   0.0000   0.0000   0.0000   0.0000
     0.0000   0.0000   0.0000   0.0000   0.0000   0.0000   0.0000   0.0000

     highest occupied, lowest unoccupied level (ev):     4.8444    7.0907

!    total energy              =    -849.94558931 Ry
     estimated scf accuracy    <       0.00000031 Ry

     The total energy is the sum of the following terms:
     one-electron contribution =    -567.70728821 Ry
     hartree contribution      =     301.54688878 Ry
     xc contribution           =    -141.99554403 Ry
     ewald contribution        =    -441.78964585 Ry

     convergence has been achieved in   8 iterations

     Writing all to output data dir calculations_bands/myprefix.save/
 
     init_run     :      3.97s CPU      1.70s WALL (       1 calls)
     electrons    :     16.21s CPU      4.63s WALL (       1 calls)

     Called by init_run:
     wfcinit      :      0.42s CPU      0.12s WALL (       1 calls)
     wfcinit:atom :      0.00s CPU      0.00s WALL (       3 calls)
     wfcinit:wfcr :      0.41s CPU      0.11s WALL (       3 calls)
     potinit      :      0.94s CPU      0.28s WALL (       1 calls)
     hinit0       :      2.17s CPU      0.97s WALL (       1 calls)

     Called by electrons:
     c_bands      :     10.75s CPU      3.03s WALL (       8 calls)
     sum_band     :      3.40s CPU      0.98s WALL (       8 calls)
     v_of_rho     :      0.40s CPU      0.11s WALL (       9 calls)
     v_h          :      0.03s CPU      0.01s WALL (       9 calls)
     v_xc         :      0.37s CPU      0.11s WALL (       9 calls)
     newd         :      1.63s CPU      0.49s WALL (       9 calls)
     mix_rho      :      0.07s CPU      0.02s WALL (       8 calls)

     Called by c_bands:
     init_us_2    :      0.04s CPU      0.01s WALL (      51 calls)
     init_us_2:cp :      0.04s CPU      0.01s WALL (      51 calls)
     cegterg      :     10.54s CPU      2.97s WALL (      24 calls)

     Called by sum_band:
     sum_band:wei :      0.01s CPU      0.00s WALL (       8 calls)
     sum_band:loo :      1.82s CPU      0.50s WALL (       8 calls)
     sum_band:buf :      0.01s CPU      0.00s WALL (      24 calls)
     sum_band:ini :      0.02s CPU      0.00s WALL (      24 calls)
     sum_band:cal :      0.13s CPU      0.03s WALL (      24 calls)
     sum_band:bec :      0.01s CPU      0.00s WALL (      24 calls)
     addusdens    :      0.72s CPU      0.26s WALL (       8 calls)
     addusd:skk   :      0.06s CPU      0.02s WALL (      24 calls)
     addusd:dgemm :      0.06s CPU      0.06s WALL (      24 calls)
     addusd:qvan2 :      0.40s CPU      0.11s WALL (      24 calls)

     Called by *egterg:
     cdiaghg      :      1.60s CPU      0.47s WALL (     108 calls)
     cegterg:over :      0.83s CPU      0.23s WALL (      84 calls)
     cegterg:upda :      0.22s CPU      0.07s WALL (      84 calls)
     cegterg:last :      0.33s CPU      0.10s WALL (      51 calls)
     cdiaghg:chol :      0.10s CPU      0.03s WALL (     108 calls)
     cdiaghg:inve :      0.02s CPU      0.01s WALL (     108 calls)
     cdiaghg:para :      0.28s CPU      0.08s WALL (     216 calls)
     h_psi        :      7.30s CPU      2.03s WALL (     111 calls)
     s_psi        :      0.06s CPU      0.02s WALL (     111 calls)
     g_psi        :      0.01s CPU      0.00s WALL (      84 calls)

     Called by h_psi:
     h_psi:calbec :      0.32s CPU      0.09s WALL (     111 calls)
     vloc_psi     :      6.85s CPU      1.91s WALL (     111 calls)
     add_vuspsi   :      0.12s CPU      0.03s WALL (     111 calls)

     General routines
     calbec       :      0.45s CPU      0.12s WALL (     135 calls)
     fft          :      1.66s CPU      0.58s WALL (     115 calls)
     ffts         :      0.70s CPU      0.18s WALL (      17 calls)
     fftw         :      7.99s CPU      2.23s WALL (    9230 calls)
     interpolate  :      0.71s CPU      0.18s WALL (       9 calls)
 
     Parallel routines
 
     PWSCF        :     21.13s CPU      6.79s WALL

 
   This run was terminated on:   2:41:52   7Jun2023            

=------------------------------------------------------------------------------=
   JOB DONE.
=------------------------------------------------------------------------------=
