
     Program PWSCF v.7.0 starts on 23Jun2023 at  6:34:35 

     This program is part of the open-source Quantum ESPRESSO suite
     for quantum simulation of materials; please cite
         "P. Giannozzi et al., J. Phys.:Condens. Matter 21 395502 (2009);
         "P. Giannozzi et al., J. Phys.:Condens. Matter 29 465901 (2017);
         "P. Giannozzi et al., J. Chem. Phys. 152 154105 (2020);
          URL http://www.quantum-espresso.org", 
     in publications or presentations arising from this work. More details at
     http://www.quantum-espresso.org/quote

     Parallel version (MPI & OpenMP), running on      32 processor cores
     Number of MPI processes:                 8
     Threads/MPI process:                     4

     MPI processes distributed on     1 nodes
     K-points division:     npool     =       2
     R & G space division:  proc/nbgrp/npool/nimage =       4
     173454 MiB available memory on the printing compute node when the environment starts
 
     Reading input from espresso_14005.pwi
Warning: card &CELL ignored
Warning: card / ignored

     Current dimensions of program PWSCF are:
     Max number of different atomic species (ntypx) = 10
     Max number of k-points (npk) =  40000
     Max angular momentum in pseudopotentials (lmaxx) =  4
     Message from routine setup:
     using ibrav=0 with symmetry is DISCOURAGED, use correct ibrav instead

     Subspace diagonalization in iterative solution of the eigenvalue problem:
     one sub-group per band group will be used
     scalapack distributed-memory algorithm (size of sub-group:  2*  2 procs)

 
     Parallelization info
     --------------------
     sticks:   dense  smooth     PW     G-vecs:    dense   smooth      PW
     Min         709     354    101                22675     7997    1216
     Max         710     355    103                22676     7998    1217
     Sum        2839    1417    409                90703    31991    4867
 
     Using Slab Decomposition
 


     bravais-lattice index     =            0
     lattice parameter (alat)  =      13.0597  a.u.
     unit-cell volume          =    1443.6441 (a.u.)^3
     number of atoms/cell      =            8
     number of atomic types    =            2
     number of electrons       =       142.00
     number of Kohn-Sham states=           90
     kinetic-energy cutoff     =      30.0000  Ry
     charge density cutoff     =     240.0000  Ry
     scf convergence threshold =      1.0E-06
     mixing beta               =       0.7000
     number of iterations used =            8  plain     mixing
     Exchange-correlation= PBE
                           (   1   4   3   4   0   0   0)

     celldm(1)=  13.059658  celldm(2)=   0.000000  celldm(3)=   0.000000
     celldm(4)=   0.000000  celldm(5)=   0.000000  celldm(6)=   0.000000

     crystal axes: (cart. coord. in units of alat)
               a(1) = (   1.000000   0.000000   0.000000 )  
               a(2) = (  -0.500000   0.866025   0.000000 )  
               a(3) = (   0.000000   0.000000   0.748400 )  

     reciprocal axes: (cart. coord. in units 2 pi/alat)
               b(1) = (  1.000000  0.577350  0.000000 )  
               b(2) = (  0.000000  1.154700  0.000000 )  
               b(3) = (  0.000000  0.000000  1.336183 )  


     PseudoPot. # 1 for La read from file:
     /home/pragov/projects/rrg-bengioy-ad/pragov/crystal_structure_design/SSSP/La.GGA-PBE-paw-v1.0.UPF
     MD5 check sum: 436541e95c1ad8901025bd0b0ed42ae2
     Pseudo is Projector augmented-wave + core cor, Zval = 11.0
     Generated using ATOMPAW code
     Shape of augmentation charge: BESSEL
     Using radial grid of 1101 points,  8 beta functions with: 
                l(1) =   0
                l(2) =   0
                l(3) =   1
                l(4) =   1
                l(5) =   2
                l(6) =   2
                l(7) =   3
                l(8) =   3
     Q(r) pseudized with 0 coefficients 


     PseudoPot. # 2 for Hg read from file:
     /home/pragov/projects/rrg-bengioy-ad/pragov/crystal_structure_design/SSSP/Hg_ONCV_PBE-1.0.oncvpsp.upf
     MD5 check sum: dd5a8773074bfcf4280086d4d95875c4
     Pseudo is Norm-conserving, Zval = 20.0
     Generated using ONCVPSP code by D. R. Hamann
     Using radial grid of 1262 points,  8 beta functions with: 
                l(1) =   0
                l(2) =   0
                l(3) =   1
                l(4) =   1
                l(5) =   2
                l(6) =   2
                l(7) =   3
                l(8) =   3

     atomic species   valence    mass     pseudopotential
        La            11.00   138.90547     La( 1.00)
        Hg            20.00   200.59200     Hg( 1.00)

     24 Sym. Ops., with inversion, found (12 have fractional translation)


                                    s                        frac. trans.

      isym =  1     identity                                     

 cryst.   s( 1) = (     1          0          0      )
                  (     0          1          0      )
                  (     0          0          1      )

 cart.    s( 1) = (  1.0000000 -0.0000000  0.0000000 )
                  (  0.0000000  1.0000000  0.0000000 )
                  (  0.0000000  0.0000000  1.0000000 )


      isym =  2     180 deg rotation - cart. axis [0,0,1]        

 cryst.   s( 2) = (    -1          0          0      )    f =(  0.0000000 )
                  (     0         -1          0      )       (  0.0000000 )
                  (     0          0          1      )       ( -0.5000000 )

 cart.    s( 2) = ( -1.0000000  0.0000000  0.0000000 )    f =( -0.0000000 )
                  (  0.0000000 -1.0000000  0.0000000 )       (  0.0000000 )
                  (  0.0000000  0.0000000  1.0000000 )       ( -0.3742002 )


      isym =  3     180 deg rotation - cart. axis [0,1,0]        

 cryst.   s( 3) = (    -1          0          0      )    f =(  0.0000010 )
                  (     1          1          0      )       (  0.0000000 )
                  (     0          0         -1      )       (  0.5000000 )

 cart.    s( 3) = ( -1.0000000  0.0000001  0.0000000 )    f =(  0.0000010 )
                  (  0.0000000  1.0000000  0.0000000 )       (  0.0000000 )
                  (  0.0000000  0.0000000 -1.0000000 )       (  0.3742002 )


      isym =  4     180 deg rotation - cart. axis [1,0,0]        

 cryst.   s( 4) = (     1          0          0      )
                  (    -1         -1          0      )
                  (     0          0         -1      )

 cart.    s( 4) = (  1.0000000 -0.0000001  0.0000000 )
                  (  0.0000000 -1.0000000  0.0000000 )
                  (  0.0000000  0.0000000 -1.0000000 )


      isym =  5      60 deg rotation - cryst. axis [0,0,1]       

 cryst.   s( 5) = (     1          1          0      )    f =(  0.0000010 )
                  (    -1          0          0      )       (  0.0000000 )
                  (     0          0          1      )       ( -0.5000000 )

 cart.    s( 5) = (  0.5000001 -0.8660254  0.0000000 )    f =(  0.0000010 )
                  (  0.8660254  0.4999999  0.0000000 )       (  0.0000000 )
                  (  0.0000000  0.0000000  1.0000000 )       ( -0.3742002 )


      isym =  6      60 deg rotation - cryst. axis [0,0,-1]      

 cryst.   s( 6) = (     0         -1          0      )    f =(  0.0000000 )
                  (     1          1          0      )       ( -0.0000010 )
                  (     0          0          1      )       ( -0.5000000 )

 cart.    s( 6) = (  0.4999999  0.8660254  0.0000000 )    f =(  0.0000005 )
                  ( -0.8660254  0.5000001  0.0000000 )       ( -0.0000009 )
                  (  0.0000000  0.0000000  1.0000000 )       ( -0.3742002 )


      isym =  7     120 deg rotation - cryst. axis [0,0,1]       

 cryst.   s( 7) = (     0          1          0      )
                  (    -1         -1          0      )
                  (     0          0          1      )

 cart.    s( 7) = ( -0.4999999 -0.8660254  0.0000000 )
                  (  0.8660254 -0.5000001  0.0000000 )
                  (  0.0000000  0.0000000  1.0000000 )


      isym =  8     120 deg rotation - cryst. axis [0,0,-1]      

 cryst.   s( 8) = (    -1         -1          0      )
                  (     1          0          0      )
                  (     0          0          1      )

 cart.    s( 8) = ( -0.5000001  0.8660254  0.0000000 )
                  ( -0.8660254 -0.4999999  0.0000000 )
                  (  0.0000000  0.0000000  1.0000000 )


      isym =  9     180 deg rotation - cryst. axis [1,-1,0]      

 cryst.   s( 9) = (     0         -1          0      )    f =(  0.0000000 )
                  (    -1          0          0      )       (  0.0000000 )
                  (     0          0         -1      )       (  0.5000000 )

 cart.    s( 9) = (  0.4999999 -0.8660254  0.0000000 )    f =(  0.0000000 )
                  ( -0.8660254 -0.4999999  0.0000000 )       (  0.0000000 )
                  (  0.0000000  0.0000000 -1.0000000 )       (  0.3742002 )


      isym = 10     180 deg rotation - cryst. axis [2,1,0]       

 cryst.   s(10) = (     1          1          0      )    f =(  0.0000000 )
                  (     0         -1          0      )       ( -0.0000010 )
                  (     0          0         -1      )       (  0.5000000 )

 cart.    s(10) = (  0.5000001  0.8660253  0.0000000 )    f =(  0.0000005 )
                  (  0.8660254 -0.5000001  0.0000000 )       ( -0.0000009 )
                  (  0.0000000  0.0000000 -1.0000000 )       (  0.3742002 )


      isym = 11     180 deg rotation - cryst. axis [0,1,0]       

 cryst.   s(11) = (    -1         -1          0      )
                  (     0          1          0      )
                  (     0          0         -1      )

 cart.    s(11) = ( -0.5000001 -0.8660253  0.0000000 )
                  ( -0.8660254  0.5000001  0.0000000 )
                  (  0.0000000  0.0000000 -1.0000000 )


      isym = 12     180 deg rotation - cryst. axis [1,1,0]       

 cryst.   s(12) = (     0          1          0      )
                  (     1          0          0      )
                  (     0          0         -1      )

 cart.    s(12) = ( -0.4999999  0.8660254  0.0000000 )
                  (  0.8660254  0.4999999  0.0000000 )
                  (  0.0000000  0.0000000 -1.0000000 )


      isym = 13     inversion                                    

 cryst.   s(13) = (    -1          0          0      )
                  (     0         -1          0      )
                  (     0          0         -1      )

 cart.    s(13) = ( -1.0000000  0.0000000  0.0000000 )
                  (  0.0000000 -1.0000000  0.0000000 )
                  (  0.0000000  0.0000000 -1.0000000 )


      isym = 14     inv. 180 deg rotation - cart. axis [0,0,1]   

 cryst.   s(14) = (     1          0          0      )    f =(  0.0000000 )
                  (     0          1          0      )       (  0.0000000 )
                  (     0          0         -1      )       (  0.5000000 )

 cart.    s(14) = (  1.0000000 -0.0000000  0.0000000 )    f =(  0.0000000 )
                  (  0.0000000  1.0000000  0.0000000 )       (  0.0000000 )
                  (  0.0000000  0.0000000 -1.0000000 )       (  0.3742002 )


      isym = 15     inv. 180 deg rotation - cart. axis [0,1,0]   

 cryst.   s(15) = (     1          0          0      )    f =(  0.0000010 )
                  (    -1         -1          0      )       (  0.0000000 )
                  (     0          0          1      )       ( -0.5000000 )

 cart.    s(15) = (  1.0000000 -0.0000001  0.0000000 )    f =(  0.0000010 )
                  (  0.0000000 -1.0000000  0.0000000 )       (  0.0000000 )
                  (  0.0000000  0.0000000  1.0000000 )       ( -0.3742002 )


      isym = 16     inv. 180 deg rotation - cart. axis [1,0,0]   

 cryst.   s(16) = (    -1          0          0      )
                  (     1          1          0      )
                  (     0          0          1      )

 cart.    s(16) = ( -1.0000000  0.0000001  0.0000000 )
                  (  0.0000000  1.0000000  0.0000000 )
                  (  0.0000000  0.0000000  1.0000000 )


      isym = 17     inv.  60 deg rotation - cryst. axis [0,0,1]  

 cryst.   s(17) = (    -1         -1          0      )    f =(  0.0000010 )
                  (     1          0          0      )       (  0.0000000 )
                  (     0          0         -1      )       (  0.5000000 )

 cart.    s(17) = ( -0.5000001  0.8660254  0.0000000 )    f =(  0.0000010 )
                  ( -0.8660254 -0.4999999  0.0000000 )       (  0.0000000 )
                  (  0.0000000  0.0000000 -1.0000000 )       (  0.3742002 )


      isym = 18     inv.  60 deg rotation - cryst. axis [0,0,-1] 

 cryst.   s(18) = (     0          1          0      )    f =(  0.0000000 )
                  (    -1         -1          0      )       ( -0.0000010 )
                  (     0          0         -1      )       (  0.5000000 )

 cart.    s(18) = ( -0.4999999 -0.8660254  0.0000000 )    f =(  0.0000005 )
                  (  0.8660254 -0.5000001  0.0000000 )       ( -0.0000009 )
                  (  0.0000000  0.0000000 -1.0000000 )       (  0.3742002 )


      isym = 19     inv. 120 deg rotation - cryst. axis [0,0,1]  

 cryst.   s(19) = (     0         -1          0      )
                  (     1          1          0      )
                  (     0          0         -1      )

 cart.    s(19) = (  0.4999999  0.8660254  0.0000000 )
                  ( -0.8660254  0.5000001  0.0000000 )
                  (  0.0000000  0.0000000 -1.0000000 )


      isym = 20     inv. 120 deg rotation - cryst. axis [0,0,-1] 

 cryst.   s(20) = (     1          1          0      )
                  (    -1          0          0      )
                  (     0          0         -1      )

 cart.    s(20) = (  0.5000001 -0.8660254  0.0000000 )
                  (  0.8660254  0.4999999  0.0000000 )
                  (  0.0000000  0.0000000 -1.0000000 )


      isym = 21     inv. 180 deg rotation - cryst. axis [1,-1,0] 

 cryst.   s(21) = (     0          1          0      )    f =(  0.0000000 )
                  (     1          0          0      )       (  0.0000000 )
                  (     0          0          1      )       ( -0.5000000 )

 cart.    s(21) = ( -0.4999999  0.8660254  0.0000000 )    f =( -0.0000000 )
                  (  0.8660254  0.4999999  0.0000000 )       (  0.0000000 )
                  (  0.0000000  0.0000000  1.0000000 )       ( -0.3742002 )


      isym = 22     inv. 180 deg rotation - cryst. axis [2,1,0]  

 cryst.   s(22) = (    -1         -1          0      )    f =(  0.0000000 )
                  (     0          1          0      )       ( -0.0000010 )
                  (     0          0          1      )       ( -0.5000000 )

 cart.    s(22) = ( -0.5000001 -0.8660253  0.0000000 )    f =(  0.0000005 )
                  ( -0.8660254  0.5000001  0.0000000 )       ( -0.0000009 )
                  (  0.0000000  0.0000000  1.0000000 )       ( -0.3742002 )


      isym = 23     inv. 180 deg rotation - cryst. axis [0,1,0]  

 cryst.   s(23) = (     1          1          0      )
                  (     0         -1          0      )
                  (     0          0          1      )

 cart.    s(23) = (  0.5000001  0.8660253  0.0000000 )
                  (  0.8660254 -0.5000001  0.0000000 )
                  (  0.0000000  0.0000000  1.0000000 )


      isym = 24     inv. 180 deg rotation - cryst. axis [1,1,0]  

 cryst.   s(24) = (     0         -1          0      )
                  (    -1          0          0      )
                  (     0          0          1      )

 cart.    s(24) = (  0.4999999 -0.8660254  0.0000000 )
                  ( -0.8660254 -0.4999999  0.0000000 )
                  (  0.0000000  0.0000000  1.0000000 )


   Cartesian axes

     site n.     atom                  positions (alat units)
         1           La  tau(   1) = (  -0.0000005   0.5773506   0.1871001  )
         2           La  tau(   2) = (   0.5000005   0.2886749   0.5613003  )
         3           Hg  tau(   3) = (   0.7566895   0.1404754   0.1871001  )
         4           Hg  tau(   4) = (   0.5000005   0.5850738   0.1871001  )
         5           Hg  tau(   5) = (   0.2433115   0.1404754   0.1871001  )
         6           Hg  tau(   6) = (  -0.2566895   0.7255500   0.5613003  )
         7           Hg  tau(   7) = (  -0.0000005   0.2809516   0.5613003  )
         8           Hg  tau(   8) = (   0.2566885   0.7255500   0.5613003  )

   Crystallographic axes

     site n.     atom                  positions (cryst. coord.)
         1           La  tau(   1) = (  0.3333330  0.6666670  0.2500000  )
         2           La  tau(   2) = (  0.6666670  0.3333330  0.7500000  )
         3           Hg  tau(   3) = (  0.8377930  0.1622070  0.2500000  )
         4           Hg  tau(   4) = (  0.8377930  0.6755850  0.2500000  )
         5           Hg  tau(   5) = (  0.3244150  0.1622070  0.2500000  )
         6           Hg  tau(   6) = (  0.1622070  0.8377930  0.7500000  )
         7           Hg  tau(   7) = (  0.1622070  0.3244150  0.7500000  )
         8           Hg  tau(   8) = (  0.6755850  0.8377930  0.7500000  )

     number of k points=     6
                       cart. coord. in units 2pi/alat
        k(    1) = (   0.0000000   0.0000000   0.0000000), wk =   0.0740741
        k(    2) = (   0.0000000   0.0000000   0.4453943), wk =   0.1481481
        k(    3) = (   0.0000000   0.3849002   0.0000000), wk =   0.4444444
        k(    4) = (   0.0000000   0.3849002   0.4453943), wk =   0.8888889
        k(    5) = (   0.3333333   0.5773502   0.0000000), wk =   0.1481481
        k(    6) = (   0.3333333   0.5773502   0.4453943), wk =   0.2962963

                       cryst. coord.
        k(    1) = (   0.0000000   0.0000000   0.0000000), wk =   0.0740741
        k(    2) = (   0.0000000   0.0000000   0.3333333), wk =   0.1481481
        k(    3) = (   0.0000000   0.3333333   0.0000000), wk =   0.4444444
        k(    4) = (   0.0000000   0.3333333   0.3333333), wk =   0.8888889
        k(    5) = (   0.3333333   0.3333333   0.0000000), wk =   0.1481481
        k(    6) = (   0.3333333   0.3333333   0.3333333), wk =   0.2962963

     Dense  grid:    90703 G-vectors     FFT dimensions: (  72,  72,  50)

     Smooth grid:    31991 G-vectors     FFT dimensions: (  45,  45,  36)

     Dynamical RAM for                 wfc:       1.37 MB

     Dynamical RAM for     wfc (w. buffer):       5.50 MB

     Dynamical RAM for           str. fact:       0.69 MB

     Dynamical RAM for           local pot:       0.00 MB

     Dynamical RAM for          nlocal pot:       3.91 MB

     Dynamical RAM for                qrad:       5.97 MB

     Dynamical RAM for          rho,v,vnew:       2.58 MB

     Dynamical RAM for               rhoin:       0.86 MB

     Dynamical RAM for            rho*nmix:       5.54 MB

     Dynamical RAM for           G-vectors:       1.36 MB

     Dynamical RAM for          h,s,v(r/c):       0.37 MB

     Dynamical RAM for          <psi|beta>:       0.35 MB

     Dynamical RAM for                 psi:       2.75 MB

     Dynamical RAM for                hpsi:       2.75 MB

     Dynamical RAM for                spsi:       2.75 MB

     Dynamical RAM for      wfcinit/wfcrot:       4.14 MB

     Dynamical RAM for           addusdens:      96.54 MB

     Estimated static dynamical RAM per process >      24.48 MB

     Estimated max dynamical RAM per process >     126.55 MB

     Estimated total dynamical RAM >     990.28 MB

     Initial potential from superposition of free atoms

     starting charge     141.9825, renormalised to     142.0000
     Starting wfcs are  124 randomized atomic wfcs
     Checking if some PAW data can be deallocated... 
       PAW data deallocated on    6 nodes for type:  1

     total cpu time spent up to now is        2.4 secs

     Self-consistent Calculation

     iteration #  1     ecut=    30.00 Ry     beta= 0.70
     Davidson diagonalization with overlap

---- Real-time Memory Report at c_bands before calling an iterative solver
           261 MiB given to the printing process from OS
             0 MiB allocation reported by mallinfo(arena+hblkhd)
        172724 MiB available memory on the node where the printing process lives
------------------
     ethr =  1.00E-02,  avg # of iterations =  3.8

     Threshold (ethr) on eigenvalues was too large:
     Diagonalizing with lowered threshold

     Davidson diagonalization with overlap

---- Real-time Memory Report at c_bands before calling an iterative solver
           322 MiB given to the printing process from OS
             0 MiB allocation reported by mallinfo(arena+hblkhd)
        172499 MiB available memory on the node where the printing process lives
------------------
     ethr =  9.79E-04,  avg # of iterations =  5.2

     total cpu time spent up to now is        4.2 secs

     total energy              =   -2775.48210159 Ry
     estimated scf accuracy    <       1.16921187 Ry

     iteration #  2     ecut=    30.00 Ry     beta= 0.70
     Davidson diagonalization with overlap

---- Real-time Memory Report at c_bands before calling an iterative solver
           340 MiB given to the printing process from OS
             0 MiB allocation reported by mallinfo(arena+hblkhd)
        172455 MiB available memory on the node where the printing process lives
------------------
     ethr =  8.23E-04,  avg # of iterations =  9.0

     total cpu time spent up to now is        5.8 secs

     total energy              =   -2775.84340681 Ry
     estimated scf accuracy    <       3.03975427 Ry

     iteration #  3     ecut=    30.00 Ry     beta= 0.70
     Davidson diagonalization with overlap

---- Real-time Memory Report at c_bands before calling an iterative solver
           357 MiB given to the printing process from OS
             0 MiB allocation reported by mallinfo(arena+hblkhd)
        172355 MiB available memory on the node where the printing process lives
------------------
     ethr =  8.23E-04,  avg # of iterations =  8.5

     total cpu time spent up to now is        7.2 secs

     total energy              =   -2776.25807950 Ry
     estimated scf accuracy    <       0.14007215 Ry

     iteration #  4     ecut=    30.00 Ry     beta= 0.70
     Davidson diagonalization with overlap

---- Real-time Memory Report at c_bands before calling an iterative solver
           360 MiB given to the printing process from OS
             0 MiB allocation reported by mallinfo(arena+hblkhd)
        172324 MiB available memory on the node where the printing process lives
------------------
     ethr =  9.86E-05,  avg # of iterations = 12.5

     total cpu time spent up to now is        9.2 secs

     total energy              =   -2776.26130312 Ry
     estimated scf accuracy    <       0.02317880 Ry

     iteration #  5     ecut=    30.00 Ry     beta= 0.70
     Davidson diagonalization with overlap

---- Real-time Memory Report at c_bands before calling an iterative solver
           365 MiB given to the printing process from OS
             0 MiB allocation reported by mallinfo(arena+hblkhd)
        172293 MiB available memory on the node where the printing process lives
------------------
     ethr =  1.63E-05,  avg # of iterations = 12.2

     total cpu time spent up to now is       10.7 secs

     total energy              =   -2776.26864602 Ry
     estimated scf accuracy    <       0.01024638 Ry

     iteration #  6     ecut=    30.00 Ry     beta= 0.70
     Davidson diagonalization with overlap

---- Real-time Memory Report at c_bands before calling an iterative solver
           366 MiB given to the printing process from OS
             0 MiB allocation reported by mallinfo(arena+hblkhd)
        172282 MiB available memory on the node where the printing process lives
------------------
     ethr =  7.22E-06,  avg # of iterations =  6.8

     total cpu time spent up to now is       12.3 secs

     total energy              =   -2776.27066725 Ry
     estimated scf accuracy    <       0.00017301 Ry

     iteration #  7     ecut=    30.00 Ry     beta= 0.70
     Davidson diagonalization with overlap

---- Real-time Memory Report at c_bands before calling an iterative solver
           372 MiB given to the printing process from OS
             0 MiB allocation reported by mallinfo(arena+hblkhd)
        172268 MiB available memory on the node where the printing process lives
------------------
     ethr =  1.22E-07,  avg # of iterations =  6.0

     total cpu time spent up to now is       13.5 secs

     total energy              =   -2776.27071299 Ry
     estimated scf accuracy    <       0.00008413 Ry

     iteration #  8     ecut=    30.00 Ry     beta= 0.70
     Davidson diagonalization with overlap

---- Real-time Memory Report at c_bands before calling an iterative solver
           372 MiB given to the printing process from OS
             0 MiB allocation reported by mallinfo(arena+hblkhd)
        172265 MiB available memory on the node where the printing process lives
------------------
     ethr =  5.92E-08,  avg # of iterations =  3.7

     total cpu time spent up to now is       14.5 secs

     total energy              =   -2776.27072442 Ry
     estimated scf accuracy    <       0.00000460 Ry

     iteration #  9     ecut=    30.00 Ry     beta= 0.70
     Davidson diagonalization with overlap

---- Real-time Memory Report at c_bands before calling an iterative solver
           372 MiB given to the printing process from OS
             0 MiB allocation reported by mallinfo(arena+hblkhd)
        172265 MiB available memory on the node where the printing process lives
------------------
     ethr =  3.24E-09,  avg # of iterations =  6.2

     total cpu time spent up to now is       15.7 secs

     End of self-consistent calculation

          k = 0.0000 0.0000 0.0000 (  4025 PWs)   bands (ev):

  -102.4075-102.4074-102.4073-102.4071-102.4070-102.4069 -50.2840 -50.2839
   -50.2765 -50.2644 -50.2643 -50.2628 -50.2627 -50.2596 -50.2563 -50.2529
   -50.2475 -50.2454 -50.2453 -50.2362 -50.2361 -50.2298 -50.2287 -50.2286
   -19.2533 -19.2432  -3.0391  -3.0083  -3.0083  -2.9756  -2.9301  -2.9301
     5.8175   6.2077   6.2077   6.2317   6.2421   6.3562   6.4109   6.4109
     6.4895   6.4897   6.5180   6.5826   6.7606   6.7606   6.9902   6.9903
     7.0688   7.1233   7.1233   7.1522   7.1523   7.2031   7.2032   7.2515
     7.3836   7.3836   7.4813   7.5496   7.5496   7.6940   7.7753   9.9892
     9.9894  10.4530  11.4851  11.4854  11.8910  13.5595  14.6499  14.6501
    15.0243  15.1283  15.1284  15.1397  15.1398  15.2738  15.4521  15.4521
    15.5534  15.5734  15.5735  15.5832  15.6111  15.7261  15.7337  15.8362
    15.8363  16.7485

     occupation numbers 
     1.0000   1.0000   1.0000   1.0000   1.0000   1.0000   1.0000   1.0000
     1.0000   1.0000   1.0000   1.0000   1.0000   1.0000   1.0000   1.0000
     1.0000   1.0000   1.0000   1.0000   1.0000   1.0000   1.0000   1.0000
     1.0000   1.0000   1.0000   1.0000   1.0000   1.0000   1.0000   1.0000
     1.0000   1.0000   1.0000   1.0000   1.0000   1.0000   1.0000   1.0000
     1.0000   1.0000   1.0000   1.0000   1.0000   1.0000   1.0000   1.0000
     1.0000   1.0000   1.0000   1.0000   1.0000   1.0000   1.0000   1.0000
     1.0000   1.0000   1.0000   1.0000   1.0000   1.0000   1.0000   1.0000
     1.0000   1.0000   1.0000   1.0000   1.0000   1.0000   1.0000   0.0000
     0.0000   0.0000   0.0000   0.0000   0.0000   0.0000   0.0000   0.0000
     0.0000   0.0000   0.0000   0.0000   0.0000   0.0000   0.0000   0.0000
     0.0000   0.0000

          k = 0.0000 0.0000 0.4454 (  4019 PWs)   bands (ev):

  -102.4076-102.4073-102.4072-102.4072-102.4071-102.4070 -50.2852 -50.2772
   -50.2771 -50.2712 -50.2712 -50.2707 -50.2558 -50.2552 -50.2551 -50.2504
   -50.2489 -50.2488 -50.2393 -50.2372 -50.2347 -50.2346 -50.2333 -50.2332
   -19.2499 -19.2448  -3.0587  -3.0291  -2.9823  -2.9822  -2.9426  -2.9426
     6.1573   6.1573   6.1880   6.3045   6.3749   6.3819   6.3819   6.5242
     6.5242   6.5532   6.6161   6.6162   6.7090   6.7664   6.7696   6.9778
     6.9778   6.9994   6.9995   7.2002   7.2003   7.2642   7.2868   7.2869
     7.4166   7.4323   7.4324   7.6018   7.6687   7.7121   7.7121   9.1886
    10.4065  10.4066  11.2521  11.2522  12.9565  13.0707  13.7709  13.7710
    13.8366  13.8367  15.3975  15.5184  15.5184  15.5201  15.5213  15.5386
    15.5429  15.5429  15.6037  15.6037  15.6954  15.7141  15.7345  15.7348
    16.6615  16.6860

     occupation numbers 
     1.0000   1.0000   1.0000   1.0000   1.0000   1.0000   1.0000   1.0000
     1.0000   1.0000   1.0000   1.0000   1.0000   1.0000   1.0000   1.0000
     1.0000   1.0000   1.0000   1.0000   1.0000   1.0000   1.0000   1.0000
     1.0000   1.0000   1.0000   1.0000   1.0000   1.0000   1.0000   1.0000
     1.0000   1.0000   1.0000   1.0000   1.0000   1.0000   1.0000   1.0000
     1.0000   1.0000   1.0000   1.0000   1.0000   1.0000   1.0000   1.0000
     1.0000   1.0000   1.0000   1.0000   1.0000   1.0000   1.0000   1.0000
     1.0000   1.0000   1.0000   1.0000   1.0000   1.0000   1.0000   1.0000
     1.0000   1.0000   1.0000   1.0000   1.0000   1.0000   1.0000   0.0000
     0.0000   0.0000   0.0000   0.0000   0.0000   0.0000   0.0000   0.0000
     0.0000   0.0000   0.0000   0.0000   0.0000   0.0000   0.0000   0.0000
     0.0000   0.0000

          k = 0.0000 0.3849 0.0000 (  4020 PWs)   bands (ev):

  -102.4076-102.4074-102.4072-102.4071-102.4070-102.4069 -50.2852 -50.2840
   -50.2829 -50.2729 -50.2693 -50.2627 -50.2605 -50.2570 -50.2546 -50.2507
   -50.2506 -50.2465 -50.2401 -50.2377 -50.2368 -50.2319 -50.2292 -50.2264
   -19.2509 -19.2451  -3.0262  -3.0253  -3.0174  -2.9896  -2.9558  -2.9247
     6.2439   6.2764   6.3371   6.3677   6.3934   6.4040   6.4263   6.4880
     6.5251   6.5401   6.6234   6.7430   6.7554   6.7978   6.9002   7.0412
     7.0620   7.1425   7.1456   7.1801   7.1948   7.2023   7.2078   7.2496
     7.3063   7.3227   7.3274   7.3441   7.4728   7.6289   7.7678   8.4423
     9.7510   9.8821  11.9505  11.9604  12.9777  13.7537  14.0365  14.1466
    14.1669  14.7461  14.9674  15.2294  15.4547  15.4750  15.4986  15.5416
    15.5527  15.5828  15.5912  15.5951  15.6294  15.6929  15.7243  15.8165
    16.0568  16.1896

     occupation numbers 
     1.0000   1.0000   1.0000   1.0000   1.0000   1.0000   1.0000   1.0000
     1.0000   1.0000   1.0000   1.0000   1.0000   1.0000   1.0000   1.0000
     1.0000   1.0000   1.0000   1.0000   1.0000   1.0000   1.0000   1.0000
     1.0000   1.0000   1.0000   1.0000   1.0000   1.0000   1.0000   1.0000
     1.0000   1.0000   1.0000   1.0000   1.0000   1.0000   1.0000   1.0000
     1.0000   1.0000   1.0000   1.0000   1.0000   1.0000   1.0000   1.0000
     1.0000   1.0000   1.0000   1.0000   1.0000   1.0000   1.0000   1.0000
     1.0000   1.0000   1.0000   1.0000   1.0000   1.0000   1.0000   1.0000
     1.0000   1.0000   1.0000   1.0000   1.0000   1.0000   1.0000   0.0000
     0.0000   0.0000   0.0000   0.0000   0.0000   0.0000   0.0000   0.0000
     0.0000   0.0000   0.0000   0.0000   0.0000   0.0000   0.0000   0.0000
     0.0000   0.0000

          k = 0.0000 0.3849 0.4454 (  4009 PWs)   bands (ev):

  -102.4075-102.4073-102.4072-102.4071-102.4071-102.4070 -50.2786 -50.2770
   -50.2762 -50.2717 -50.2703 -50.2682 -50.2552 -50.2544 -50.2536 -50.2511
   -50.2506 -50.2481 -50.2378 -50.2357 -50.2347 -50.2330 -50.2317 -50.2316
   -19.2485 -19.2456  -3.0715  -3.0527  -2.9934  -2.9748  -2.9463  -2.9430
     6.2446   6.2853   6.3141   6.3783   6.4817   6.4875   6.5259   6.5587
     6.5915   6.6649   6.6843   6.6947   6.7715   6.8406   6.8974   6.9923
     7.0311   7.0690   7.0755   7.0905   7.1801   7.1880   7.2574   7.3228
     7.3414   7.3923   7.4220   7.4650   7.5075   7.6078   7.7282   9.1027
     9.4570  10.2416  10.3643  11.2925  12.3843  13.4961  13.6831  14.3633
    14.5283  14.7547  15.1879  15.4347  15.4707  15.5076  15.5134  15.5509
    15.5579  15.5679  15.5902  15.6139  15.6302  15.6808  15.7319  15.8188
    16.1344  16.4749

     occupation numbers 
     1.0000   1.0000   1.0000   1.0000   1.0000   1.0000   1.0000   1.0000
     1.0000   1.0000   1.0000   1.0000   1.0000   1.0000   1.0000   1.0000
     1.0000   1.0000   1.0000   1.0000   1.0000   1.0000   1.0000   1.0000
     1.0000   1.0000   1.0000   1.0000   1.0000   1.0000   1.0000   1.0000
     1.0000   1.0000   1.0000   1.0000   1.0000   1.0000   1.0000   1.0000
     1.0000   1.0000   1.0000   1.0000   1.0000   1.0000   1.0000   1.0000
     1.0000   1.0000   1.0000   1.0000   1.0000   1.0000   1.0000   1.0000
     1.0000   1.0000   1.0000   1.0000   1.0000   1.0000   1.0000   1.0000
     1.0000   1.0000   1.0000   1.0000   1.0000   1.0000   1.0000   0.0000
     0.0000   0.0000   0.0000   0.0000   0.0000   0.0000   0.0000   0.0000
     0.0000   0.0000   0.0000   0.0000   0.0000   0.0000   0.0000   0.0000
     0.0000   0.0000

          k = 0.3333 0.5774 0.0000 (  3978 PWs)   bands (ev):

  -102.4075-102.4073-102.4072-102.4070-102.4070-102.4069 -50.2831 -50.2807
   -50.2806 -50.2640 -50.2639 -50.2574 -50.2571 -50.2571 -50.2556 -50.2466
   -50.2465 -50.2425 -50.2299 -50.2298 -50.2287 -50.2281 -50.2274 -50.2273
   -19.2479 -19.2478  -3.0484  -3.0082  -3.0082  -2.9860  -2.9859  -2.9258
     6.3119   6.4118   6.4118   6.4242   6.4997   6.5525   6.5616   6.5616
     6.6109   6.6110   6.6517   6.8134   6.8134   6.8380   6.8381   7.0306
     7.0589   7.0589   7.0940   7.2126   7.2127   7.2390   7.2391   7.2582
     7.2912   7.2912   7.3643   7.4596   7.4596   7.5703   7.7703   8.2743
     8.2744  11.0648  11.0649  12.6596  12.7569  13.4164  14.1736  14.1736
    14.4019  14.4021  15.3085  15.3085  15.3760  15.4434  15.4828  15.5257
    15.5258  15.5988  15.6054  15.6055  15.6633  15.6634  15.6879  15.6879
    16.1230  16.5451

     occupation numbers 
     1.0000   1.0000   1.0000   1.0000   1.0000   1.0000   1.0000   1.0000
     1.0000   1.0000   1.0000   1.0000   1.0000   1.0000   1.0000   1.0000
     1.0000   1.0000   1.0000   1.0000   1.0000   1.0000   1.0000   1.0000
     1.0000   1.0000   1.0000   1.0000   1.0000   1.0000   1.0000   1.0000
     1.0000   1.0000   1.0000   1.0000   1.0000   1.0000   1.0000   1.0000
     1.0000   1.0000   1.0000   1.0000   1.0000   1.0000   1.0000   1.0000
     1.0000   1.0000   1.0000   1.0000   1.0000   1.0000   1.0000   1.0000
     1.0000   1.0000   1.0000   1.0000   1.0000   1.0000   1.0000   1.0000
     1.0000   1.0000   1.0000   1.0000   1.0000   1.0000   1.0000   0.0000
     0.0000   0.0000   0.0000   0.0000   0.0000   0.0000   0.0000   0.0000
     0.0000   0.0000   0.0000   0.0000   0.0000   0.0000   0.0000   0.0000
     0.0000   0.0000

          k = 0.3333 0.5774 0.4454 (  3987 PWs)   bands (ev):

  -102.4074-102.4073-102.4071-102.4071-102.4070-102.4070 -50.2733 -50.2732
   -50.2710 -50.2699 -50.2699 -50.2692 -50.2531 -50.2525 -50.2524 -50.2498
   -50.2464 -50.2463 -50.2362 -50.2362 -50.2305 -50.2293 -50.2293 -50.2287
   -19.2470 -19.2469  -3.0687  -3.0687  -3.0102  -2.9534  -2.9534  -2.9493
     6.3450   6.3450   6.4209   6.4686   6.4755   6.4755   6.5974   6.5974
     6.6418   6.6945   6.7576   6.7877   6.7877   6.9372   6.9372   6.9944
     7.0633   7.0633   7.0994   7.1234   7.1234   7.1908   7.1908   7.2714
     7.2983   7.3440   7.3531   7.3531   7.5928   7.5928   8.0050   9.0354
     9.0356   9.6723  10.6023  10.6024  13.3866  13.3867  13.5666  14.4171
    14.7203  14.7204  15.3972  15.4287  15.4392  15.4393  15.5133  15.5133
    15.5896  15.5897  15.5897  15.6089  15.6274  15.6274  15.8780  15.8781
    15.9951  16.2176

     occupation numbers 
     1.0000   1.0000   1.0000   1.0000   1.0000   1.0000   1.0000   1.0000
     1.0000   1.0000   1.0000   1.0000   1.0000   1.0000   1.0000   1.0000
     1.0000   1.0000   1.0000   1.0000   1.0000   1.0000   1.0000   1.0000
     1.0000   1.0000   1.0000   1.0000   1.0000   1.0000   1.0000   1.0000
     1.0000   1.0000   1.0000   1.0000   1.0000   1.0000   1.0000   1.0000
     1.0000   1.0000   1.0000   1.0000   1.0000   1.0000   1.0000   1.0000
     1.0000   1.0000   1.0000   1.0000   1.0000   1.0000   1.0000   1.0000
     1.0000   1.0000   1.0000   1.0000   1.0000   1.0000   1.0000   1.0000
     1.0000   1.0000   1.0000   1.0000   1.0000   1.0000   1.0000   0.0000
     0.0000   0.0000   0.0000   0.0000   0.0000   0.0000   0.0000   0.0000
     0.0000   0.0000   0.0000   0.0000   0.0000   0.0000   0.0000   0.0000
     0.0000   0.0000

     highest occupied, lowest unoccupied level (ev):    14.6499   13.7710

!    total energy              =   -2776.27072601 Ry
     estimated scf accuracy    <       0.00000085 Ry

     The total energy is the sum of the following terms:
     one-electron contribution =   -1032.02254495 Ry
     hartree contribution      =     544.81801611 Ry
     xc contribution           =    -181.91347576 Ry
     ewald contribution        =   -1310.98785803 Ry
     one-center paw contrib.   =    -796.16486338 Ry
      -> PAW hartree energy AE =      34.78268410 Ry
      -> PAW hartree energy PS =     -34.81992811 Ry
      -> PAW xc energy AE      =    -405.32719822 Ry
      -> PAW xc energy PS      =       7.28201054 Ry
      -> total E_H with PAW    =     544.78077210 Ry
      -> total E_XC with PAW   =    -579.95866344 Ry

     convergence has been achieved in   9 iterations

     Writing all to output data dir calculations_bands/myprefix.save/
 
     init_run     :      7.20s CPU      2.12s WALL (       1 calls)
     electrons    :     50.01s CPU     13.57s WALL (       1 calls)

     Called by init_run:
     wfcinit      :      0.98s CPU      0.27s WALL (       1 calls)
     wfcinit:atom :      0.01s CPU      0.00s WALL (       3 calls)
     wfcinit:wfcr :      0.90s CPU      0.24s WALL (       3 calls)
     potinit      :      2.32s CPU      0.61s WALL (       1 calls)
     hinit0       :      2.84s CPU      0.94s WALL (       1 calls)

     Called by electrons:
     c_bands      :     30.17s CPU      8.01s WALL (      10 calls)
     sum_band     :      5.59s CPU      1.67s WALL (      10 calls)
     v_of_rho     :      0.75s CPU      0.20s WALL (      10 calls)
     v_h          :      0.05s CPU      0.01s WALL (      10 calls)
     v_xc         :      0.70s CPU      0.19s WALL (      10 calls)
     newd         :      2.33s CPU      0.65s WALL (      10 calls)
     PAW_pot      :     11.80s CPU      3.10s WALL (      10 calls)
     mix_rho      :      0.15s CPU      0.04s WALL (      10 calls)

     Called by c_bands:
     init_us_2    :      0.13s CPU      0.04s WALL (      63 calls)
     init_us_2:cp :      0.13s CPU      0.04s WALL (      63 calls)
     cegterg      :     25.64s CPU      6.80s WALL (      30 calls)

     Called by sum_band:
     sum_band:wei :      0.01s CPU      0.00s WALL (      10 calls)
     sum_band:loo :      2.39s CPU      0.64s WALL (      10 calls)
     sum_band:buf :      0.03s CPU      0.01s WALL (      30 calls)
     sum_band:ini :      0.06s CPU      0.01s WALL (      30 calls)
     sum_band:cal :      0.19s CPU      0.05s WALL (      30 calls)
     sum_band:bec :      0.01s CPU      0.00s WALL (      30 calls)
     addusdens    :      2.43s CPU      0.83s WALL (      10 calls)
     addusd:skk   :      0.00s CPU      0.00s WALL (      10 calls)
     addusd:dgemm :      0.48s CPU      0.32s WALL (      10 calls)
     addusd:qvan2 :      1.58s CPU      0.40s WALL (      10 calls)

     Called by *egterg:
     cdiaghg      :      7.63s CPU      2.02s WALL (     249 calls)
     cegterg:over :      1.10s CPU      0.30s WALL (     222 calls)
     cegterg:upda :      0.63s CPU      0.17s WALL (     222 calls)
     cegterg:last :      0.95s CPU      0.25s WALL (      73 calls)
     cdiaghg:chol :      0.47s CPU      0.13s WALL (     249 calls)
     cdiaghg:inve :      0.10s CPU      0.03s WALL (     249 calls)
     cdiaghg:para :      1.33s CPU      0.36s WALL (     498 calls)
     h_psi        :     15.19s CPU      4.03s WALL (     255 calls)
     s_psi        :      0.52s CPU      0.14s WALL (     255 calls)
     g_psi        :      0.03s CPU      0.01s WALL (     222 calls)

     Called by h_psi:
     h_psi:calbec :      0.79s CPU      0.22s WALL (     255 calls)
     vloc_psi     :     13.56s CPU      3.57s WALL (     255 calls)
     add_vuspsi   :      0.78s CPU      0.22s WALL (     255 calls)

     General routines
     calbec       :      0.97s CPU      0.27s WALL (     285 calls)
     fft          :      1.50s CPU      0.55s WALL (     129 calls)
     ffts         :      0.58s CPU      0.15s WALL (      20 calls)
     fftw         :     13.27s CPU      3.50s WALL (   18924 calls)
     interpolate  :      0.61s CPU      0.16s WALL (      10 calls)
 
     Parallel routines

     PAW routines
     PAW_pot      :     11.80s CPU      3.10s WALL (      10 calls)
     PAW_symme    :      0.08s CPU      0.02s WALL (      20 calls)
 
     PWSCF        :     58.22s CPU     16.48s WALL

 
   This run was terminated on:   6:34:51  23Jun2023            

=------------------------------------------------------------------------------=
   JOB DONE.
=------------------------------------------------------------------------------=
