
     Program PWSCF v.7.0 starts on  6Jun2023 at 12:25:29 

     This program is part of the open-source Quantum ESPRESSO suite
     for quantum simulation of materials; please cite
         "P. Giannozzi et al., J. Phys.:Condens. Matter 21 395502 (2009);
         "P. Giannozzi et al., J. Phys.:Condens. Matter 29 465901 (2017);
         "P. Giannozzi et al., J. Chem. Phys. 152 154105 (2020);
          URL http://www.quantum-espresso.org", 
     in publications or presentations arising from this work. More details at
     http://www.quantum-espresso.org/quote

     Parallel version (MPI & OpenMP), running on      32 processor cores
     Number of MPI processes:                 8
     Threads/MPI process:                     4

     MPI processes distributed on     1 nodes
     K-points division:     npool     =       2
     R & G space division:  proc/nbgrp/npool/nimage =       4
     47192 MiB available memory on the printing compute node when the environment starts
 
     Reading input from espresso_16610.pwi
Warning: card &CELL ignored
Warning: card / ignored

     Current dimensions of program PWSCF are:
     Max number of different atomic species (ntypx) = 10
     Max number of k-points (npk) =  40000
     Max angular momentum in pseudopotentials (lmaxx) =  4
     file Cd.pbe-dn-rrkjus_psl.0.3.1.UPF: wavefunction(s)  4D renormalized
     Message from routine setup:
     using ibrav=0 with symmetry is DISCOURAGED, use correct ibrav instead

     Subspace diagonalization in iterative solution of the eigenvalue problem:
     one sub-group per band group will be used
     scalapack distributed-memory algorithm (size of sub-group:  2*  2 procs)

 
     Parallelization info
     --------------------
     sticks:   dense  smooth     PW     G-vecs:    dense   smooth      PW
     Min         466     233     78                 5872     2087     409
     Max         467     235     79                 5873     2088     410
     Sum        1865     937    315                23491     8349    1637
 
     Using Slab Decomposition
 


     bravais-lattice index     =            0
     lattice parameter (alat)  =      13.3758  a.u.
     unit-cell volume          =     375.2364 (a.u.)^3
     number of atoms/cell      =            3
     number of atomic types    =            2
     number of electrons       =        36.00
     number of Kohn-Sham states=           64
     kinetic-energy cutoff     =      30.0000  Ry
     charge density cutoff     =     240.0000  Ry
     scf convergence threshold =      1.0E-06
     mixing beta               =       0.7000
     number of iterations used =            8  plain     mixing
     Exchange-correlation= PBE
                           (   1   4   3   4   0   0   0)

     celldm(1)=  13.375762  celldm(2)=   0.000000  celldm(3)=   0.000000
     celldm(4)=   0.000000  celldm(5)=   0.000000  celldm(6)=   0.000000

     crystal axes: (cart. coord. in units of alat)
               a(1) = (   1.000000   0.000000   0.000000 )  
               a(2) = (   0.836362   0.548178   0.000000 )  
               a(3) = (  -0.918181  -0.274089   0.286041 )  

     reciprocal axes: (cart. coord. in units 2 pi/alat)
               b(1) = (  1.000000 -1.525711  1.748004 )  
               b(2) = (  0.000000  1.824224  1.748004 )  
               b(3) = (  0.000000  0.000000  3.496008 )  


     PseudoPot. # 1 for Ti read from file:
     /home/pragov/projects/rrg-bengioy-ad/pragov/crystal_structure_design/SSSP/ti_pbe_v1.4.uspp.F.UPF
     MD5 check sum: 88a00a6731bd790ddea75d31a80cb452
     Pseudo is Ultrasoft + core correction, Zval = 12.0
     Generated by new atomic code, or converted to UPF format
     Using radial grid of  851 points,  6 beta functions with: 
                l(1) =   0
                l(2) =   0
                l(3) =   1
                l(4) =   1
                l(5) =   2
                l(6) =   2
     Q(r) pseudized with  6 coefficients,  rinner =    1.000   1.000   1.000
                                                       1.000   1.000

     PseudoPot. # 2 for Cd read from file:
     /home/pragov/projects/rrg-bengioy-ad/pragov/crystal_structure_design/SSSP/Cd.pbe-dn-rrkjus_psl.0.3.1.UPF
     MD5 check sum: 558e9f355611b531a870a69ef6ace9e2
     Pseudo is Ultrasoft + core correction, Zval = 12.0
     Generated using "atomic" code by A. Dal Corso  v.5.0.99 svn rev. 10869
     Using radial grid of 1239 points,  6 beta functions with: 
                l(1) =   0
                l(2) =   0
                l(3) =   1
                l(4) =   1
                l(5) =   2
                l(6) =   2
     Q(r) pseudized with 0 coefficients 


     atomic species   valence    mass     pseudopotential
        Ti            12.00    47.86700     Ti( 1.00)
        Cd            12.00   112.41400     Cd( 1.00)

      4 Sym. Ops., with inversion, found


                                    s                        frac. trans.

      isym =  1     identity                                     

 cryst.   s( 1) = (     1          0          0      )
                  (     0          1          0      )
                  (     0          0          1      )

 cart.    s( 1) = (  1.0000000  0.0000000  0.0000000 )
                  (  0.0000000  1.0000000  0.0000000 )
                  (  0.0000000  0.0000000  1.0000000 )


      isym =  2     180 deg rotation - cart. axis [0,0,1]        

 cryst.   s( 2) = (    -1          0          0      )
                  (     0         -1          0      )
                  (     1          1          1      )

 cart.    s( 2) = ( -1.0000000 -0.0000000 -0.0000000 )
                  (  0.0000000 -1.0000000 -0.0000000 )
                  (  0.0000000  0.0000000  1.0000000 )


      isym =  3     inversion                                    

 cryst.   s( 3) = (    -1          0          0      )
                  (     0         -1          0      )
                  (     0          0         -1      )

 cart.    s( 3) = ( -1.0000000 -0.0000000 -0.0000000 )
                  (  0.0000000 -1.0000000 -0.0000000 )
                  (  0.0000000  0.0000000 -1.0000000 )


      isym =  4     inv. 180 deg rotation - cart. axis [0,0,1]   

 cryst.   s( 4) = (     1          0          0      )
                  (     0          1          0      )
                  (    -1         -1         -1      )

 cart.    s( 4) = (  1.0000000  0.0000000  0.0000000 )
                  (  0.0000000  1.0000000  0.0000000 )
                  (  0.0000000  0.0000000 -1.0000000 )


   Cartesian axes

     site n.     atom                  positions (alat units)
         1           Ti  tau(   1) = (   1.2449099   0.3716220   0.0000000  )
         2           Ti  tau(   2) = (   0.5914517   0.1765561   0.0000000  )
         3           Cd  tau(   3) = (   0.0000000   0.0000000   0.0000000  )

   Crystallographic axes

     site n.     atom                  positions (cryst. coord.)
         1           Ti  tau(   1) = (  0.6779220  0.6779220  0.0000000  )
         2           Ti  tau(   2) = (  0.3220780  0.3220780  0.0000000  )
         3           Cd  tau(   3) = (  0.0000000  0.0000000  0.0000000  )

     number of k points=    10
                       cart. coord. in units 2pi/alat
        k(    1) = (   0.0000000   0.0000000   0.0000000), wk =   0.0740741
        k(    2) = (   0.0000000   0.0000000   1.1653359), wk =   0.1481481
        k(    3) = (   0.0000000   0.6080748   0.5826679), wk =   0.2962963
        k(    4) = (   0.0000000   0.6080748   1.7480038), wk =   0.1481481
        k(    5) = (   0.3333333  -0.5085704   0.5826679), wk =   0.2962963
        k(    6) = (   0.3333333  -0.5085704   1.7480038), wk =   0.1481481
        k(    7) = (   0.3333333   0.0995044   1.1653359), wk =   0.2962963
        k(    8) = (   0.3333333   0.0995044   0.0000000), wk =   0.1481481
        k(    9) = (   0.3333333  -1.1166453   0.0000000), wk =   0.1481481
        k(   10) = (   0.3333333  -1.1166453   1.1653359), wk =   0.2962963

                       cryst. coord.
        k(    1) = (   0.0000000   0.0000000   0.0000000), wk =   0.0740741
        k(    2) = (   0.0000000   0.0000000   0.3333333), wk =   0.1481481
        k(    3) = (   0.0000000   0.3333333  -0.0000000), wk =   0.2962963
        k(    4) = (   0.0000000   0.3333333   0.3333333), wk =   0.1481481
        k(    5) = (   0.3333333   0.0000000  -0.0000000), wk =   0.2962963
        k(    6) = (   0.3333333   0.0000000   0.3333333), wk =   0.1481481
        k(    7) = (   0.3333333   0.3333333   0.0000000), wk =   0.2962963
        k(    8) = (   0.3333333   0.3333333  -0.3333333), wk =   0.1481481
        k(    9) = (   0.3333333  -0.3333333   0.0000000), wk =   0.1481481
        k(   10) = (   0.3333333  -0.3333333   0.3333333), wk =   0.2962963

     Dense  grid:    23491 G-vectors     FFT dimensions: (  72,  72,  72)

     Smooth grid:     8349 G-vectors     FFT dimensions: (  48,  48,  48)

     Dynamical RAM for                 wfc:       0.25 MB

     Dynamical RAM for     wfc (w. buffer):       1.52 MB

     Dynamical RAM for           str. fact:       0.18 MB

     Dynamical RAM for           local pot:       0.00 MB

     Dynamical RAM for          nlocal pot:       0.21 MB

     Dynamical RAM for                qrad:       2.49 MB

     Dynamical RAM for          rho,v,vnew:       2.40 MB

     Dynamical RAM for               rhoin:       0.80 MB

     Dynamical RAM for            rho*nmix:       1.43 MB

     Dynamical RAM for           G-vectors:       0.35 MB

     Dynamical RAM for          h,s,v(r/c):       0.19 MB

     Dynamical RAM for          <psi|beta>:       0.05 MB

     Dynamical RAM for                 psi:       0.51 MB

     Dynamical RAM for                hpsi:       0.51 MB

     Dynamical RAM for                spsi:       0.51 MB

     Dynamical RAM for      wfcinit/wfcrot:       0.60 MB

     Dynamical RAM for           addusdens:       8.47 MB

     Estimated static dynamical RAM per process >      11.79 MB

     Estimated max dynamical RAM per process >      21.69 MB

     Estimated total dynamical RAM >     167.81 MB

     Check: negative core charge=   -0.000006

     Initial potential from superposition of free atoms

     starting charge      33.9950, renormalised to      36.0000

     negative rho (up, down):  2.790E-03 0.000E+00
     Starting wfcs are   29 randomized atomic wfcs +   35 random wfcs

     total cpu time spent up to now is        1.8 secs

     Self-consistent Calculation

     iteration #  1     ecut=    30.00 Ry     beta= 0.70
     Davidson diagonalization with overlap

---- Real-time Memory Report at c_bands before calling an iterative solver
           144 MiB given to the printing process from OS
             0 MiB allocation reported by mallinfo(arena+hblkhd)
         46894 MiB available memory on the node where the printing process lives
------------------
     ethr =  1.00E-02,  avg # of iterations =  6.5

     negative rho (up, down):  1.555E-05 0.000E+00

     total cpu time spent up to now is        2.9 secs

     total energy              =    -307.08914791 Ry
     estimated scf accuracy    <      63.03140477 Ry

     iteration #  2     ecut=    30.00 Ry     beta= 0.70
     Davidson diagonalization with overlap

---- Real-time Memory Report at c_bands before calling an iterative solver
           162 MiB given to the printing process from OS
             0 MiB allocation reported by mallinfo(arena+hblkhd)
         46729 MiB available memory on the node where the printing process lives
------------------
     ethr =  1.00E-02,  avg # of iterations =  9.4

     negative rho (up, down):  3.947E-05 0.000E+00

     total cpu time spent up to now is        4.3 secs

     total energy              =    -294.18335275 Ry
     estimated scf accuracy    <     714.27721713 Ry

     iteration #  3     ecut=    30.00 Ry     beta= 0.70
     Davidson diagonalization with overlap

---- Real-time Memory Report at c_bands before calling an iterative solver
           167 MiB given to the printing process from OS
             0 MiB allocation reported by mallinfo(arena+hblkhd)
         46703 MiB available memory on the node where the printing process lives
------------------
     ethr =  1.00E-02,  avg # of iterations =  4.8

     negative rho (up, down):  4.054E-04 0.000E+00

     total cpu time spent up to now is        5.7 secs

     total energy              =    -361.24286266 Ry
     estimated scf accuracy    <      23.79803968 Ry

     iteration #  4     ecut=    30.00 Ry     beta= 0.70
     Davidson diagonalization with overlap

---- Real-time Memory Report at c_bands before calling an iterative solver
           168 MiB given to the printing process from OS
             0 MiB allocation reported by mallinfo(arena+hblkhd)
         46698 MiB available memory on the node where the printing process lives
------------------
     ethr =  1.00E-02,  avg # of iterations =  2.3

     negative rho (up, down):  8.482E-04 0.000E+00

     total cpu time spent up to now is        6.5 secs

     total energy              =    -361.25580433 Ry
     estimated scf accuracy    <       6.98729148 Ry

     iteration #  5     ecut=    30.00 Ry     beta= 0.70
     Davidson diagonalization with overlap

---- Real-time Memory Report at c_bands before calling an iterative solver
           172 MiB given to the printing process from OS
             0 MiB allocation reported by mallinfo(arena+hblkhd)
         46667 MiB available memory on the node where the printing process lives
------------------
     ethr =  1.00E-02,  avg # of iterations =  1.0

     negative rho (up, down):  1.096E-03 0.000E+00

     total cpu time spent up to now is        7.2 secs

     total energy              =    -360.96008910 Ry
     estimated scf accuracy    <       3.17909302 Ry

     iteration #  6     ecut=    30.00 Ry     beta= 0.70
     Davidson diagonalization with overlap

---- Real-time Memory Report at c_bands before calling an iterative solver
           172 MiB given to the printing process from OS
             0 MiB allocation reported by mallinfo(arena+hblkhd)
         46664 MiB available memory on the node where the printing process lives
------------------
     ethr =  8.83E-03,  avg # of iterations =  1.0

     negative rho (up, down):  1.364E-03 0.000E+00

     total cpu time spent up to now is        8.2 secs

     total energy              =    -360.67096399 Ry
     estimated scf accuracy    <       1.47353355 Ry

     iteration #  7     ecut=    30.00 Ry     beta= 0.70
     Davidson diagonalization with overlap

---- Real-time Memory Report at c_bands before calling an iterative solver
           173 MiB given to the printing process from OS
             0 MiB allocation reported by mallinfo(arena+hblkhd)
         46666 MiB available memory on the node where the printing process lives
------------------
     ethr =  4.09E-03,  avg # of iterations =  1.7

     negative rho (up, down):  1.288E-03 0.000E+00

     total cpu time spent up to now is        9.2 secs

     total energy              =    -360.76522746 Ry
     estimated scf accuracy    <       0.11997915 Ry

     iteration #  8     ecut=    30.00 Ry     beta= 0.70
     Davidson diagonalization with overlap

---- Real-time Memory Report at c_bands before calling an iterative solver
           173 MiB given to the printing process from OS
             0 MiB allocation reported by mallinfo(arena+hblkhd)
         46666 MiB available memory on the node where the printing process lives
------------------
     ethr =  3.33E-04,  avg # of iterations =  4.4

     negative rho (up, down):  1.334E-03 0.000E+00

     total cpu time spent up to now is        9.9 secs

     total energy              =    -360.74279532 Ry
     estimated scf accuracy    <       0.17238091 Ry

     iteration #  9     ecut=    30.00 Ry     beta= 0.70
     Davidson diagonalization with overlap

---- Real-time Memory Report at c_bands before calling an iterative solver
           173 MiB given to the printing process from OS
             0 MiB allocation reported by mallinfo(arena+hblkhd)
         46670 MiB available memory on the node where the printing process lives
------------------
     ethr =  3.33E-04,  avg # of iterations =  1.3

     negative rho (up, down):  1.345E-03 0.000E+00

     total cpu time spent up to now is       10.4 secs

     total energy              =    -360.73706363 Ry
     estimated scf accuracy    <       0.07068777 Ry

     iteration # 10     ecut=    30.00 Ry     beta= 0.70
     Davidson diagonalization with overlap

---- Real-time Memory Report at c_bands before calling an iterative solver
           173 MiB given to the printing process from OS
             0 MiB allocation reported by mallinfo(arena+hblkhd)
         46666 MiB available memory on the node where the printing process lives
------------------
     ethr =  1.96E-04,  avg # of iterations =  1.0

     negative rho (up, down):  1.369E-03 0.000E+00

     total cpu time spent up to now is       10.9 secs

     total energy              =    -360.72487757 Ry
     estimated scf accuracy    <       0.03356627 Ry

     iteration # 11     ecut=    30.00 Ry     beta= 0.70
     Davidson diagonalization with overlap

---- Real-time Memory Report at c_bands before calling an iterative solver
           173 MiB given to the printing process from OS
             0 MiB allocation reported by mallinfo(arena+hblkhd)
         46668 MiB available memory on the node where the printing process lives
------------------
     ethr =  9.32E-05,  avg # of iterations =  1.8

     negative rho (up, down):  1.359E-03 0.000E+00

     total cpu time spent up to now is       11.4 secs

     total energy              =    -360.73015930 Ry
     estimated scf accuracy    <       0.00037696 Ry

     iteration # 12     ecut=    30.00 Ry     beta= 0.70
     Davidson diagonalization with overlap

---- Real-time Memory Report at c_bands before calling an iterative solver
           173 MiB given to the printing process from OS
             0 MiB allocation reported by mallinfo(arena+hblkhd)
         46668 MiB available memory on the node where the printing process lives
------------------
     ethr =  1.05E-06,  avg # of iterations =  8.7

     negative rho (up, down):  1.351E-03 0.000E+00

     total cpu time spent up to now is       12.2 secs

     total energy              =    -360.73014034 Ry
     estimated scf accuracy    <       0.00016282 Ry

     iteration # 13     ecut=    30.00 Ry     beta= 0.70
     Davidson diagonalization with overlap

---- Real-time Memory Report at c_bands before calling an iterative solver
           173 MiB given to the printing process from OS
             0 MiB allocation reported by mallinfo(arena+hblkhd)
         46674 MiB available memory on the node where the printing process lives
------------------
     ethr =  4.52E-07,  avg # of iterations =  1.0

     negative rho (up, down):  1.344E-03 0.000E+00

     total cpu time spent up to now is       12.7 secs

     total energy              =    -360.73014032 Ry
     estimated scf accuracy    <       0.00002048 Ry

     iteration # 14     ecut=    30.00 Ry     beta= 0.70
     Davidson diagonalization with overlap

---- Real-time Memory Report at c_bands before calling an iterative solver
           173 MiB given to the printing process from OS
             0 MiB allocation reported by mallinfo(arena+hblkhd)
         46668 MiB available memory on the node where the printing process lives
------------------
     ethr =  5.69E-08,  avg # of iterations =  2.0

     negative rho (up, down):  1.345E-03 0.000E+00

     total cpu time spent up to now is       13.2 secs

     total energy              =    -360.73014446 Ry
     estimated scf accuracy    <       0.00000293 Ry

     iteration # 15     ecut=    30.00 Ry     beta= 0.70
     Davidson diagonalization with overlap

---- Real-time Memory Report at c_bands before calling an iterative solver
           173 MiB given to the printing process from OS
             0 MiB allocation reported by mallinfo(arena+hblkhd)
         46670 MiB available memory on the node where the printing process lives
------------------
     ethr =  8.13E-09,  avg # of iterations =  2.0

     negative rho (up, down):  1.346E-03 0.000E+00

     total cpu time spent up to now is       13.8 secs

     End of self-consistent calculation

          k = 0.0000 0.0000 0.0000 (  1043 PWs)   bands (ev):

   -43.9068 -43.7913 -20.2974 -19.9851 -19.9851 -19.9053 -19.8247 -19.8247
     2.6353   3.0882   4.1165   4.1165   4.3291   4.9161   9.0552   9.4948
    11.4427  11.9219  12.9422  14.2869  14.2869  14.8999  15.5608  15.7448
    15.7448  16.2143  20.8431  23.8720  24.2465  24.2465  26.3968  26.3968
    27.4124  27.4615  28.6006  29.8000  30.5646  31.9710  31.9710  32.1568
    34.4971  34.9187  34.9187  35.5026  39.0136  40.0516  40.0516  40.5710
    41.0747  42.1435  42.1435  42.2728  42.2728  42.9487  43.4610  43.8780
    45.1849  45.9058  46.0273  47.9993  49.4951  50.2050  50.2175  50.2175

     occupation numbers 
     1.0000   1.0000   1.0000   1.0000   1.0000   1.0000   1.0000   1.0000
     1.0000   1.0000   1.0000   1.0000   1.0000   1.0000   1.0000   1.0000
     1.0000   1.0000   0.0000   0.0000   0.0000   0.0000   0.0000   0.0000
     0.0000   0.0000   0.0000   0.0000   0.0000   0.0000   0.0000   0.0000
     0.0000   0.0000   0.0000   0.0000   0.0000   0.0000   0.0000   0.0000
     0.0000   0.0000   0.0000   0.0000   0.0000   0.0000   0.0000   0.0000
     0.0000   0.0000   0.0000   0.0000   0.0000   0.0000   0.0000   0.0000
     0.0000   0.0000   0.0000   0.0000   0.0000   0.0000   0.0000   0.0000

          k = 0.0000 0.0000 1.1653 (  1031 PWs)   bands (ev):

   -43.7905 -43.7609 -20.3149 -20.2935 -20.1683 -20.0548 -20.0277 -19.9156
     3.2227   3.5319   3.6057   3.9908   4.1167   8.9875  11.3387  11.3814
    12.2185  12.9380  13.0554  13.3230  14.3939  14.8041  14.8289  15.8459
    16.9612  17.6619  18.0575  19.1002  20.4343  22.1663  23.8429  24.6613
    25.3070  25.8983  26.2552  27.5309  27.8982  28.1270  30.0058  34.8532
    36.7807  36.9050  37.3398  38.9257  38.9331  39.2650  39.5869  40.8152
    41.7638  42.5506  43.4573  44.4213  45.0446  46.0767  48.0060  48.1820
    48.7146  49.5455  50.0585  50.5053  51.2689  51.4981  51.7285  51.9596

     occupation numbers 
     1.0000   1.0000   1.0000   1.0000   1.0000   1.0000   1.0000   1.0000
     1.0000   1.0000   1.0000   1.0000   1.0000   1.0000   1.0000   1.0000
     1.0000   1.0000   0.0000   0.0000   0.0000   0.0000   0.0000   0.0000
     0.0000   0.0000   0.0000   0.0000   0.0000   0.0000   0.0000   0.0000
     0.0000   0.0000   0.0000   0.0000   0.0000   0.0000   0.0000   0.0000
     0.0000   0.0000   0.0000   0.0000   0.0000   0.0000   0.0000   0.0000
     0.0000   0.0000   0.0000   0.0000   0.0000   0.0000   0.0000   0.0000
     0.0000   0.0000   0.0000   0.0000   0.0000   0.0000   0.0000   0.0000

          k = 0.0000 0.6081 0.5827 (  1036 PWs)   bands (ev):

   -43.8410 -43.7829 -20.3267 -20.3238 -20.0133 -19.9180 -19.8979 -19.8375
     2.9502   3.4384   3.9154   3.9444   4.1685   7.0901  10.1731  10.9919
    12.1980  12.4517  12.9877  13.6867  14.2067  14.3403  14.9744  15.6188
    16.0566  16.4959  16.9378  20.0457  22.0587  23.2654  25.5223  26.6225
    26.7062  28.1582  29.6924  29.8680  30.5019  32.2287  33.5639  33.7372
    34.2582  35.7383  35.8954  36.3990  37.2727  37.4516  37.8958  39.5045
    39.6931  40.3413  42.0672  42.9544  43.7130  44.3049  44.9827  45.4103
    46.1571  48.5280  48.5550  49.2779  49.5272  49.6955  51.2006  51.8123

     occupation numbers 
     1.0000   1.0000   1.0000   1.0000   1.0000   1.0000   1.0000   1.0000
     1.0000   1.0000   1.0000   1.0000   1.0000   1.0000   1.0000   1.0000
     1.0000   1.0000   0.0000   0.0000   0.0000   0.0000   0.0000   0.0000
     0.0000   0.0000   0.0000   0.0000   0.0000   0.0000   0.0000   0.0000
     0.0000   0.0000   0.0000   0.0000   0.0000   0.0000   0.0000   0.0000
     0.0000   0.0000   0.0000   0.0000   0.0000   0.0000   0.0000   0.0000
     0.0000   0.0000   0.0000   0.0000   0.0000   0.0000   0.0000   0.0000
     0.0000   0.0000   0.0000   0.0000   0.0000   0.0000   0.0000   0.0000

          k = 0.0000 0.6081 1.7480 (  1051 PWs)   bands (ev):

   -43.7907 -43.7612 -20.3148 -20.2934 -20.1685 -20.0548 -20.0274 -19.9160
     3.2179   3.5242   3.5948   3.9908   4.1101   9.1331  10.8875  11.6150
    12.0645  12.0708  13.6524  14.2905  14.3113  14.7348  15.0026  15.9371
    16.1786  17.4054  18.5194  19.5276  21.5489  21.5909  22.4586  23.8628
    24.2759  24.7992  27.2305  29.1851  29.5024  30.0109  31.0168  32.3161
    33.8595  34.7856  36.5511  38.4317  40.1861  40.4774  41.5269  41.7389
    43.1426  43.3025  44.8659  45.1964  45.5406  46.1920  46.7205  46.8989
    47.4877  48.1916  48.9719  49.5041  50.0529  50.8394  51.2348  51.9931

     occupation numbers 
     1.0000   1.0000   1.0000   1.0000   1.0000   1.0000   1.0000   1.0000
     1.0000   1.0000   1.0000   1.0000   1.0000   1.0000   1.0000   1.0000
     1.0000   1.0000   0.0000   0.0000   0.0000   0.0000   0.0000   0.0000
     0.0000   0.0000   0.0000   0.0000   0.0000   0.0000   0.0000   0.0000
     0.0000   0.0000   0.0000   0.0000   0.0000   0.0000   0.0000   0.0000
     0.0000   0.0000   0.0000   0.0000   0.0000   0.0000   0.0000   0.0000
     0.0000   0.0000   0.0000   0.0000   0.0000   0.0000   0.0000   0.0000
     0.0000   0.0000   0.0000   0.0000   0.0000   0.0000   0.0000   0.0000

          k = 0.3333-0.5086 0.5827 (  1036 PWs)   bands (ev):

   -43.8410 -43.7829 -20.3267 -20.3238 -20.0133 -19.9180 -19.8979 -19.8375
     2.9502   3.4384   3.9154   3.9444   4.1685   7.0901  10.1731  10.9919
    12.1980  12.4517  12.9877  13.6867  14.2067  14.3403  14.9744  15.6188
    16.0566  16.4959  16.9378  20.0457  22.0587  23.2654  25.5223  26.6225
    26.7062  28.1582  29.6924  29.8680  30.5019  32.2287  33.5639  33.7372
    34.2582  35.7383  35.8954  36.3990  37.2727  37.4516  37.8958  39.5045
    39.6931  40.3413  42.0672  42.9544  43.7130  44.3049  44.9827  45.4103
    46.1571  48.5280  48.5550  49.2779  49.5272  49.6955  51.2006  51.8123

     occupation numbers 
     1.0000   1.0000   1.0000   1.0000   1.0000   1.0000   1.0000   1.0000
     1.0000   1.0000   1.0000   1.0000   1.0000   1.0000   1.0000   1.0000
     1.0000   1.0000   0.0000   0.0000   0.0000   0.0000   0.0000   0.0000
     0.0000   0.0000   0.0000   0.0000   0.0000   0.0000   0.0000   0.0000
     0.0000   0.0000   0.0000   0.0000   0.0000   0.0000   0.0000   0.0000
     0.0000   0.0000   0.0000   0.0000   0.0000   0.0000   0.0000   0.0000
     0.0000   0.0000   0.0000   0.0000   0.0000   0.0000   0.0000   0.0000
     0.0000   0.0000   0.0000   0.0000   0.0000   0.0000   0.0000   0.0000

          k = 0.3333-0.5086 1.7480 (  1051 PWs)   bands (ev):

   -43.7907 -43.7612 -20.3148 -20.2934 -20.1685 -20.0548 -20.0274 -19.9160
     3.2179   3.5242   3.5948   3.9908   4.1101   9.1331  10.8875  11.6150
    12.0645  12.0708  13.6524  14.2905  14.3113  14.7348  15.0026  15.9371
    16.1786  17.4054  18.5194  19.5276  21.5489  21.5909  22.4586  23.8628
    24.2759  24.7992  27.2305  29.1851  29.5024  30.0109  31.0168  32.3161
    33.8595  34.7856  36.5511  38.4317  40.1861  40.4774  41.5269  41.7389
    43.1426  43.3025  44.8659  45.1964  45.5406  46.1920  46.7205  46.8989
    47.4877  48.1916  48.9719  49.5041  50.0529  50.8394  51.2348  51.9931

     occupation numbers 
     1.0000   1.0000   1.0000   1.0000   1.0000   1.0000   1.0000   1.0000
     1.0000   1.0000   1.0000   1.0000   1.0000   1.0000   1.0000   1.0000
     1.0000   1.0000   0.0000   0.0000   0.0000   0.0000   0.0000   0.0000
     0.0000   0.0000   0.0000   0.0000   0.0000   0.0000   0.0000   0.0000
     0.0000   0.0000   0.0000   0.0000   0.0000   0.0000   0.0000   0.0000
     0.0000   0.0000   0.0000   0.0000   0.0000   0.0000   0.0000   0.0000
     0.0000   0.0000   0.0000   0.0000   0.0000   0.0000   0.0000   0.0000
     0.0000   0.0000   0.0000   0.0000   0.0000   0.0000   0.0000   0.0000

          k = 0.3333 0.0995 1.1653 (  1051 PWs)   bands (ev):

   -43.7907 -43.7612 -20.3148 -20.2934 -20.1685 -20.0548 -20.0274 -19.9160
     3.2179   3.5242   3.5948   3.9908   4.1101   9.1331  10.8875  11.6150
    12.0645  12.0708  13.6524  14.2905  14.3113  14.7348  15.0026  15.9371
    16.1786  17.4054  18.5194  19.5276  21.5489  21.5909  22.4586  23.8628
    24.2759  24.7992  27.2305  29.1851  29.5024  30.0109  31.0168  32.3161
    33.8595  34.7856  36.5511  38.4317  40.1861  40.4774  41.5269  41.7389
    43.1426  43.3025  44.8659  45.1964  45.5406  46.1920  46.7205  46.8989
    47.4877  48.1916  48.9719  49.5041  50.0529  50.8394  51.2348  51.9931

     occupation numbers 
     1.0000   1.0000   1.0000   1.0000   1.0000   1.0000   1.0000   1.0000
     1.0000   1.0000   1.0000   1.0000   1.0000   1.0000   1.0000   1.0000
     1.0000   1.0000   0.0000   0.0000   0.0000   0.0000   0.0000   0.0000
     0.0000   0.0000   0.0000   0.0000   0.0000   0.0000   0.0000   0.0000
     0.0000   0.0000   0.0000   0.0000   0.0000   0.0000   0.0000   0.0000
     0.0000   0.0000   0.0000   0.0000   0.0000   0.0000   0.0000   0.0000
     0.0000   0.0000   0.0000   0.0000   0.0000   0.0000   0.0000   0.0000
     0.0000   0.0000   0.0000   0.0000   0.0000   0.0000   0.0000   0.0000

          k = 0.3333 0.0995 0.0000 (  1054 PWs)   bands (ev):

   -43.9069 -43.7916 -20.2964 -19.9851 -19.9851 -19.9064 -19.8247 -19.8247
     2.6280   3.0937   4.1101   4.1101   4.3210   5.1432   7.7008  10.6304
    11.4557  12.3928  12.9231  14.2254  14.2254  14.9570  15.5588  15.8565
    15.8565  16.2146  18.9785  23.5828  23.5828  26.0735  27.1031  27.8654
    27.8654  27.8870  28.3651  29.7289  30.4865  30.5343  30.5343  31.4050
    35.6619  35.7989  35.8165  35.8165  37.4257  38.3589  38.3589  38.7018
    41.3412  42.8916  42.8916  43.1179  44.1568  44.3682  44.9477  44.9477
    45.8884  46.0758  46.2087  47.7512  47.7512  48.3753  49.4727  49.5866

     occupation numbers 
     1.0000   1.0000   1.0000   1.0000   1.0000   1.0000   1.0000   1.0000
     1.0000   1.0000   1.0000   1.0000   1.0000   1.0000   1.0000   1.0000
     1.0000   1.0000   0.0000   0.0000   0.0000   0.0000   0.0000   0.0000
     0.0000   0.0000   0.0000   0.0000   0.0000   0.0000   0.0000   0.0000
     0.0000   0.0000   0.0000   0.0000   0.0000   0.0000   0.0000   0.0000
     0.0000   0.0000   0.0000   0.0000   0.0000   0.0000   0.0000   0.0000
     0.0000   0.0000   0.0000   0.0000   0.0000   0.0000   0.0000   0.0000
     0.0000   0.0000   0.0000   0.0000   0.0000   0.0000   0.0000   0.0000

          k = 0.3333-1.1166 0.0000 (  1031 PWs)   bands (ev):

   -43.7905 -43.7609 -20.3149 -20.2935 -20.1683 -20.0548 -20.0277 -19.9156
     3.2227   3.5319   3.6057   3.9908   4.1167   8.9875  11.3387  11.3814
    12.2185  12.9380  13.0554  13.3230  14.3939  14.8041  14.8289  15.8459
    16.9612  17.6619  18.0575  19.1002  20.4343  22.1663  23.8429  24.6613
    25.3070  25.8983  26.2552  27.5309  27.8982  28.1270  30.0058  34.8532
    36.7807  36.9050  37.3398  38.9257  38.9331  39.2650  39.5869  40.8152
    41.7638  42.5506  43.4573  44.4213  45.0446  46.0767  48.0060  48.1820
    48.7146  49.5455  50.0585  50.5053  51.2689  51.4981  51.7285  51.9597

     occupation numbers 
     1.0000   1.0000   1.0000   1.0000   1.0000   1.0000   1.0000   1.0000
     1.0000   1.0000   1.0000   1.0000   1.0000   1.0000   1.0000   1.0000
     1.0000   1.0000   0.0000   0.0000   0.0000   0.0000   0.0000   0.0000
     0.0000   0.0000   0.0000   0.0000   0.0000   0.0000   0.0000   0.0000
     0.0000   0.0000   0.0000   0.0000   0.0000   0.0000   0.0000   0.0000
     0.0000   0.0000   0.0000   0.0000   0.0000   0.0000   0.0000   0.0000
     0.0000   0.0000   0.0000   0.0000   0.0000   0.0000   0.0000   0.0000
     0.0000   0.0000   0.0000   0.0000   0.0000   0.0000   0.0000   0.0000

          k = 0.3333-1.1166 1.1653 (  1021 PWs)   bands (ev):

   -43.8409 -43.7826 -20.3266 -20.3242 -20.0127 -19.9180 -19.8982 -19.8375
     2.9531   3.4362   3.9238   3.9489   4.1778   7.1949   9.7524  11.7181
    11.7968  12.1974  12.9950  13.7024  14.2126  14.3750  15.0584  15.5741
    16.0522  16.5716  18.4080  19.0338  21.4009  21.8620  26.5964  26.7718
    27.6705  28.7213  30.3934  30.8335  31.5227  31.5760  31.5932  32.0581
    33.9403  35.0762  35.3337  35.5736  37.2045  38.3073  39.3796  40.0554
    40.2292  41.7510  41.9962  42.1513  43.7643  44.0278  44.6342  45.2000
    45.8892  47.4750  48.1067  49.5630  51.4840  51.5594  51.5983  52.1990

     occupation numbers 
     1.0000   1.0000   1.0000   1.0000   1.0000   1.0000   1.0000   1.0000
     1.0000   1.0000   1.0000   1.0000   1.0000   1.0000   1.0000   1.0000
     1.0000   1.0000   0.0000   0.0000   0.0000   0.0000   0.0000   0.0000
     0.0000   0.0000   0.0000   0.0000   0.0000   0.0000   0.0000   0.0000
     0.0000   0.0000   0.0000   0.0000   0.0000   0.0000   0.0000   0.0000
     0.0000   0.0000   0.0000   0.0000   0.0000   0.0000   0.0000   0.0000
     0.0000   0.0000   0.0000   0.0000   0.0000   0.0000   0.0000   0.0000
     0.0000   0.0000   0.0000   0.0000   0.0000   0.0000   0.0000   0.0000

     highest occupied, lowest unoccupied level (ev):    12.9380   12.9231

!    total energy              =    -360.73014450 Ry
     estimated scf accuracy    <       0.00000082 Ry

     The total energy is the sum of the following terms:
     one-electron contribution =    -111.02642715 Ry
     hartree contribution      =      76.74951820 Ry
     xc contribution           =     -78.99253338 Ry
     ewald contribution        =    -247.46070216 Ry

     convergence has been achieved in  15 iterations

     Writing all to output data dir calculations_bands/myprefix.save/
 
     init_run     :      5.07s CPU      1.64s WALL (       1 calls)
     electrons    :     45.73s CPU     11.98s WALL (       1 calls)

     Called by init_run:
     wfcinit      :      1.14s CPU      0.30s WALL (       1 calls)
     wfcinit:atom :      0.00s CPU      0.00s WALL (       5 calls)
     wfcinit:wfcr :      1.13s CPU      0.30s WALL (       5 calls)
     potinit      :      1.38s CPU      0.41s WALL (       1 calls)
     hinit0       :      2.45s CPU      0.88s WALL (       1 calls)

     Called by electrons:
     c_bands      :     35.09s CPU      9.17s WALL (      15 calls)
     sum_band     :      7.02s CPU      1.85s WALL (      15 calls)
     v_of_rho     :      1.69s CPU      0.44s WALL (      16 calls)
     v_h          :      0.07s CPU      0.02s WALL (      16 calls)
     v_xc         :      1.62s CPU      0.42s WALL (      16 calls)
     newd         :      1.56s CPU      0.42s WALL (      16 calls)
     mix_rho      :      0.20s CPU      0.05s WALL (      15 calls)

     Called by c_bands:
     init_us_2    :      0.08s CPU      0.02s WALL (     155 calls)
     init_us_2:cp :      0.08s CPU      0.02s WALL (     155 calls)
     cegterg      :     32.74s CPU      8.54s WALL (      75 calls)

     Called by sum_band:
     sum_band:wei :      0.02s CPU      0.01s WALL (      15 calls)
     sum_band:loo :      5.13s CPU      1.34s WALL (      15 calls)
     sum_band:buf :      0.01s CPU      0.00s WALL (      75 calls)
     sum_band:ini :      0.04s CPU      0.01s WALL (      75 calls)
     sum_band:cal :      0.09s CPU      0.02s WALL (      75 calls)
     sum_band:bec :      0.01s CPU      0.00s WALL (      75 calls)
     addusdens    :      0.58s CPU      0.17s WALL (      15 calls)
     addusd:skk   :      0.00s CPU      0.00s WALL (      30 calls)
     addusd:dgemm :      0.07s CPU      0.04s WALL (      30 calls)
     addusd:qvan2 :      0.38s CPU      0.10s WALL (      30 calls)

     Called by *egterg:
     cdiaghg      :      5.81s CPU      1.53s WALL (     317 calls)
     cegterg:over :      0.69s CPU      0.18s WALL (     242 calls)
     cegterg:upda :      0.30s CPU      0.08s WALL (     242 calls)
     cegterg:last :      0.50s CPU      0.13s WALL (     151 calls)
     cdiaghg:chol :      0.38s CPU      0.10s WALL (     317 calls)
     cdiaghg:inve :      0.08s CPU      0.02s WALL (     317 calls)
     cdiaghg:para :      0.91s CPU      0.24s WALL (     634 calls)
     h_psi        :     26.12s CPU      6.80s WALL (     322 calls)
     s_psi        :      0.06s CPU      0.02s WALL (     322 calls)
     g_psi        :      0.01s CPU      0.00s WALL (     242 calls)

     Called by h_psi:
     h_psi:calbec :      0.25s CPU      0.07s WALL (     322 calls)
     vloc_psi     :     25.76s CPU      6.71s WALL (     322 calls)
     add_vuspsi   :      0.07s CPU      0.02s WALL (     322 calls)

     General routines
     calbec       :      0.32s CPU      0.09s WALL (     397 calls)
     fft          :      2.47s CPU      0.80s WALL (     206 calls)
     ffts         :      1.17s CPU      0.35s WALL (      31 calls)
     fftw         :     28.47s CPU      7.42s WALL (   29818 calls)
     interpolate  :      1.21s CPU      0.36s WALL (      16 calls)
 
     Parallel routines
 
     PWSCF        :     51.74s CPU     14.06s WALL

 
   This run was terminated on:  12:25:43   6Jun2023            

=------------------------------------------------------------------------------=
   JOB DONE.
=------------------------------------------------------------------------------=
