
     Program PWSCF v.7.0 starts on  4Jun2023 at 13:21:54 

     This program is part of the open-source Quantum ESPRESSO suite
     for quantum simulation of materials; please cite
         "P. Giannozzi et al., J. Phys.:Condens. Matter 21 395502 (2009);
         "P. Giannozzi et al., J. Phys.:Condens. Matter 29 465901 (2017);
         "P. Giannozzi et al., J. Chem. Phys. 152 154105 (2020);
          URL http://www.quantum-espresso.org", 
     in publications or presentations arising from this work. More details at
     http://www.quantum-espresso.org/quote

     Parallel version (MPI & OpenMP), running on      32 processor cores
     Number of MPI processes:                 8
     Threads/MPI process:                     4

     MPI processes distributed on     1 nodes
     K-points division:     npool     =       2
     R & G space division:  proc/nbgrp/npool/nimage =       4
     27610 MiB available memory on the printing compute node when the environment starts
 
     Reading input from espresso_2005.pwi
Warning: card &CELL ignored
Warning: card / ignored

     Current dimensions of program PWSCF are:
     Max number of different atomic species (ntypx) = 10
     Max number of k-points (npk) =  40000
     Max angular momentum in pseudopotentials (lmaxx) =  4
     file Mg.pbe-n-kjpaw_psl.0.3.0.UPF: wavefunction(s)  3S renormalized
     Message from routine setup:
     using ibrav=0 with symmetry is DISCOURAGED, use correct ibrav instead

     Subspace diagonalization in iterative solution of the eigenvalue problem:
     one sub-group per band group will be used
     scalapack distributed-memory algorithm (size of sub-group:  2*  2 procs)

 
     Parallelization info
     --------------------
     sticks:   dense  smooth     PW     G-vecs:    dense   smooth      PW
     Min         542     267     78                33123    11683    1804
     Max         544     268     79                33126    11692    1809
     Sum        2173    1069    313               132499    46745    7223
 
     Using Slab Decomposition
 


     bravais-lattice index     =            0
     lattice parameter (alat)  =      11.4507  a.u.
     unit-cell volume          =    2111.4619 (a.u.)^3
     number of atoms/cell      =           12
     number of atomic types    =            2
     number of electrons       =        60.00
     number of Kohn-Sham states=           64
     kinetic-energy cutoff     =      30.0000  Ry
     charge density cutoff     =     240.0000  Ry
     scf convergence threshold =      1.0E-06
     mixing beta               =       0.7000
     number of iterations used =            8  plain     mixing
     Exchange-correlation= SLA  PW   PBX  PBC
                           (   1   4   3   4   0   0   0)

     celldm(1)=  11.450689  celldm(2)=   0.000000  celldm(3)=   0.000000
     celldm(4)=   0.000000  celldm(5)=   0.000000  celldm(6)=   0.000000

     crystal axes: (cart. coord. in units of alat)
               a(1) = (   1.000000   0.000000   0.000000 )  
               a(2) = (  -0.500000   0.866025   0.000000 )  
               a(3) = (   0.000000   0.000000   1.623894 )  

     reciprocal axes: (cart. coord. in units 2 pi/alat)
               b(1) = (  1.000000  0.577350  0.000000 )  
               b(2) = (  0.000000  1.154700  0.000000 )  
               b(3) = (  0.000000  0.000000  0.615804 )  


     PseudoPot. # 1 for Y  read from file:
     /home/pragov/projects/rrg-bengioy-ad/pragov/crystal_structure_design/SSSP/Y_pbe_v1.uspp.F.UPF
     MD5 check sum: 2cf71db95cafeb975fc457bd7f14888e
     Pseudo is Ultrasoft + core correction, Zval = 11.0
     Generated by new atomic code, or converted to UPF format
     Using radial grid of  885 points,  6 beta functions with: 
                l(1) =   0
                l(2) =   0
                l(3) =   1
                l(4) =   1
                l(5) =   2
                l(6) =   2
     Q(r) pseudized with  6 coefficients,  rinner =    1.200   1.200   1.200
                                                       1.200   1.200

     PseudoPot. # 2 for Mg read from file:
     /home/pragov/projects/rrg-bengioy-ad/pragov/crystal_structure_design/SSSP/Mg.pbe-n-kjpaw_psl.0.3.0.UPF
     MD5 check sum: 24ecedc7f3e3cbe212e682f4413594e4
     Pseudo is Projector augmented-wave + core cor, Zval =  2.0
     Generated using "atomic" code by A. Dal Corso  v.5.0.99 svn rev. 10869
     Shape of augmentation charge: PSQ
     Using radial grid of 1129 points,  4 beta functions with: 
                l(1) =   0
                l(2) =   0
                l(3) =   1
                l(4) =   1
     Q(r) pseudized with 0 coefficients 


     atomic species   valence    mass     pseudopotential
        Y             11.00    88.90584     Y ( 1.00)
        Mg             2.00    24.30500     Mg( 1.00)

     24 Sym. Ops., with inversion, found (12 have fractional translation)


                                    s                        frac. trans.

      isym =  1     identity                                     

 cryst.   s( 1) = (     1          0          0      )
                  (     0          1          0      )
                  (     0          0          1      )

 cart.    s( 1) = (  1.0000000 -0.0000000  0.0000000 )
                  (  0.0000000  1.0000000  0.0000000 )
                  (  0.0000000  0.0000000  1.0000000 )


      isym =  2     180 deg rotation - cart. axis [0,0,1]        

 cryst.   s( 2) = (    -1          0          0      )    f =( -0.0000000 )
                  (     0         -1          0      )       (  0.0000000 )
                  (     0          0          1      )       (  0.5000000 )

 cart.    s( 2) = ( -1.0000000  0.0000000  0.0000000 )    f =( -0.0000000 )
                  (  0.0000000 -1.0000000  0.0000000 )       (  0.0000000 )
                  (  0.0000000  0.0000000  1.0000000 )       (  0.8119472 )


      isym =  3     180 deg rotation - cart. axis [0,1,0]        

 cryst.   s( 3) = (    -1          0          0      )    f =(  0.0000010 )
                  (     1          1          0      )       (  0.0000000 )
                  (     0          0         -1      )       ( -0.5000000 )

 cart.    s( 3) = ( -1.0000000  0.0000001  0.0000000 )    f =(  0.0000010 )
                  (  0.0000000  1.0000000  0.0000000 )       (  0.0000000 )
                  (  0.0000000  0.0000000 -1.0000000 )       ( -0.8119472 )


      isym =  4     180 deg rotation - cart. axis [1,0,0]        

 cryst.   s( 4) = (     1          0          0      )
                  (    -1         -1          0      )
                  (     0          0         -1      )

 cart.    s( 4) = (  1.0000000 -0.0000001  0.0000000 )
                  (  0.0000000 -1.0000000  0.0000000 )
                  (  0.0000000  0.0000000 -1.0000000 )


      isym =  5      60 deg rotation - cryst. axis [0,0,1]       

 cryst.   s( 5) = (     1          1          0      )    f =(  0.0000010 )
                  (    -1          0          0      )       (  0.0000000 )
                  (     0          0          1      )       (  0.5000000 )

 cart.    s( 5) = (  0.5000001 -0.8660254  0.0000000 )    f =(  0.0000010 )
                  (  0.8660254  0.4999999  0.0000000 )       (  0.0000000 )
                  (  0.0000000  0.0000000  1.0000000 )       (  0.8119472 )


      isym =  6      60 deg rotation - cryst. axis [0,0,-1]      

 cryst.   s( 6) = (     0         -1          0      )    f =(  0.0000000 )
                  (     1          1          0      )       ( -0.0000010 )
                  (     0          0          1      )       (  0.5000000 )

 cart.    s( 6) = (  0.4999999  0.8660254  0.0000000 )    f =(  0.0000005 )
                  ( -0.8660254  0.5000001  0.0000000 )       ( -0.0000009 )
                  (  0.0000000  0.0000000  1.0000000 )       (  0.8119472 )


      isym =  7     120 deg rotation - cryst. axis [0,0,1]       

 cryst.   s( 7) = (     0          1          0      )
                  (    -1         -1          0      )
                  (     0          0          1      )

 cart.    s( 7) = ( -0.4999999 -0.8660254  0.0000000 )
                  (  0.8660254 -0.5000001  0.0000000 )
                  (  0.0000000  0.0000000  1.0000000 )


      isym =  8     120 deg rotation - cryst. axis [0,0,-1]      

 cryst.   s( 8) = (    -1         -1          0      )
                  (     1          0          0      )
                  (     0          0          1      )

 cart.    s( 8) = ( -0.5000001  0.8660254  0.0000000 )
                  ( -0.8660254 -0.4999999  0.0000000 )
                  (  0.0000000  0.0000000  1.0000000 )


      isym =  9     180 deg rotation - cryst. axis [1,-1,0]      

 cryst.   s( 9) = (     0         -1          0      )    f =(  0.0000000 )
                  (    -1          0          0      )       (  0.0000000 )
                  (     0          0         -1      )       ( -0.5000000 )

 cart.    s( 9) = (  0.4999999 -0.8660254  0.0000000 )    f =(  0.0000000 )
                  ( -0.8660254 -0.4999999  0.0000000 )       (  0.0000000 )
                  (  0.0000000  0.0000000 -1.0000000 )       ( -0.8119472 )


      isym = 10     180 deg rotation - cryst. axis [2,1,0]       

 cryst.   s(10) = (     1          1          0      )    f =(  0.0000000 )
                  (     0         -1          0      )       ( -0.0000010 )
                  (     0          0         -1      )       ( -0.5000000 )

 cart.    s(10) = (  0.5000001  0.8660253  0.0000000 )    f =(  0.0000005 )
                  (  0.8660254 -0.5000001  0.0000000 )       ( -0.0000009 )
                  (  0.0000000  0.0000000 -1.0000000 )       ( -0.8119472 )


      isym = 11     180 deg rotation - cryst. axis [0,1,0]       

 cryst.   s(11) = (    -1         -1          0      )
                  (     0          1          0      )
                  (     0          0         -1      )

 cart.    s(11) = ( -0.5000001 -0.8660253  0.0000000 )
                  ( -0.8660254  0.5000001  0.0000000 )
                  (  0.0000000  0.0000000 -1.0000000 )


      isym = 12     180 deg rotation - cryst. axis [1,1,0]       

 cryst.   s(12) = (     0          1          0      )
                  (     1          0          0      )
                  (     0          0         -1      )

 cart.    s(12) = ( -0.4999999  0.8660254  0.0000000 )
                  (  0.8660254  0.4999999  0.0000000 )
                  (  0.0000000  0.0000000 -1.0000000 )


      isym = 13     inversion                                    

 cryst.   s(13) = (    -1          0          0      )
                  (     0         -1          0      )
                  (     0          0         -1      )

 cart.    s(13) = ( -1.0000000  0.0000000  0.0000000 )
                  (  0.0000000 -1.0000000  0.0000000 )
                  (  0.0000000  0.0000000 -1.0000000 )


      isym = 14     inv. 180 deg rotation - cart. axis [0,0,1]   

 cryst.   s(14) = (     1          0          0      )    f =(  0.0000000 )
                  (     0          1          0      )       (  0.0000000 )
                  (     0          0         -1      )       ( -0.5000000 )

 cart.    s(14) = (  1.0000000 -0.0000000  0.0000000 )    f =(  0.0000000 )
                  (  0.0000000  1.0000000  0.0000000 )       (  0.0000000 )
                  (  0.0000000  0.0000000 -1.0000000 )       ( -0.8119472 )


      isym = 15     inv. 180 deg rotation - cart. axis [0,1,0]   

 cryst.   s(15) = (     1          0          0      )    f =(  0.0000010 )
                  (    -1         -1          0      )       (  0.0000000 )
                  (     0          0          1      )       (  0.5000000 )

 cart.    s(15) = (  1.0000000 -0.0000001  0.0000000 )    f =(  0.0000010 )
                  (  0.0000000 -1.0000000  0.0000000 )       (  0.0000000 )
                  (  0.0000000  0.0000000  1.0000000 )       (  0.8119472 )


      isym = 16     inv. 180 deg rotation - cart. axis [1,0,0]   

 cryst.   s(16) = (    -1          0          0      )
                  (     1          1          0      )
                  (     0          0          1      )

 cart.    s(16) = ( -1.0000000  0.0000001  0.0000000 )
                  (  0.0000000  1.0000000  0.0000000 )
                  (  0.0000000  0.0000000  1.0000000 )


      isym = 17     inv.  60 deg rotation - cryst. axis [0,0,1]  

 cryst.   s(17) = (    -1         -1          0      )    f =(  0.0000010 )
                  (     1          0          0      )       (  0.0000000 )
                  (     0          0         -1      )       ( -0.5000000 )

 cart.    s(17) = ( -0.5000001  0.8660254  0.0000000 )    f =(  0.0000010 )
                  ( -0.8660254 -0.4999999  0.0000000 )       (  0.0000000 )
                  (  0.0000000  0.0000000 -1.0000000 )       ( -0.8119472 )


      isym = 18     inv.  60 deg rotation - cryst. axis [0,0,-1] 

 cryst.   s(18) = (     0          1          0      )    f =(  0.0000000 )
                  (    -1         -1          0      )       ( -0.0000010 )
                  (     0          0         -1      )       ( -0.5000000 )

 cart.    s(18) = ( -0.4999999 -0.8660254  0.0000000 )    f =(  0.0000005 )
                  (  0.8660254 -0.5000001  0.0000000 )       ( -0.0000009 )
                  (  0.0000000  0.0000000 -1.0000000 )       ( -0.8119472 )


      isym = 19     inv. 120 deg rotation - cryst. axis [0,0,1]  

 cryst.   s(19) = (     0         -1          0      )
                  (     1          1          0      )
                  (     0          0         -1      )

 cart.    s(19) = (  0.4999999  0.8660254  0.0000000 )
                  ( -0.8660254  0.5000001  0.0000000 )
                  (  0.0000000  0.0000000 -1.0000000 )


      isym = 20     inv. 120 deg rotation - cryst. axis [0,0,-1] 

 cryst.   s(20) = (     1          1          0      )
                  (    -1          0          0      )
                  (     0          0         -1      )

 cart.    s(20) = (  0.5000001 -0.8660254  0.0000000 )
                  (  0.8660254  0.4999999  0.0000000 )
                  (  0.0000000  0.0000000 -1.0000000 )


      isym = 21     inv. 180 deg rotation - cryst. axis [1,-1,0] 

 cryst.   s(21) = (     0          1          0      )    f =(  0.0000000 )
                  (     1          0          0      )       (  0.0000000 )
                  (     0          0          1      )       (  0.5000000 )

 cart.    s(21) = ( -0.4999999  0.8660254  0.0000000 )    f =( -0.0000000 )
                  (  0.8660254  0.4999999  0.0000000 )       (  0.0000000 )
                  (  0.0000000  0.0000000  1.0000000 )       (  0.8119472 )


      isym = 22     inv. 180 deg rotation - cryst. axis [2,1,0]  

 cryst.   s(22) = (    -1         -1          0      )    f =( -0.0000000 )
                  (     0          1          0      )       ( -0.0000010 )
                  (     0          0          1      )       (  0.5000000 )

 cart.    s(22) = ( -0.5000001 -0.8660253  0.0000000 )    f =(  0.0000005 )
                  ( -0.8660254  0.5000001  0.0000000 )       ( -0.0000009 )
                  (  0.0000000  0.0000000  1.0000000 )       (  0.8119472 )


      isym = 23     inv. 180 deg rotation - cryst. axis [0,1,0]  

 cryst.   s(23) = (     1          1          0      )
                  (     0         -1          0      )
                  (     0          0          1      )

 cart.    s(23) = (  0.5000001  0.8660253  0.0000000 )
                  (  0.8660254 -0.5000001  0.0000000 )
                  (  0.0000000  0.0000000  1.0000000 )


      isym = 24     inv. 180 deg rotation - cryst. axis [1,1,0]  

 cryst.   s(24) = (     0         -1          0      )
                  (    -1          0          0      )
                  (     0          0          1      )

 cart.    s(24) = (  0.4999999 -0.8660254  0.0000000 )
                  ( -0.8660254 -0.4999999  0.0000000 )
                  (  0.0000000  0.0000000  1.0000000 )


   Cartesian axes

     site n.     atom                  positions (alat units)
         1           Y   tau(   1) = (  -0.0000005   0.5773506   0.1051325  )
         2           Y   tau(   2) = (   0.5000005   0.2886749   0.9170797  )
         3           Y   tau(   3) = (   0.5000005   0.2886749   1.5187618  )
         4           Y   tau(   4) = (  -0.0000005   0.5773506   0.7068146  )
         5           Mg  tau(   5) = (   0.0000000   0.0000000   0.0000000  )
         6           Mg  tau(   6) = (   0.0000000   0.0000000   0.8119472  )
         7           Mg  tau(   7) = (   0.5000000   0.5697564   0.4059736  )
         8           Mg  tau(   8) = (  -0.2434234   0.7178909   1.2179207  )
         9           Mg  tau(   9) = (   0.2434236   0.7178909   1.2179207  )
        10           Mg  tau(  10) = (   0.2565765   0.1481345   0.4059736  )
        11           Mg  tau(  11) = (   0.7434235   0.1481345   0.4059736  )
        12           Mg  tau(  12) = (   0.0000000   0.2962690   1.2179207  )

   Crystallographic axes

     site n.     atom                  positions (cryst. coord.)
         1           Y   tau(   1) = (  0.3333330  0.6666670  0.0647410  )
         2           Y   tau(   2) = (  0.6666670  0.3333330  0.5647410  )
         3           Y   tau(   3) = (  0.6666670  0.3333330  0.9352590  )
         4           Y   tau(   4) = (  0.3333330  0.6666670  0.4352590  )
         5           Mg  tau(   5) = (  0.0000000  0.0000000  0.0000000  )
         6           Mg  tau(   6) = (  0.0000000  0.0000000  0.5000000  )
         7           Mg  tau(   7) = (  0.8289490  0.6578980  0.2500000  )
         8           Mg  tau(   8) = (  0.1710510  0.8289490  0.7500000  )
         9           Mg  tau(   9) = (  0.6578980  0.8289490  0.7500000  )
        10           Mg  tau(  10) = (  0.3421020  0.1710510  0.2500000  )
        11           Mg  tau(  11) = (  0.8289490  0.1710510  0.2500000  )
        12           Mg  tau(  12) = (  0.1710510  0.3421020  0.7500000  )

     number of k points=     6
                       cart. coord. in units 2pi/alat
        k(    1) = (   0.0000000   0.0000000   0.0000000), wk =   0.0740741
        k(    2) = (   0.0000000   0.0000000   0.2052679), wk =   0.1481481
        k(    3) = (   0.0000000   0.3849002   0.0000000), wk =   0.4444444
        k(    4) = (   0.0000000   0.3849002   0.2052679), wk =   0.8888889
        k(    5) = (   0.3333333   0.5773502   0.0000000), wk =   0.1481481
        k(    6) = (   0.3333333   0.5773502   0.2052679), wk =   0.2962963

                       cryst. coord.
        k(    1) = (   0.0000000   0.0000000   0.0000000), wk =   0.0740741
        k(    2) = (   0.0000000   0.0000000   0.3333333), wk =   0.1481481
        k(    3) = (   0.0000000   0.3333333   0.0000000), wk =   0.4444444
        k(    4) = (   0.0000000   0.3333333   0.3333333), wk =   0.8888889
        k(    5) = (   0.3333333   0.3333333   0.0000000), wk =   0.1481481
        k(    6) = (   0.3333333   0.3333333   0.3333333), wk =   0.2962963

     Dense  grid:   132499 G-vectors     FFT dimensions: (  60,  60,  96)

     Smooth grid:    46745 G-vectors     FFT dimensions: (  40,  40,  72)

     Dynamical RAM for                 wfc:       1.43 MB

     Dynamical RAM for     wfc (w. buffer):       5.72 MB

     Dynamical RAM for           str. fact:       1.01 MB

     Dynamical RAM for           local pot:       0.00 MB

     Dynamical RAM for          nlocal pot:       3.04 MB

     Dynamical RAM for                qrad:       2.49 MB

     Dynamical RAM for          rho,v,vnew:       3.49 MB

     Dynamical RAM for               rhoin:       1.16 MB

     Dynamical RAM for            rho*nmix:       8.09 MB

     Dynamical RAM for           G-vectors:       1.98 MB

     Dynamical RAM for          h,s,v(r/c):       0.19 MB

     Dynamical RAM for          <psi|beta>:       0.13 MB

     Dynamical RAM for                 psi:       2.86 MB

     Dynamical RAM for                hpsi:       2.86 MB

     Dynamical RAM for                spsi:       2.86 MB

     Dynamical RAM for      wfcinit/wfcrot:       3.92 MB

     Dynamical RAM for           addusdens:      49.28 MB

     Estimated static dynamical RAM per process >      23.71 MB

     Estimated max dynamical RAM per process >      81.08 MB

     Estimated total dynamical RAM >     616.27 MB

     Check: negative core charge=   -0.000002

     Initial potential from superposition of free atoms

     starting charge      59.9747, renormalised to      60.0000

     negative rho (up, down):  1.712E-01 0.000E+00
     Starting wfcs are   84 randomized atomic wfcs
     Checking if some PAW data can be deallocated... 
       PAW data deallocated on    2 nodes for type:  2

     total cpu time spent up to now is        2.3 secs

     Self-consistent Calculation

     iteration #  1     ecut=    30.00 Ry     beta= 0.70
     Davidson diagonalization with overlap

---- Real-time Memory Report at c_bands before calling an iterative solver
           209 MiB given to the printing process from OS
             0 MiB allocation reported by mallinfo(arena+hblkhd)
         27413 MiB available memory on the node where the printing process lives
------------------
     ethr =  1.00E-02,  avg # of iterations =  4.0

     Threshold (ethr) on eigenvalues was too large:
     Diagonalizing with lowered threshold

     Davidson diagonalization with overlap

---- Real-time Memory Report at c_bands before calling an iterative solver
           264 MiB given to the printing process from OS
             0 MiB allocation reported by mallinfo(arena+hblkhd)
         27347 MiB available memory on the node where the printing process lives
------------------
     ethr =  1.08E-04,  avg # of iterations =  5.0

     negative rho (up, down):  1.718E-01 0.000E+00

     total cpu time spent up to now is        4.3 secs

     total energy              =    -618.97730634 Ry
     estimated scf accuracy    <       0.06609881 Ry

     iteration #  2     ecut=    30.00 Ry     beta= 0.70
     Davidson diagonalization with overlap

---- Real-time Memory Report at c_bands before calling an iterative solver
           270 MiB given to the printing process from OS
             0 MiB allocation reported by mallinfo(arena+hblkhd)
         27260 MiB available memory on the node where the printing process lives
------------------
     ethr =  1.10E-04,  avg # of iterations =  1.8

     negative rho (up, down):  1.726E-01 0.000E+00

     total cpu time spent up to now is        4.9 secs

     total energy              =    -618.98110587 Ry
     estimated scf accuracy    <       0.01251042 Ry

     iteration #  3     ecut=    30.00 Ry     beta= 0.70
     Davidson diagonalization with overlap

---- Real-time Memory Report at c_bands before calling an iterative solver
           283 MiB given to the printing process from OS
             0 MiB allocation reported by mallinfo(arena+hblkhd)
         27153 MiB available memory on the node where the printing process lives
------------------
     ethr =  2.09E-05,  avg # of iterations =  5.0

     negative rho (up, down):  1.727E-01 0.000E+00

     total cpu time spent up to now is        5.7 secs

     total energy              =    -618.98409698 Ry
     estimated scf accuracy    <       0.01112101 Ry

     iteration #  4     ecut=    30.00 Ry     beta= 0.70
     Davidson diagonalization with overlap

---- Real-time Memory Report at c_bands before calling an iterative solver
           284 MiB given to the printing process from OS
             0 MiB allocation reported by mallinfo(arena+hblkhd)
         27022 MiB available memory on the node where the printing process lives
------------------
     ethr =  1.85E-05,  avg # of iterations =  1.2

     negative rho (up, down):  1.727E-01 0.000E+00

     total cpu time spent up to now is        6.2 secs

     total energy              =    -618.98519783 Ry
     estimated scf accuracy    <       0.00078626 Ry

     iteration #  5     ecut=    30.00 Ry     beta= 0.70
     Davidson diagonalization with overlap

---- Real-time Memory Report at c_bands before calling an iterative solver
           285 MiB given to the printing process from OS
             0 MiB allocation reported by mallinfo(arena+hblkhd)
         26948 MiB available memory on the node where the printing process lives
------------------
     ethr =  1.31E-06,  avg # of iterations =  6.0

     negative rho (up, down):  1.727E-01 0.000E+00

     total cpu time spent up to now is        7.0 secs

     total energy              =    -618.98582186 Ry
     estimated scf accuracy    <       0.00146413 Ry

     iteration #  6     ecut=    30.00 Ry     beta= 0.70
     Davidson diagonalization with overlap

---- Real-time Memory Report at c_bands before calling an iterative solver
           286 MiB given to the printing process from OS
             0 MiB allocation reported by mallinfo(arena+hblkhd)
         27136 MiB available memory on the node where the printing process lives
------------------
     ethr =  1.31E-06,  avg # of iterations =  1.0

     negative rho (up, down):  1.726E-01 0.000E+00

     total cpu time spent up to now is        7.6 secs

     total energy              =    -618.98576655 Ry
     estimated scf accuracy    <       0.00088030 Ry

     iteration #  7     ecut=    30.00 Ry     beta= 0.70
     Davidson diagonalization with overlap

---- Real-time Memory Report at c_bands before calling an iterative solver
           286 MiB given to the printing process from OS
             0 MiB allocation reported by mallinfo(arena+hblkhd)
         27117 MiB available memory on the node where the printing process lives
------------------
     ethr =  1.31E-06,  avg # of iterations =  1.0

     negative rho (up, down):  1.726E-01 0.000E+00

     total cpu time spent up to now is        8.3 secs

     total energy              =    -618.98576582 Ry
     estimated scf accuracy    <       0.00060094 Ry

     iteration #  8     ecut=    30.00 Ry     beta= 0.70
     Davidson diagonalization with overlap

---- Real-time Memory Report at c_bands before calling an iterative solver
           286 MiB given to the printing process from OS
             0 MiB allocation reported by mallinfo(arena+hblkhd)
         27116 MiB available memory on the node where the printing process lives
------------------
     ethr =  1.00E-06,  avg # of iterations =  1.0

     negative rho (up, down):  1.726E-01 0.000E+00

     total cpu time spent up to now is        8.9 secs

     total energy              =    -618.98576517 Ry
     estimated scf accuracy    <       0.00071768 Ry

     iteration #  9     ecut=    30.00 Ry     beta= 0.70
     Davidson diagonalization with overlap

---- Real-time Memory Report at c_bands before calling an iterative solver
           286 MiB given to the printing process from OS
             0 MiB allocation reported by mallinfo(arena+hblkhd)
         27117 MiB available memory on the node where the printing process lives
------------------
     ethr =  1.00E-06,  avg # of iterations =  1.0

     negative rho (up, down):  1.726E-01 0.000E+00

     total cpu time spent up to now is        9.4 secs

     total energy              =    -618.98577189 Ry
     estimated scf accuracy    <       0.00061990 Ry

     iteration # 10     ecut=    30.00 Ry     beta= 0.70
     Davidson diagonalization with overlap

---- Real-time Memory Report at c_bands before calling an iterative solver
           286 MiB given to the printing process from OS
             0 MiB allocation reported by mallinfo(arena+hblkhd)
         27035 MiB available memory on the node where the printing process lives
------------------
     ethr =  1.00E-06,  avg # of iterations =  1.0

     negative rho (up, down):  1.726E-01 0.000E+00

     total cpu time spent up to now is        9.9 secs

     total energy              =    -618.98578317 Ry
     estimated scf accuracy    <       0.00069068 Ry

     iteration # 11     ecut=    30.00 Ry     beta= 0.70
     Davidson diagonalization with overlap

---- Real-time Memory Report at c_bands before calling an iterative solver
           286 MiB given to the printing process from OS
             0 MiB allocation reported by mallinfo(arena+hblkhd)
         26950 MiB available memory on the node where the printing process lives
------------------
     ethr =  1.00E-06,  avg # of iterations =  1.0

     negative rho (up, down):  1.726E-01 0.000E+00

     total cpu time spent up to now is       10.4 secs

     total energy              =    -618.98578141 Ry
     estimated scf accuracy    <       0.00055573 Ry

     iteration # 12     ecut=    30.00 Ry     beta= 0.70
     Davidson diagonalization with overlap

---- Real-time Memory Report at c_bands before calling an iterative solver
           287 MiB given to the printing process from OS
             0 MiB allocation reported by mallinfo(arena+hblkhd)
         26926 MiB available memory on the node where the printing process lives
------------------
     ethr =  9.26E-07,  avg # of iterations =  1.0

     negative rho (up, down):  1.726E-01 0.000E+00

     total cpu time spent up to now is       11.0 secs

     total energy              =    -618.98578657 Ry
     estimated scf accuracy    <       0.00065563 Ry

     iteration # 13     ecut=    30.00 Ry     beta= 0.70
     Davidson diagonalization with overlap

---- Real-time Memory Report at c_bands before calling an iterative solver
           287 MiB given to the printing process from OS
             0 MiB allocation reported by mallinfo(arena+hblkhd)
         26542 MiB available memory on the node where the printing process lives
------------------
     ethr =  9.26E-07,  avg # of iterations =  1.0

     negative rho (up, down):  1.726E-01 0.000E+00

     total cpu time spent up to now is       12.0 secs

     total energy              =    -618.98578535 Ry
     estimated scf accuracy    <       0.00052524 Ry

     iteration # 14     ecut=    30.00 Ry     beta= 0.70
     Davidson diagonalization with overlap

---- Real-time Memory Report at c_bands before calling an iterative solver
           287 MiB given to the printing process from OS
             0 MiB allocation reported by mallinfo(arena+hblkhd)
         32253 MiB available memory on the node where the printing process lives
------------------
     ethr =  8.75E-07,  avg # of iterations =  1.0

     negative rho (up, down):  1.726E-01 0.000E+00

     total cpu time spent up to now is       13.9 secs

     total energy              =    -618.98578887 Ry
     estimated scf accuracy    <       0.00064050 Ry

     iteration # 15     ecut=    30.00 Ry     beta= 0.70
     Davidson diagonalization with overlap

---- Real-time Memory Report at c_bands before calling an iterative solver
           287 MiB given to the printing process from OS
             0 MiB allocation reported by mallinfo(arena+hblkhd)
         45275 MiB available memory on the node where the printing process lives
------------------
     ethr =  8.75E-07,  avg # of iterations =  1.0

     negative rho (up, down):  1.726E-01 0.000E+00

     total cpu time spent up to now is       15.5 secs

     total energy              =    -618.98578910 Ry
     estimated scf accuracy    <       0.00063173 Ry

     iteration # 16     ecut=    30.00 Ry     beta= 0.70
     Davidson diagonalization with overlap

---- Real-time Memory Report at c_bands before calling an iterative solver
           287 MiB given to the printing process from OS
             0 MiB allocation reported by mallinfo(arena+hblkhd)
         51502 MiB available memory on the node where the printing process lives
------------------
     ethr =  8.75E-07,  avg # of iterations =  1.0

     negative rho (up, down):  1.726E-01 0.000E+00

     total cpu time spent up to now is       16.1 secs

     total energy              =    -618.98578945 Ry
     estimated scf accuracy    <       0.00063224 Ry

     iteration # 17     ecut=    30.00 Ry     beta= 0.70
     Davidson diagonalization with overlap

---- Real-time Memory Report at c_bands before calling an iterative solver
           287 MiB given to the printing process from OS
             0 MiB allocation reported by mallinfo(arena+hblkhd)
         51504 MiB available memory on the node where the printing process lives
------------------
     ethr =  8.75E-07,  avg # of iterations =  1.0

     negative rho (up, down):  1.726E-01 0.000E+00

     total cpu time spent up to now is       16.6 secs

     total energy              =    -618.98578928 Ry
     estimated scf accuracy    <       0.00063361 Ry

     iteration # 18     ecut=    30.00 Ry     beta= 0.70
     Davidson diagonalization with overlap

---- Real-time Memory Report at c_bands before calling an iterative solver
           287 MiB given to the printing process from OS
             0 MiB allocation reported by mallinfo(arena+hblkhd)
         51507 MiB available memory on the node where the printing process lives
------------------
     ethr =  8.75E-07,  avg # of iterations =  1.0

     negative rho (up, down):  1.726E-01 0.000E+00

     total cpu time spent up to now is       17.2 secs

     total energy              =    -618.98578895 Ry
     estimated scf accuracy    <       0.00062954 Ry

     iteration # 19     ecut=    30.00 Ry     beta= 0.70
     Davidson diagonalization with overlap

---- Real-time Memory Report at c_bands before calling an iterative solver
           287 MiB given to the printing process from OS
             0 MiB allocation reported by mallinfo(arena+hblkhd)
         51508 MiB available memory on the node where the printing process lives
------------------
     ethr =  8.75E-07,  avg # of iterations =  1.0

     negative rho (up, down):  1.726E-01 0.000E+00

     total cpu time spent up to now is       17.8 secs

     total energy              =    -618.98578957 Ry
     estimated scf accuracy    <       0.00061298 Ry

     iteration # 20     ecut=    30.00 Ry     beta= 0.70
     Davidson diagonalization with overlap

---- Real-time Memory Report at c_bands before calling an iterative solver
           287 MiB given to the printing process from OS
             0 MiB allocation reported by mallinfo(arena+hblkhd)
         51508 MiB available memory on the node where the printing process lives
------------------
     ethr =  8.75E-07,  avg # of iterations =  1.0

     negative rho (up, down):  1.726E-01 0.000E+00

     total cpu time spent up to now is       18.3 secs

     total energy              =    -618.98578949 Ry
     estimated scf accuracy    <       0.00063060 Ry

     iteration # 21     ecut=    30.00 Ry     beta= 0.70
     Davidson diagonalization with overlap

---- Real-time Memory Report at c_bands before calling an iterative solver
           287 MiB given to the printing process from OS
             0 MiB allocation reported by mallinfo(arena+hblkhd)
         51342 MiB available memory on the node where the printing process lives
------------------
     ethr =  8.75E-07,  avg # of iterations =  1.0

     negative rho (up, down):  1.726E-01 0.000E+00

     total cpu time spent up to now is       18.9 secs

     total energy              =    -618.98578898 Ry
     estimated scf accuracy    <       0.00062776 Ry

     iteration # 22     ecut=    30.00 Ry     beta= 0.70
     Davidson diagonalization with overlap

---- Real-time Memory Report at c_bands before calling an iterative solver
           287 MiB given to the printing process from OS
             0 MiB allocation reported by mallinfo(arena+hblkhd)
         51318 MiB available memory on the node where the printing process lives
------------------
     ethr =  8.75E-07,  avg # of iterations =  1.0

     negative rho (up, down):  1.726E-01 0.000E+00

     total cpu time spent up to now is       19.4 secs

     total energy              =    -618.98577396 Ry
     estimated scf accuracy    <       0.00057843 Ry

     iteration # 23     ecut=    30.00 Ry     beta= 0.70
     Davidson diagonalization with overlap

---- Real-time Memory Report at c_bands before calling an iterative solver
           287 MiB given to the printing process from OS
             0 MiB allocation reported by mallinfo(arena+hblkhd)
         50931 MiB available memory on the node where the printing process lives
------------------
     ethr =  8.75E-07,  avg # of iterations =  1.0

     negative rho (up, down):  1.726E-01 0.000E+00

     total cpu time spent up to now is       19.9 secs

     total energy              =    -618.98579684 Ry
     estimated scf accuracy    <       0.00060861 Ry

     iteration # 24     ecut=    30.00 Ry     beta= 0.70
     Davidson diagonalization with overlap

---- Real-time Memory Report at c_bands before calling an iterative solver
           287 MiB given to the printing process from OS
             0 MiB allocation reported by mallinfo(arena+hblkhd)
         51510 MiB available memory on the node where the printing process lives
------------------
     ethr =  8.75E-07,  avg # of iterations =  1.0

     negative rho (up, down):  1.726E-01 0.000E+00

     total cpu time spent up to now is       20.5 secs

     total energy              =    -618.98579165 Ry
     estimated scf accuracy    <       0.00058047 Ry

     iteration # 25     ecut=    30.00 Ry     beta= 0.70
     Davidson diagonalization with overlap

---- Real-time Memory Report at c_bands before calling an iterative solver
           287 MiB given to the printing process from OS
             0 MiB allocation reported by mallinfo(arena+hblkhd)
         51509 MiB available memory on the node where the printing process lives
------------------
     ethr =  8.75E-07,  avg # of iterations =  1.0

     negative rho (up, down):  1.726E-01 0.000E+00

     total cpu time spent up to now is       21.0 secs

     total energy              =    -618.98579077 Ry
     estimated scf accuracy    <       0.00055754 Ry

     iteration # 26     ecut=    30.00 Ry     beta= 0.70
     Davidson diagonalization with overlap

---- Real-time Memory Report at c_bands before calling an iterative solver
           287 MiB given to the printing process from OS
             0 MiB allocation reported by mallinfo(arena+hblkhd)
         51511 MiB available memory on the node where the printing process lives
------------------
     ethr =  8.75E-07,  avg # of iterations =  1.0

     negative rho (up, down):  1.726E-01 0.000E+00

     total cpu time spent up to now is       21.5 secs

     total energy              =    -618.98578951 Ry
     estimated scf accuracy    <       0.00055278 Ry

     iteration # 27     ecut=    30.00 Ry     beta= 0.70
     Davidson diagonalization with overlap

---- Real-time Memory Report at c_bands before calling an iterative solver
           287 MiB given to the printing process from OS
             0 MiB allocation reported by mallinfo(arena+hblkhd)
         51510 MiB available memory on the node where the printing process lives
------------------
     ethr =  8.75E-07,  avg # of iterations =  1.0

     negative rho (up, down):  1.726E-01 0.000E+00

     total cpu time spent up to now is       22.0 secs

     total energy              =    -618.98578671 Ry
     estimated scf accuracy    <       0.00053673 Ry

     iteration # 28     ecut=    30.00 Ry     beta= 0.70
     Davidson diagonalization with overlap

---- Real-time Memory Report at c_bands before calling an iterative solver
           287 MiB given to the printing process from OS
             0 MiB allocation reported by mallinfo(arena+hblkhd)
         51414 MiB available memory on the node where the printing process lives
------------------
     ethr =  8.75E-07,  avg # of iterations =  1.0

     negative rho (up, down):  1.726E-01 0.000E+00

     total cpu time spent up to now is       22.5 secs

     total energy              =    -618.98579273 Ry
     estimated scf accuracy    <       0.00064033 Ry

     iteration # 29     ecut=    30.00 Ry     beta= 0.70
     Davidson diagonalization with overlap

---- Real-time Memory Report at c_bands before calling an iterative solver
           287 MiB given to the printing process from OS
             0 MiB allocation reported by mallinfo(arena+hblkhd)
         51319 MiB available memory on the node where the printing process lives
------------------
     ethr =  8.75E-07,  avg # of iterations =  1.0

     negative rho (up, down):  1.726E-01 0.000E+00

     total cpu time spent up to now is       23.0 secs

     total energy              =    -618.98579054 Ry
     estimated scf accuracy    <       0.00064753 Ry

     iteration # 30     ecut=    30.00 Ry     beta= 0.70
     Davidson diagonalization with overlap

---- Real-time Memory Report at c_bands before calling an iterative solver
           287 MiB given to the printing process from OS
             0 MiB allocation reported by mallinfo(arena+hblkhd)
         51274 MiB available memory on the node where the printing process lives
------------------
     ethr =  8.75E-07,  avg # of iterations =  1.0

     negative rho (up, down):  1.726E-01 0.000E+00

     total cpu time spent up to now is       23.5 secs

     total energy              =    -618.98579031 Ry
     estimated scf accuracy    <       0.00063631 Ry

     iteration # 31     ecut=    30.00 Ry     beta= 0.70
     Davidson diagonalization with overlap

---- Real-time Memory Report at c_bands before calling an iterative solver
           287 MiB given to the printing process from OS
             0 MiB allocation reported by mallinfo(arena+hblkhd)
         51294 MiB available memory on the node where the printing process lives
------------------
     ethr =  8.75E-07,  avg # of iterations =  1.0

     negative rho (up, down):  1.726E-01 0.000E+00

     total cpu time spent up to now is       24.1 secs

     total energy              =    -618.98578950 Ry
     estimated scf accuracy    <       0.00063439 Ry

     iteration # 32     ecut=    30.00 Ry     beta= 0.70
     Davidson diagonalization with overlap

---- Real-time Memory Report at c_bands before calling an iterative solver
           287 MiB given to the printing process from OS
             0 MiB allocation reported by mallinfo(arena+hblkhd)
         51513 MiB available memory on the node where the printing process lives
------------------
     ethr =  8.75E-07,  avg # of iterations =  1.0

     negative rho (up, down):  1.726E-01 0.000E+00

     total cpu time spent up to now is       24.6 secs

     total energy              =    -618.98578931 Ry
     estimated scf accuracy    <       0.00061523 Ry

     iteration # 33     ecut=    30.00 Ry     beta= 0.70
     Davidson diagonalization with overlap

---- Real-time Memory Report at c_bands before calling an iterative solver
           287 MiB given to the printing process from OS
             0 MiB allocation reported by mallinfo(arena+hblkhd)
         51514 MiB available memory on the node where the printing process lives
------------------
     ethr =  8.75E-07,  avg # of iterations =  1.0

     negative rho (up, down):  1.726E-01 0.000E+00

     total cpu time spent up to now is       25.1 secs

     total energy              =    -618.98578932 Ry
     estimated scf accuracy    <       0.00059080 Ry

     iteration # 34     ecut=    30.00 Ry     beta= 0.70
     Davidson diagonalization with overlap

---- Real-time Memory Report at c_bands before calling an iterative solver
           287 MiB given to the printing process from OS
             0 MiB allocation reported by mallinfo(arena+hblkhd)
         51516 MiB available memory on the node where the printing process lives
------------------
     ethr =  8.75E-07,  avg # of iterations =  1.0

     negative rho (up, down):  1.726E-01 0.000E+00

     total cpu time spent up to now is       25.6 secs

     total energy              =    -618.98578907 Ry
     estimated scf accuracy    <       0.00059068 Ry

     iteration # 35     ecut=    30.00 Ry     beta= 0.70
     Davidson diagonalization with overlap

---- Real-time Memory Report at c_bands before calling an iterative solver
           287 MiB given to the printing process from OS
             0 MiB allocation reported by mallinfo(arena+hblkhd)
         51514 MiB available memory on the node where the printing process lives
------------------
     ethr =  8.75E-07,  avg # of iterations =  1.0

     negative rho (up, down):  1.726E-01 0.000E+00

     total cpu time spent up to now is       26.1 secs

     total energy              =    -618.98578920 Ry
     estimated scf accuracy    <       0.00035844 Ry

     iteration # 36     ecut=    30.00 Ry     beta= 0.70
     Davidson diagonalization with overlap

---- Real-time Memory Report at c_bands before calling an iterative solver
           287 MiB given to the printing process from OS
             0 MiB allocation reported by mallinfo(arena+hblkhd)
         51419 MiB available memory on the node where the printing process lives
------------------
     ethr =  5.97E-07,  avg # of iterations =  1.0

     negative rho (up, down):  1.726E-01 0.000E+00

     total cpu time spent up to now is       26.6 secs

     total energy              =    -618.98578831 Ry
     estimated scf accuracy    <       0.00054720 Ry

     iteration # 37     ecut=    30.00 Ry     beta= 0.70
     Davidson diagonalization with overlap

---- Real-time Memory Report at c_bands before calling an iterative solver
           287 MiB given to the printing process from OS
             0 MiB allocation reported by mallinfo(arena+hblkhd)
         51324 MiB available memory on the node where the printing process lives
------------------
     ethr =  5.97E-07,  avg # of iterations =  1.0

     negative rho (up, down):  1.726E-01 0.000E+00

     total cpu time spent up to now is       27.1 secs

     total energy              =    -618.98578913 Ry
     estimated scf accuracy    <       0.00053634 Ry

     iteration # 38     ecut=    30.00 Ry     beta= 0.70
     Davidson diagonalization with overlap

---- Real-time Memory Report at c_bands before calling an iterative solver
           287 MiB given to the printing process from OS
             0 MiB allocation reported by mallinfo(arena+hblkhd)
         51191 MiB available memory on the node where the printing process lives
------------------
     ethr =  5.97E-07,  avg # of iterations =  1.0

     negative rho (up, down):  1.726E-01 0.000E+00

     total cpu time spent up to now is       27.6 secs

     total energy              =    -618.98578877 Ry
     estimated scf accuracy    <       0.00040497 Ry

     iteration # 39     ecut=    30.00 Ry     beta= 0.70
     Davidson diagonalization with overlap

---- Real-time Memory Report at c_bands before calling an iterative solver
           287 MiB given to the printing process from OS
             0 MiB allocation reported by mallinfo(arena+hblkhd)
         51516 MiB available memory on the node where the printing process lives
------------------
     ethr =  5.97E-07,  avg # of iterations =  1.0

     negative rho (up, down):  1.726E-01 0.000E+00

     total cpu time spent up to now is       28.1 secs

     total energy              =    -618.98578913 Ry
     estimated scf accuracy    <       0.00055730 Ry

     iteration # 40     ecut=    30.00 Ry     beta= 0.70
     Davidson diagonalization with overlap

---- Real-time Memory Report at c_bands before calling an iterative solver
           287 MiB given to the printing process from OS
             0 MiB allocation reported by mallinfo(arena+hblkhd)
         51516 MiB available memory on the node where the printing process lives
------------------
     ethr =  5.97E-07,  avg # of iterations =  1.0

     negative rho (up, down):  1.726E-01 0.000E+00

     total cpu time spent up to now is       28.6 secs

     total energy              =    -618.98578899 Ry
     estimated scf accuracy    <       0.00043712 Ry

     iteration # 41     ecut=    30.00 Ry     beta= 0.70
     Davidson diagonalization with overlap

---- Real-time Memory Report at c_bands before calling an iterative solver
           287 MiB given to the printing process from OS
             0 MiB allocation reported by mallinfo(arena+hblkhd)
         51516 MiB available memory on the node where the printing process lives
------------------
     ethr =  5.97E-07,  avg # of iterations =  1.0

     negative rho (up, down):  1.726E-01 0.000E+00

     total cpu time spent up to now is       29.1 secs

     total energy              =    -618.98578902 Ry
     estimated scf accuracy    <       0.00001592 Ry

     iteration # 42     ecut=    30.00 Ry     beta= 0.70
     Davidson diagonalization with overlap

---- Real-time Memory Report at c_bands before calling an iterative solver
           287 MiB given to the printing process from OS
             0 MiB allocation reported by mallinfo(arena+hblkhd)
         51518 MiB available memory on the node where the printing process lives
------------------
     ethr =  2.65E-08,  avg # of iterations =  1.0

     negative rho (up, down):  1.726E-01 0.000E+00

     total cpu time spent up to now is       29.6 secs

     total energy              =    -618.98578871 Ry
     estimated scf accuracy    <       0.00049881 Ry

     iteration # 43     ecut=    30.00 Ry     beta= 0.70
     Davidson diagonalization with overlap

---- Real-time Memory Report at c_bands before calling an iterative solver
           287 MiB given to the printing process from OS
             0 MiB allocation reported by mallinfo(arena+hblkhd)
         51518 MiB available memory on the node where the printing process lives
------------------
     ethr =  2.65E-08,  avg # of iterations =  1.0

     negative rho (up, down):  1.726E-01 0.000E+00

     total cpu time spent up to now is       30.1 secs

     total energy              =    -618.98578931 Ry
     estimated scf accuracy    <       0.00049439 Ry

     iteration # 44     ecut=    30.00 Ry     beta= 0.70
     Davidson diagonalization with overlap

---- Real-time Memory Report at c_bands before calling an iterative solver
           287 MiB given to the printing process from OS
             0 MiB allocation reported by mallinfo(arena+hblkhd)
         51422 MiB available memory on the node where the printing process lives
------------------
     ethr =  2.65E-08,  avg # of iterations =  1.0

     negative rho (up, down):  1.726E-01 0.000E+00

     total cpu time spent up to now is       30.6 secs

     total energy              =    -618.98578880 Ry
     estimated scf accuracy    <       0.00050302 Ry

     iteration # 45     ecut=    30.00 Ry     beta= 0.70
     Davidson diagonalization with overlap

---- Real-time Memory Report at c_bands before calling an iterative solver
           287 MiB given to the printing process from OS
             0 MiB allocation reported by mallinfo(arena+hblkhd)
         51330 MiB available memory on the node where the printing process lives
------------------
     ethr =  2.65E-08,  avg # of iterations =  1.0

     negative rho (up, down):  1.726E-01 0.000E+00

     total cpu time spent up to now is       31.1 secs

     total energy              =    -618.98578907 Ry
     estimated scf accuracy    <       0.00051153 Ry

     iteration # 46     ecut=    30.00 Ry     beta= 0.70
     Davidson diagonalization with overlap

---- Real-time Memory Report at c_bands before calling an iterative solver
           287 MiB given to the printing process from OS
             0 MiB allocation reported by mallinfo(arena+hblkhd)
         51208 MiB available memory on the node where the printing process lives
------------------
     ethr =  2.65E-08,  avg # of iterations =  1.0

     negative rho (up, down):  1.726E-01 0.000E+00

     total cpu time spent up to now is       31.6 secs

     total energy              =    -618.98578902 Ry
     estimated scf accuracy    <       0.00020201 Ry

     iteration # 47     ecut=    30.00 Ry     beta= 0.70
     Davidson diagonalization with overlap

---- Real-time Memory Report at c_bands before calling an iterative solver
           287 MiB given to the printing process from OS
             0 MiB allocation reported by mallinfo(arena+hblkhd)
         51519 MiB available memory on the node where the printing process lives
------------------
     ethr =  2.65E-08,  avg # of iterations =  1.0

     negative rho (up, down):  1.726E-01 0.000E+00

     total cpu time spent up to now is       32.1 secs

     total energy              =    -618.98578905 Ry
     estimated scf accuracy    <       0.00008633 Ry

     iteration # 48     ecut=    30.00 Ry     beta= 0.70
     Davidson diagonalization with overlap

---- Real-time Memory Report at c_bands before calling an iterative solver
           287 MiB given to the printing process from OS
             0 MiB allocation reported by mallinfo(arena+hblkhd)
         51520 MiB available memory on the node where the printing process lives
------------------
     ethr =  2.65E-08,  avg # of iterations =  1.0

     negative rho (up, down):  1.726E-01 0.000E+00

     total cpu time spent up to now is       32.6 secs

     End of self-consistent calculation

          k = 0.0000 0.0000 0.0000 (  5781 PWs)   bands (ev):

   -37.1008 -37.0923 -37.0815 -37.0730 -17.1322 -17.1280 -17.1090 -17.1090
   -17.0950 -17.0950 -17.0098 -17.0024 -16.9942 -16.9942 -16.9806 -16.9806
    -0.0693   1.2835   1.8998   4.3684   4.3945   4.3946   4.9088   5.2242
     5.2389   5.2389   5.2525   5.2525   5.3416   5.3416   5.7438   5.7438
     6.0778   6.2365   6.3390   6.3390   7.4520   7.7093   8.1325   8.1325
     8.6437   8.7176   8.7176   9.1424   9.2167   9.2167   9.5243   9.5243
     9.7638   9.7638   9.7902   9.9987  10.1498  10.1498  11.0623  11.0624
    11.5603  11.6394  11.6394  11.8809  11.8809  12.7959  13.1662  13.3922

     occupation numbers 
     1.0000   1.0000   1.0000   1.0000   1.0000   1.0000   1.0000   1.0000
     1.0000   1.0000   1.0000   1.0000   1.0000   1.0000   1.0000   1.0000
     1.0000   1.0000   1.0000   1.0000   1.0000   1.0000   1.0000   1.0000
     1.0000   1.0000   1.0000   1.0000   1.0000   1.0000   0.0000   0.0000
     0.0000   0.0000   0.0000   0.0000   0.0000   0.0000   0.0000   0.0000
     0.0000   0.0000   0.0000   0.0000   0.0000   0.0000   0.0000   0.0000
     0.0000   0.0000   0.0000   0.0000   0.0000   0.0000   0.0000   0.0000
     0.0000   0.0000   0.0000   0.0000   0.0000   0.0000   0.0000   0.0000

          k = 0.0000 0.0000 0.2053 (  5852 PWs)   bands (ev):

   -37.0993 -37.0953 -37.0785 -37.0745 -17.1312 -17.1290 -17.1057 -17.1057
   -17.0989 -17.0989 -17.0083 -17.0048 -16.9906 -16.9906 -16.9838 -16.9838
     0.1199   0.6615   2.7759   3.9904   4.5097   4.5097   4.8065   4.8319
     4.8319   4.9903   5.3421   5.3422   5.5887   5.5887   5.7938   5.7938
     5.8127   6.0599   6.1846   6.1846   7.9880   8.3309   8.4092   8.4092
     8.7630   8.9301   8.9301   8.9890   8.9890   9.1035   9.3399   9.3399
     9.6394   9.6394   9.9827   9.9827  10.0800  10.1805  11.2546  11.2546
    11.3528  11.5275  11.5275  11.8888  12.1066  12.2979  12.2979  13.1218

     occupation numbers 
     1.0000   1.0000   1.0000   1.0000   1.0000   1.0000   1.0000   1.0000
     1.0000   1.0000   1.0000   1.0000   1.0000   1.0000   1.0000   1.0000
     1.0000   1.0000   1.0000   1.0000   1.0000   1.0000   1.0000   1.0000
     1.0000   1.0000   1.0000   1.0000   1.0000   1.0000   0.0000   0.0000
     0.0000   0.0000   0.0000   0.0000   0.0000   0.0000   0.0000   0.0000
     0.0000   0.0000   0.0000   0.0000   0.0000   0.0000   0.0000   0.0000
     0.0000   0.0000   0.0000   0.0000   0.0000   0.0000   0.0000   0.0000
     0.0000   0.0000   0.0000   0.0000   0.0000   0.0000   0.0000   0.0000

          k = 0.0000 0.3849 0.0000 (  5839 PWs)   bands (ev):

   -37.0968 -37.0882 -37.0856 -37.0771 -17.1463 -17.1388 -17.1175 -17.1035
   -17.0887 -17.0740 -17.0356 -17.0061 -16.9926 -16.9861 -16.9725 -16.9723
     0.5724   1.7251   2.3816   2.5248   3.1409   4.2392   4.2676   4.3506
     4.5061   5.1259   5.5576   5.6936   5.7065   6.0653   6.0653   6.3690
     6.4275   6.5367   6.7497   6.9325   7.2438   7.4828   7.9056   8.0333
     8.3760   8.6630   8.6966   8.7457   9.2405   9.2571   9.3714   9.4760
     9.5976   9.8228  10.4342  10.5973  10.9874  11.0105  11.3143  11.4068
    11.7793  12.0393  12.0794  12.1627  12.3235  12.6847  12.8819  13.0333

     occupation numbers 
     1.0000   1.0000   1.0000   1.0000   1.0000   1.0000   1.0000   1.0000
     1.0000   1.0000   1.0000   1.0000   1.0000   1.0000   1.0000   1.0000
     1.0000   1.0000   1.0000   1.0000   1.0000   1.0000   1.0000   1.0000
     1.0000   1.0000   1.0000   1.0000   1.0000   1.0000   0.0000   0.0000
     0.0000   0.0000   0.0000   0.0000   0.0000   0.0000   0.0000   0.0000
     0.0000   0.0000   0.0000   0.0000   0.0000   0.0000   0.0000   0.0000
     0.0000   0.0000   0.0000   0.0000   0.0000   0.0000   0.0000   0.0000
     0.0000   0.0000   0.0000   0.0000   0.0000   0.0000   0.0000   0.0000

          k = 0.0000 0.3849 0.2053 (  5853 PWs)   bands (ev):

   -37.0955 -37.0920 -37.0819 -37.0784 -17.1432 -17.1392 -17.1143 -17.1073
   -17.0891 -17.0822 -17.0253 -17.0113 -16.9874 -16.9823 -16.9772 -16.9755
     0.7465   1.2341   2.5030   2.8764   3.2751   4.0896   4.3779   4.3966
     4.4765   4.8525   5.1356   5.7590   5.8458   5.9949   6.1203   6.2639
     6.4378   6.5297   6.5921   6.7291   7.8210   7.8495   7.9342   8.0697
     8.1030   8.4517   8.6543   8.9683   9.1391   9.2799   9.7548   9.8296
     9.9069  10.1350  10.1656  10.5287  10.5537  10.7822  11.4916  11.5659
    11.6758  12.0070  12.0604  12.2015  12.3042  12.3888  12.4602  12.8804

     occupation numbers 
     1.0000   1.0000   1.0000   1.0000   1.0000   1.0000   1.0000   1.0000
     1.0000   1.0000   1.0000   1.0000   1.0000   1.0000   1.0000   1.0000
     1.0000   1.0000   1.0000   1.0000   1.0000   1.0000   1.0000   1.0000
     1.0000   1.0000   1.0000   1.0000   1.0000   1.0000   0.0000   0.0000
     0.0000   0.0000   0.0000   0.0000   0.0000   0.0000   0.0000   0.0000
     0.0000   0.0000   0.0000   0.0000   0.0000   0.0000   0.0000   0.0000
     0.0000   0.0000   0.0000   0.0000   0.0000   0.0000   0.0000   0.0000
     0.0000   0.0000   0.0000   0.0000   0.0000   0.0000   0.0000   0.0000

          k = 0.3333 0.5774 0.0000 (  5880 PWs)   bands (ev):

   -37.0912 -37.0912 -37.0827 -37.0826 -17.1454 -17.1454 -17.1265 -17.1122
   -17.0638 -17.0638 -17.0371 -17.0371 -16.9809 -16.9809 -16.9784 -16.9648
     1.3723   2.0095   2.0096   2.3354   3.1135   3.2751   3.2751   4.2569
     4.2570   5.8826   6.0836   6.0836   6.1429   6.2344   6.2345   6.2461
     6.4332   6.4333   6.4782   6.7292   7.4457   7.4457   7.6881   7.6881
     8.2524   8.4053   8.9436   9.1196   9.1197   9.1487   9.1487   9.3697
    10.4701  10.4815  10.4815  10.7113  10.9624  10.9624  11.3883  11.3883
    11.6545  11.8712  12.1221  12.1222  12.5279  12.5279  12.9677  13.7676

     occupation numbers 
     1.0000   1.0000   1.0000   1.0000   1.0000   1.0000   1.0000   1.0000
     1.0000   1.0000   1.0000   1.0000   1.0000   1.0000   1.0000   1.0000
     1.0000   1.0000   1.0000   1.0000   1.0000   1.0000   1.0000   1.0000
     1.0000   1.0000   1.0000   1.0000   1.0000   1.0000   0.0000   0.0000
     0.0000   0.0000   0.0000   0.0000   0.0000   0.0000   0.0000   0.0000
     0.0000   0.0000   0.0000   0.0000   0.0000   0.0000   0.0000   0.0000
     0.0000   0.0000   0.0000   0.0000   0.0000   0.0000   0.0000   0.0000
     0.0000   0.0000   0.0000   0.0000   0.0000   0.0000   0.0000   0.0000

          k = 0.3333 0.5774 0.2053 (  5877 PWs)   bands (ev):

   -37.0912 -37.0912 -37.0827 -37.0826 -17.1435 -17.1435 -17.1232 -17.1161
   -17.0723 -17.0723 -17.0278 -17.0278 -16.9835 -16.9835 -16.9747 -16.9680
     1.5142   1.9194   2.1291   2.1291   2.9195   2.9195   3.7711   4.7469
     4.7469   4.8753   5.7985   5.7986   6.1725   6.1725   6.2009   6.2623
     6.3712   6.3712   6.8524   7.3187   7.3801   7.3801   7.5856   7.7835
     7.7835   8.5249   8.9566   8.9566   9.1836   9.4221   9.7983   9.7983
    10.4088  10.5329  10.5329  10.8410  10.8504  10.8504  11.3079  11.5326
    11.5326  11.8893  11.8893  12.4612  12.4612  12.4954  12.7335  12.9142

     occupation numbers 
     1.0000   1.0000   1.0000   1.0000   1.0000   1.0000   1.0000   1.0000
     1.0000   1.0000   1.0000   1.0000   1.0000   1.0000   1.0000   1.0000
     1.0000   1.0000   1.0000   1.0000   1.0000   1.0000   1.0000   1.0000
     1.0000   1.0000   1.0000   1.0000   1.0000   1.0000   0.0000   0.0000
     0.0000   0.0000   0.0000   0.0000   0.0000   0.0000   0.0000   0.0000
     0.0000   0.0000   0.0000   0.0000   0.0000   0.0000   0.0000   0.0000
     0.0000   0.0000   0.0000   0.0000   0.0000   0.0000   0.0000   0.0000
     0.0000   0.0000   0.0000   0.0000   0.0000   0.0000   0.0000   0.0000

     highest occupied, lowest unoccupied level (ev):     6.2344    5.7438

!    total energy              =    -618.98578880 Ry
     estimated scf accuracy    <       0.00000054 Ry

     The total energy is the sum of the following terms:
     one-electron contribution =    -139.62171420 Ry
     hartree contribution      =      81.37926353 Ry
     xc contribution           =    -100.36614757 Ry
     ewald contribution        =    -209.91693863 Ry
     one-center paw contrib.   =    -250.46025194 Ry
      -> PAW hartree energy AE =       0.00000000 Ry
      -> PAW hartree energy PS =       0.00000000 Ry
      -> PAW xc energy AE      =       0.00000000 Ry
      -> PAW xc energy PS      =       0.00000000 Ry
      -> total E_H with PAW    =      81.37926353 Ry
      -> total E_XC with PAW   =    -100.36614757 Ry

     convergence has been achieved in  48 iterations

     Writing all to output data dir calculations_bands/myprefix.save/
 
     init_run     :      6.49s CPU      2.01s WALL (       1 calls)
     electrons    :    108.99s CPU     30.48s WALL (       1 calls)

     Called by init_run:
     wfcinit      :      1.10s CPU      0.31s WALL (       1 calls)
     wfcinit:atom :      0.01s CPU      0.00s WALL (       3 calls)
     wfcinit:wfcr :      1.02s CPU      0.29s WALL (       3 calls)
     potinit      :      1.89s CPU      0.50s WALL (       1 calls)
     hinit0       :      2.86s CPU      1.02s WALL (       1 calls)

     Called by electrons:
     c_bands      :     59.10s CPU     16.04s WALL (      49 calls)
     sum_band     :     23.38s CPU      6.90s WALL (      49 calls)
     v_of_rho     :      5.37s CPU      1.42s WALL (      49 calls)
     v_h          :      0.35s CPU      0.09s WALL (      49 calls)
     v_xc         :      5.02s CPU      1.33s WALL (      49 calls)
     newd         :     12.20s CPU      3.71s WALL (      49 calls)
     PAW_pot      :      6.31s CPU      1.67s WALL (      49 calls)
     mix_rho      :      1.47s CPU      0.38s WALL (      49 calls)

     Called by c_bands:
     init_us_2    :      0.57s CPU      0.16s WALL (     297 calls)
     init_us_2:cp :      0.56s CPU      0.16s WALL (     297 calls)
     cegterg      :     54.60s CPU     14.84s WALL (     147 calls)

     Called by sum_band:
     sum_band:wei :      0.06s CPU      0.02s WALL (      49 calls)
     sum_band:loo :     13.00s CPU      3.59s WALL (      49 calls)
     sum_band:buf :      0.16s CPU      0.04s WALL (     147 calls)
     sum_band:ini :      0.30s CPU      0.08s WALL (     147 calls)
     sum_band:cal :      0.58s CPU      0.15s WALL (     147 calls)
     sum_band:bec :      0.07s CPU      0.02s WALL (     147 calls)
     addusdens    :      6.16s CPU      2.20s WALL (      49 calls)
     addusd:skk   :      0.09s CPU      0.04s WALL (      98 calls)
     addusd:dgemm :      0.88s CPU      0.74s WALL (      98 calls)
     addusd:qvan2 :      3.30s CPU      0.83s WALL (      98 calls)

     Called by *egterg:
     cdiaghg      :      5.63s CPU      1.50s WALL (     341 calls)
     cegterg:over :      1.63s CPU      0.43s WALL (     197 calls)
     cegterg:upda :      0.93s CPU      0.25s WALL (     197 calls)
     cegterg:last :      0.97s CPU      0.25s WALL (     163 calls)
     cdiaghg:chol :      0.45s CPU      0.12s WALL (     341 calls)
     cdiaghg:inve :      0.08s CPU      0.02s WALL (     341 calls)
     cdiaghg:para :      0.88s CPU      0.24s WALL (     682 calls)
     h_psi        :     44.20s CPU     12.08s WALL (     347 calls)
     s_psi        :      0.81s CPU      0.21s WALL (     347 calls)
     g_psi        :      0.07s CPU      0.02s WALL (     197 calls)

     Called by h_psi:
     h_psi:calbec :      1.36s CPU      0.36s WALL (     347 calls)
     vloc_psi     :     41.67s CPU     11.41s WALL (     347 calls)
     add_vuspsi   :      1.04s CPU      0.27s WALL (     347 calls)

     General routines
     calbec       :      1.92s CPU      0.51s WALL (     494 calls)
     fft          :      5.12s CPU      1.43s WALL (     636 calls)
     ffts         :      1.54s CPU      0.42s WALL (      98 calls)
     fftw         :     47.04s CPU     12.93s WALL (   48394 calls)
     interpolate  :      1.73s CPU      0.46s WALL (      49 calls)
 
     Parallel routines

     PAW routines
     PAW_pot      :      6.31s CPU      1.67s WALL (      49 calls)
     PAW_symme    :      0.09s CPU      0.02s WALL (      98 calls)
 
     PWSCF        :   1m56.24s CPU     34.37s WALL

 
   This run was terminated on:  13:22:28   4Jun2023            

=------------------------------------------------------------------------------=
   JOB DONE.
=------------------------------------------------------------------------------=
