
     Program PWSCF v.7.0 starts on  6Jun2023 at 10:54: 5 

     This program is part of the open-source Quantum ESPRESSO suite
     for quantum simulation of materials; please cite
         "P. Giannozzi et al., J. Phys.:Condens. Matter 21 395502 (2009);
         "P. Giannozzi et al., J. Phys.:Condens. Matter 29 465901 (2017);
         "P. Giannozzi et al., J. Chem. Phys. 152 154105 (2020);
          URL http://www.quantum-espresso.org", 
     in publications or presentations arising from this work. More details at
     http://www.quantum-espresso.org/quote

     Parallel version (MPI & OpenMP), running on      32 processor cores
     Number of MPI processes:                 8
     Threads/MPI process:                     4

     MPI processes distributed on     1 nodes
     K-points division:     npool     =       2
     R & G space division:  proc/nbgrp/npool/nimage =       4
     46787 MiB available memory on the printing compute node when the environment starts
 
     Reading input from espresso_16367.pwi
Warning: card &CELL ignored
Warning: card / ignored

     Current dimensions of program PWSCF are:
     Max number of different atomic species (ntypx) = 10
     Max number of k-points (npk) =  40000
     Max angular momentum in pseudopotentials (lmaxx) =  4
     Message from routine setup:
     using ibrav=0 with symmetry is DISCOURAGED, use correct ibrav instead

     Subspace diagonalization in iterative solution of the eigenvalue problem:
     one sub-group per band group will be used
     scalapack distributed-memory algorithm (size of sub-group:  2*  2 procs)

 
     Parallelization info
     --------------------
     sticks:   dense  smooth     PW     G-vecs:    dense   smooth      PW
     Min         521     262     82                 9140     3219     573
     Max         522     263     83                 9141     3220     574
     Sum        2085    1049    331                36563    12879    2293
 
     Using Slab Decomposition
 


     bravais-lattice index     =            0
     lattice parameter (alat)  =      11.6025  a.u.
     unit-cell volume          =     580.8803 (a.u.)^3
     number of atoms/cell      =            5
     number of atomic types    =            3
     number of electrons       =        76.00
     number of Kohn-Sham states=           64
     kinetic-energy cutoff     =      30.0000  Ry
     charge density cutoff     =     240.0000  Ry
     scf convergence threshold =      1.0E-06
     mixing beta               =       0.7000
     number of iterations used =            8  plain     mixing
     Exchange-correlation=  SLA  PW   PBX  PBC
                           (   1   4   3   4   0   0   0)

     celldm(1)=  11.602508  celldm(2)=   0.000000  celldm(3)=   0.000000
     celldm(4)=   0.000000  celldm(5)=   0.000000  celldm(6)=   0.000000

     crystal axes: (cart. coord. in units of alat)
               a(1) = (   1.000000   0.000000   0.000000 )  
               a(2) = (   0.581815   0.813321   0.000000 )  
               a(3) = (  -0.790908  -0.406661   0.457266 )  

     reciprocal axes: (cart. coord. in units 2 pi/alat)
               b(1) = (  1.000000 -0.715357  1.093455 )  
               b(2) = (  0.000000  1.229527  1.093455 )  
               b(3) = (  0.000000  0.000000  2.186910 )  


     PseudoPot. # 1 for Gd read from file:
     /home/pragov/projects/rrg-bengioy-ad/pragov/crystal_structure_design/SSSP/Gd.GGA-PBE-paw-v1.0.UPF
     MD5 check sum: 3e8e0d208da550914ae52eaf991d13de
     Pseudo is Projector augmented-wave + core cor, Zval = 18.0
     Generated using ATOMPAW code
     Shape of augmentation charge: BESSEL
     Using radial grid of 1110 points,  8 beta functions with: 
                l(1) =   0
                l(2) =   0
                l(3) =   1
                l(4) =   1
                l(5) =   2
                l(6) =   2
                l(7) =   3
                l(8) =   3
     Q(r) pseudized with 0 coefficients 


     PseudoPot. # 2 for Mn read from file:
     /home/pragov/projects/rrg-bengioy-ad/pragov/crystal_structure_design/SSSP/mn_pbe_v1.5.uspp.F.UPF
     MD5 check sum: 82ef2b46521d7a7d9e736dc3972e4928
     Pseudo is Ultrasoft + core correction, Zval = 15.0
     Generated by new atomic code, or converted to UPF format
     Using radial grid of  859 points,  6 beta functions with: 
                l(1) =   0
                l(2) =   0
                l(3) =   1
                l(4) =   1
                l(5) =   2
                l(6) =   2
     Q(r) pseudized with  8 coefficients,  rinner =    0.950   0.950   0.950
                                                       0.950   0.950

     PseudoPot. # 3 for Ge read from file:
     /home/pragov/projects/rrg-bengioy-ad/pragov/crystal_structure_design/SSSP/ge_pbe_v1.4.uspp.F.UPF
     MD5 check sum: 9c9eaa91e581c3f09632fb3098b2c6b2
     Pseudo is Ultrasoft + core correction, Zval = 14.0
     Generated by new atomic code, or converted to UPF format
     Using radial grid of  873 points,  6 beta functions with: 
                l(1) =   0
                l(2) =   0
                l(3) =   1
                l(4) =   1
                l(5) =   2
                l(6) =   2
     Q(r) pseudized with  8 coefficients,  rinner =    1.400   1.400   1.400
                                                       1.400   1.400

     atomic species   valence    mass     pseudopotential
        Gd            18.00   157.25000     Gd( 1.00)
        Mn            15.00    54.93804     Mn( 1.00)
        Ge            14.00    72.63000     Ge( 1.00)

      4 Sym. Ops., with inversion, found


                                    s                        frac. trans.

      isym =  1     identity                                     

 cryst.   s( 1) = (     1          0          0      )
                  (     0          1          0      )
                  (     0          0          1      )

 cart.    s( 1) = (  1.0000000 -0.0000000 -0.0000000 )
                  (  0.0000000  1.0000000 -0.0000000 )
                  (  0.0000000  0.0000000  1.0000000 )


      isym =  2     180 deg rotation - cart. axis [0,0,1]        

 cryst.   s( 2) = (    -1          0          0      )
                  (     0         -1          0      )
                  (     1          1          1      )

 cart.    s( 2) = ( -1.0000000  0.0000000  0.0000000 )
                  (  0.0000000 -1.0000000  0.0000000 )
                  (  0.0000000  0.0000000  1.0000000 )


      isym =  3     inversion                                    

 cryst.   s( 3) = (    -1          0          0      )
                  (     0         -1          0      )
                  (     0          0         -1      )

 cart.    s( 3) = ( -1.0000000  0.0000000  0.0000000 )
                  (  0.0000000 -1.0000000  0.0000000 )
                  (  0.0000000  0.0000000 -1.0000000 )


      isym =  4     inv. 180 deg rotation - cart. axis [0,0,1]   

 cryst.   s( 4) = (     1          0          0      )
                  (     0          1          0      )
                  (    -1         -1         -1      )

 cart.    s( 4) = (  1.0000000 -0.0000000 -0.0000000 )
                  (  0.0000000  1.0000000 -0.0000000 )
                  (  0.0000000  0.0000000 -1.0000000 )


   Cartesian axes

     site n.     atom                  positions (alat units)
         1           Gd  tau(   1) = (   0.0000000   0.0000000   0.0000000  )
         2           Mn  tau(   2) = (   0.5000000   0.0000000   0.2286331  )
         3           Mn  tau(   3) = (   0.2909076   0.4066605   0.2286331  )
         4           Ge  tau(   4) = (   0.9815195   0.5046673   0.0000000  )
         5           Ge  tau(   5) = (   0.6002957   0.3086537   0.0000000  )

   Crystallographic axes

     site n.     atom                  positions (cryst. coord.)
         1           Gd  tau(   1) = (  0.0000000  0.0000000  0.0000000  )
         2           Mn  tau(   2) = (  0.7500000  0.2500000  0.5000000  )
         3           Mn  tau(   3) = (  0.2500000  0.7500000  0.5000000  )
         4           Ge  tau(   4) = (  0.6205020  0.6205020  0.0000000  )
         5           Ge  tau(   5) = (  0.3794980  0.3794980  0.0000000  )

     number of k points=    10
                       cart. coord. in units 2pi/alat
        k(    1) = (   0.0000000   0.0000000   0.0000000), wk =   0.0740741
        k(    2) = (   0.0000000   0.0000000   0.7289700), wk =   0.1481481
        k(    3) = (   0.0000000   0.4098423   0.3644850), wk =   0.2962963
        k(    4) = (   0.0000000   0.4098423   1.0934549), wk =   0.1481481
        k(    5) = (   0.3333333  -0.2384525   0.3644850), wk =   0.2962963
        k(    6) = (   0.3333333  -0.2384525   1.0934549), wk =   0.1481481
        k(    7) = (   0.3333333   0.1713898   0.7289700), wk =   0.2962963
        k(    8) = (   0.3333333   0.1713898  -0.0000000), wk =   0.1481481
        k(    9) = (   0.3333333  -0.6482948   0.0000000), wk =   0.1481481
        k(   10) = (   0.3333333  -0.6482948   0.7289700), wk =   0.2962963

                       cryst. coord.
        k(    1) = (   0.0000000   0.0000000   0.0000000), wk =   0.0740741
        k(    2) = (   0.0000000   0.0000000   0.3333333), wk =   0.1481481
        k(    3) = (   0.0000000   0.3333333   0.0000000), wk =   0.2962963
        k(    4) = (   0.0000000   0.3333333   0.3333333), wk =   0.1481481
        k(    5) = (   0.3333333  -0.0000000  -0.0000000), wk =   0.2962963
        k(    6) = (   0.3333333  -0.0000000   0.3333333), wk =   0.1481481
        k(    7) = (   0.3333333   0.3333333   0.0000000), wk =   0.2962963
        k(    8) = (   0.3333333   0.3333333  -0.3333333), wk =   0.1481481
        k(    9) = (   0.3333333  -0.3333333  -0.0000000), wk =   0.1481481
        k(   10) = (   0.3333333  -0.3333333   0.3333333), wk =   0.2962963

     Dense  grid:    36563 G-vectors     FFT dimensions: (  60,  60,  60)

     Smooth grid:    12879 G-vectors     FFT dimensions: (  45,  45,  45)

     Dynamical RAM for                 wfc:       0.39 MB

     Dynamical RAM for     wfc (w. buffer):       2.36 MB

     Dynamical RAM for           str. fact:       0.42 MB

     Dynamical RAM for           local pot:       0.00 MB

     Dynamical RAM for          nlocal pot:       0.64 MB

     Dynamical RAM for                qrad:       8.96 MB

     Dynamical RAM for          rho,v,vnew:       1.65 MB

     Dynamical RAM for               rhoin:       0.55 MB

     Dynamical RAM for            rho*nmix:       2.23 MB

     Dynamical RAM for           G-vectors:       0.55 MB

     Dynamical RAM for          h,s,v(r/c):       0.19 MB

     Dynamical RAM for          <psi|beta>:       0.10 MB

     Dynamical RAM for                 psi:       0.79 MB

     Dynamical RAM for                hpsi:       0.79 MB

     Dynamical RAM for                spsi:       0.79 MB

     Dynamical RAM for      wfcinit/wfcrot:       1.07 MB

     Dynamical RAM for           addusdens:      38.91 MB

     Estimated static dynamical RAM per process >      17.75 MB

     Estimated max dynamical RAM per process >      58.89 MB

     Estimated total dynamical RAM >     462.20 MB

     Check: negative core charge=   -0.000018

     Initial potential from superposition of free atoms

     starting charge      74.9929, renormalised to      76.0000
     Starting wfcs are   76 randomized atomic wfcs
     Checking if some PAW data can be deallocated... 
       PAW data deallocated on    6 nodes for type:  1

     total cpu time spent up to now is        4.1 secs

     Self-consistent Calculation

     iteration #  1     ecut=    30.00 Ry     beta= 0.70
     Davidson diagonalization with overlap

---- Real-time Memory Report at c_bands before calling an iterative solver
           199 MiB given to the printing process from OS
             0 MiB allocation reported by mallinfo(arena+hblkhd)
         46386 MiB available memory on the node where the printing process lives
------------------
     ethr =  1.00E-02,  avg # of iterations =  5.1

     total cpu time spent up to now is        6.6 secs

     total energy              =   -1520.47985098 Ry
     estimated scf accuracy    <      12.36424165 Ry

     iteration #  2     ecut=    30.00 Ry     beta= 0.70
     Davidson diagonalization with overlap

---- Real-time Memory Report at c_bands before calling an iterative solver
           220 MiB given to the printing process from OS
             0 MiB allocation reported by mallinfo(arena+hblkhd)
         46207 MiB available memory on the node where the printing process lives
------------------
     ethr =  1.00E-02,  avg # of iterations =  3.1

     total cpu time spent up to now is        8.0 secs

     total energy              =   -1530.88447568 Ry
     estimated scf accuracy    <     277.76779285 Ry

     iteration #  3     ecut=    30.00 Ry     beta= 0.70
     Davidson diagonalization with overlap

---- Real-time Memory Report at c_bands before calling an iterative solver
           224 MiB given to the printing process from OS
             0 MiB allocation reported by mallinfo(arena+hblkhd)
         46171 MiB available memory on the node where the printing process lives
------------------
     ethr =  1.00E-02,  avg # of iterations =  3.8

     total cpu time spent up to now is        9.4 secs

     total energy              =   -1535.38593035 Ry
     estimated scf accuracy    <      58.13080860 Ry

     iteration #  4     ecut=    30.00 Ry     beta= 0.70
     Davidson diagonalization with overlap

---- Real-time Memory Report at c_bands before calling an iterative solver
           225 MiB given to the printing process from OS
             0 MiB allocation reported by mallinfo(arena+hblkhd)
         46171 MiB available memory on the node where the printing process lives
------------------
     ethr =  1.00E-02,  avg # of iterations =  1.5

     total cpu time spent up to now is       10.3 secs

     total energy              =   -1533.63319296 Ry
     estimated scf accuracy    <      39.65429658 Ry

     iteration #  5     ecut=    30.00 Ry     beta= 0.70
     Davidson diagonalization with overlap

---- Real-time Memory Report at c_bands before calling an iterative solver
           225 MiB given to the printing process from OS
             0 MiB allocation reported by mallinfo(arena+hblkhd)
         46172 MiB available memory on the node where the printing process lives
------------------
     ethr =  1.00E-02,  avg # of iterations =  1.0

     total cpu time spent up to now is       11.1 secs

     total energy              =   -1531.53903651 Ry
     estimated scf accuracy    <      16.61324368 Ry

     iteration #  6     ecut=    30.00 Ry     beta= 0.70
     Davidson diagonalization with overlap

---- Real-time Memory Report at c_bands before calling an iterative solver
           225 MiB given to the printing process from OS
             0 MiB allocation reported by mallinfo(arena+hblkhd)
         46171 MiB available memory on the node where the printing process lives
------------------
     ethr =  1.00E-02,  avg # of iterations =  1.5

     total cpu time spent up to now is       12.2 secs

     total energy              =   -1531.54623832 Ry
     estimated scf accuracy    <      49.10086466 Ry

     iteration #  7     ecut=    30.00 Ry     beta= 0.70
     Davidson diagonalization with overlap

---- Real-time Memory Report at c_bands before calling an iterative solver
           226 MiB given to the printing process from OS
             0 MiB allocation reported by mallinfo(arena+hblkhd)
         46171 MiB available memory on the node where the printing process lives
------------------
     ethr =  1.00E-02,  avg # of iterations =  1.5

     total cpu time spent up to now is       13.6 secs

     total energy              =   -1531.13824935 Ry
     estimated scf accuracy    <      37.39616342 Ry

     iteration #  8     ecut=    30.00 Ry     beta= 0.70
     Davidson diagonalization with overlap

---- Real-time Memory Report at c_bands before calling an iterative solver
           226 MiB given to the printing process from OS
             0 MiB allocation reported by mallinfo(arena+hblkhd)
         46169 MiB available memory on the node where the printing process lives
------------------
     ethr =  1.00E-02,  avg # of iterations =  1.0

     total cpu time spent up to now is       14.8 secs

     total energy              =   -1532.22858384 Ry
     estimated scf accuracy    <      46.50075787 Ry

     iteration #  9     ecut=    30.00 Ry     beta= 0.70
     Davidson diagonalization with overlap

---- Real-time Memory Report at c_bands before calling an iterative solver
           226 MiB given to the printing process from OS
             0 MiB allocation reported by mallinfo(arena+hblkhd)
         46175 MiB available memory on the node where the printing process lives
------------------
     ethr =  1.00E-02,  avg # of iterations =  1.0

     total cpu time spent up to now is       15.7 secs

     total energy              =   -1533.24478063 Ry
     estimated scf accuracy    <      14.31568910 Ry

     iteration # 10     ecut=    30.00 Ry     beta= 0.70
     Davidson diagonalization with overlap

---- Real-time Memory Report at c_bands before calling an iterative solver
           226 MiB given to the printing process from OS
             0 MiB allocation reported by mallinfo(arena+hblkhd)
         46178 MiB available memory on the node where the printing process lives
------------------
     ethr =  1.00E-02,  avg # of iterations =  1.0

     total cpu time spent up to now is       16.8 secs

     total energy              =   -1533.26525769 Ry
     estimated scf accuracy    <       8.06906501 Ry

     iteration # 11     ecut=    30.00 Ry     beta= 0.70
     Davidson diagonalization with overlap

---- Real-time Memory Report at c_bands before calling an iterative solver
           226 MiB given to the printing process from OS
             0 MiB allocation reported by mallinfo(arena+hblkhd)
         46179 MiB available memory on the node where the printing process lives
------------------
     ethr =  1.00E-02,  avg # of iterations =  1.0

     total cpu time spent up to now is       17.6 secs

     total energy              =   -1532.75036589 Ry
     estimated scf accuracy    <       8.39068187 Ry

     iteration # 12     ecut=    30.00 Ry     beta= 0.70
     Davidson diagonalization with overlap

---- Real-time Memory Report at c_bands before calling an iterative solver
           226 MiB given to the printing process from OS
             0 MiB allocation reported by mallinfo(arena+hblkhd)
         46179 MiB available memory on the node where the printing process lives
------------------
     ethr =  1.00E-02,  avg # of iterations =  1.0

     total cpu time spent up to now is       18.4 secs

     total energy              =   -1533.27870208 Ry
     estimated scf accuracy    <      34.00681634 Ry

     iteration # 13     ecut=    30.00 Ry     beta= 0.70
     Davidson diagonalization with overlap

---- Real-time Memory Report at c_bands before calling an iterative solver
           226 MiB given to the printing process from OS
             0 MiB allocation reported by mallinfo(arena+hblkhd)
         46180 MiB available memory on the node where the printing process lives
------------------
     ethr =  1.00E-02,  avg # of iterations =  1.0

     total cpu time spent up to now is       19.2 secs

     total energy              =   -1533.40139567 Ry
     estimated scf accuracy    <      14.82280666 Ry

     iteration # 14     ecut=    30.00 Ry     beta= 0.70
     Davidson diagonalization with overlap

---- Real-time Memory Report at c_bands before calling an iterative solver
           226 MiB given to the printing process from OS
             0 MiB allocation reported by mallinfo(arena+hblkhd)
         46181 MiB available memory on the node where the printing process lives
------------------
     ethr =  1.00E-02,  avg # of iterations =  1.0

     total cpu time spent up to now is       20.1 secs

     total energy              =   -1533.39199910 Ry
     estimated scf accuracy    <      17.36046281 Ry

     iteration # 15     ecut=    30.00 Ry     beta= 0.70
     Davidson diagonalization with overlap

---- Real-time Memory Report at c_bands before calling an iterative solver
           226 MiB given to the printing process from OS
             0 MiB allocation reported by mallinfo(arena+hblkhd)
         46173 MiB available memory on the node where the printing process lives
------------------
     ethr =  1.00E-02,  avg # of iterations =  1.0

     total cpu time spent up to now is       21.2 secs

     total energy              =   -1533.47505672 Ry
     estimated scf accuracy    <      17.09177070 Ry

     iteration # 16     ecut=    30.00 Ry     beta= 0.70
     Davidson diagonalization with overlap

---- Real-time Memory Report at c_bands before calling an iterative solver
           227 MiB given to the printing process from OS
             0 MiB allocation reported by mallinfo(arena+hblkhd)
         46171 MiB available memory on the node where the printing process lives
------------------
     ethr =  1.00E-02,  avg # of iterations =  1.0

     total cpu time spent up to now is       22.5 secs

     total energy              =   -1533.20270330 Ry
     estimated scf accuracy    <      18.49775573 Ry

     iteration # 17     ecut=    30.00 Ry     beta= 0.70
     Davidson diagonalization with overlap

---- Real-time Memory Report at c_bands before calling an iterative solver
           227 MiB given to the printing process from OS
             0 MiB allocation reported by mallinfo(arena+hblkhd)
         46171 MiB available memory on the node where the printing process lives
------------------
     ethr =  1.00E-02,  avg # of iterations =  1.0

     total cpu time spent up to now is       23.4 secs

     total energy              =   -1533.03959114 Ry
     estimated scf accuracy    <       5.51572370 Ry

     iteration # 18     ecut=    30.00 Ry     beta= 0.70
     Davidson diagonalization with overlap

---- Real-time Memory Report at c_bands before calling an iterative solver
           227 MiB given to the printing process from OS
             0 MiB allocation reported by mallinfo(arena+hblkhd)
         46173 MiB available memory on the node where the printing process lives
------------------
     ethr =  7.26E-03,  avg # of iterations =  1.0

     total cpu time spent up to now is       24.2 secs

     total energy              =   -1533.11892838 Ry
     estimated scf accuracy    <      11.12091676 Ry

     iteration # 19     ecut=    30.00 Ry     beta= 0.70
     Davidson diagonalization with overlap

---- Real-time Memory Report at c_bands before calling an iterative solver
           227 MiB given to the printing process from OS
             0 MiB allocation reported by mallinfo(arena+hblkhd)
         46173 MiB available memory on the node where the printing process lives
------------------
     ethr =  7.26E-03,  avg # of iterations =  1.0

     total cpu time spent up to now is       25.1 secs

     total energy              =   -1533.19988750 Ry
     estimated scf accuracy    <       0.28423359 Ry

     iteration # 20     ecut=    30.00 Ry     beta= 0.70
     Davidson diagonalization with overlap

---- Real-time Memory Report at c_bands before calling an iterative solver
           227 MiB given to the printing process from OS
             0 MiB allocation reported by mallinfo(arena+hblkhd)
         46177 MiB available memory on the node where the printing process lives
------------------
     ethr =  3.74E-04,  avg # of iterations =  1.0

     total cpu time spent up to now is       25.9 secs

     total energy              =   -1533.19089134 Ry
     estimated scf accuracy    <       3.87179171 Ry

     iteration # 21     ecut=    30.00 Ry     beta= 0.70
     Davidson diagonalization with overlap

---- Real-time Memory Report at c_bands before calling an iterative solver
           227 MiB given to the printing process from OS
             0 MiB allocation reported by mallinfo(arena+hblkhd)
         46176 MiB available memory on the node where the printing process lives
------------------
     ethr =  3.74E-04,  avg # of iterations =  1.0

     total cpu time spent up to now is       26.8 secs

     total energy              =   -1533.14481009 Ry
     estimated scf accuracy    <       2.39869858 Ry

     iteration # 22     ecut=    30.00 Ry     beta= 0.70
     Davidson diagonalization with overlap

---- Real-time Memory Report at c_bands before calling an iterative solver
           227 MiB given to the printing process from OS
             0 MiB allocation reported by mallinfo(arena+hblkhd)
         46207 MiB available memory on the node where the printing process lives
------------------
     ethr =  3.74E-04,  avg # of iterations =  1.0

     total cpu time spent up to now is       27.6 secs

     total energy              =   -1533.17846582 Ry
     estimated scf accuracy    <       0.22577653 Ry

     iteration # 23     ecut=    30.00 Ry     beta= 0.70
     Davidson diagonalization with overlap

---- Real-time Memory Report at c_bands before calling an iterative solver
           227 MiB given to the printing process from OS
             0 MiB allocation reported by mallinfo(arena+hblkhd)
         46180 MiB available memory on the node where the printing process lives
------------------
     ethr =  2.97E-04,  avg # of iterations =  1.0

     total cpu time spent up to now is       28.5 secs

     total energy              =   -1533.17602265 Ry
     estimated scf accuracy    <       0.92371454 Ry

     iteration # 24     ecut=    30.00 Ry     beta= 0.70
     Davidson diagonalization with overlap

---- Real-time Memory Report at c_bands before calling an iterative solver
           227 MiB given to the printing process from OS
             0 MiB allocation reported by mallinfo(arena+hblkhd)
         46180 MiB available memory on the node where the printing process lives
------------------
     ethr =  2.97E-04,  avg # of iterations =  1.0

     total cpu time spent up to now is       29.4 secs

     total energy              =   -1533.17422924 Ry
     estimated scf accuracy    <       0.23630292 Ry

     iteration # 25     ecut=    30.00 Ry     beta= 0.70
     Davidson diagonalization with overlap

---- Real-time Memory Report at c_bands before calling an iterative solver
           227 MiB given to the printing process from OS
             0 MiB allocation reported by mallinfo(arena+hblkhd)
         46183 MiB available memory on the node where the printing process lives
------------------
     ethr =  2.97E-04,  avg # of iterations =  1.0

     total cpu time spent up to now is       30.2 secs

     total energy              =   -1533.17205493 Ry
     estimated scf accuracy    <       0.14224700 Ry

     iteration # 26     ecut=    30.00 Ry     beta= 0.70
     Davidson diagonalization with overlap

---- Real-time Memory Report at c_bands before calling an iterative solver
           227 MiB given to the printing process from OS
             0 MiB allocation reported by mallinfo(arena+hblkhd)
         46182 MiB available memory on the node where the printing process lives
------------------
     ethr =  1.87E-04,  avg # of iterations =  1.1

     total cpu time spent up to now is       31.0 secs

     total energy              =   -1533.17967514 Ry
     estimated scf accuracy    <       0.04204403 Ry

     iteration # 27     ecut=    30.00 Ry     beta= 0.70
     Davidson diagonalization with overlap

---- Real-time Memory Report at c_bands before calling an iterative solver
           227 MiB given to the printing process from OS
             0 MiB allocation reported by mallinfo(arena+hblkhd)
         46182 MiB available memory on the node where the printing process lives
------------------
     ethr =  5.53E-05,  avg # of iterations =  1.2

     total cpu time spent up to now is       31.8 secs

     total energy              =   -1533.17907139 Ry
     estimated scf accuracy    <       0.04619136 Ry

     iteration # 28     ecut=    30.00 Ry     beta= 0.70
     Davidson diagonalization with overlap

---- Real-time Memory Report at c_bands before calling an iterative solver
           227 MiB given to the printing process from OS
             0 MiB allocation reported by mallinfo(arena+hblkhd)
         46186 MiB available memory on the node where the printing process lives
------------------
     ethr =  5.53E-05,  avg # of iterations =  1.4

     total cpu time spent up to now is       32.8 secs

     total energy              =   -1533.18017405 Ry
     estimated scf accuracy    <       0.02012999 Ry

     iteration # 29     ecut=    30.00 Ry     beta= 0.70
     Davidson diagonalization with overlap

---- Real-time Memory Report at c_bands before calling an iterative solver
           227 MiB given to the printing process from OS
             0 MiB allocation reported by mallinfo(arena+hblkhd)
         46182 MiB available memory on the node where the printing process lives
------------------
     ethr =  2.65E-05,  avg # of iterations =  2.2

     total cpu time spent up to now is       34.5 secs

     total energy              =   -1533.18138139 Ry
     estimated scf accuracy    <       0.00922650 Ry

     iteration # 30     ecut=    30.00 Ry     beta= 0.70
     Davidson diagonalization with overlap

---- Real-time Memory Report at c_bands before calling an iterative solver
           227 MiB given to the printing process from OS
             0 MiB allocation reported by mallinfo(arena+hblkhd)
         46183 MiB available memory on the node where the printing process lives
------------------
     ethr =  1.21E-05,  avg # of iterations =  3.4

     total cpu time spent up to now is       36.3 secs

     total energy              =   -1533.18252805 Ry
     estimated scf accuracy    <       0.00694730 Ry

     iteration # 31     ecut=    30.00 Ry     beta= 0.70
     Davidson diagonalization with overlap

---- Real-time Memory Report at c_bands before calling an iterative solver
           227 MiB given to the printing process from OS
             0 MiB allocation reported by mallinfo(arena+hblkhd)
         46182 MiB available memory on the node where the printing process lives
------------------
     ethr =  9.14E-06,  avg # of iterations =  1.0

     total cpu time spent up to now is       37.4 secs

     total energy              =   -1533.18251087 Ry
     estimated scf accuracy    <       0.00288750 Ry

     iteration # 32     ecut=    30.00 Ry     beta= 0.70
     Davidson diagonalization with overlap

---- Real-time Memory Report at c_bands before calling an iterative solver
           227 MiB given to the printing process from OS
             0 MiB allocation reported by mallinfo(arena+hblkhd)
         46184 MiB available memory on the node where the printing process lives
------------------
     ethr =  3.80E-06,  avg # of iterations =  1.1

     total cpu time spent up to now is       38.9 secs

     total energy              =   -1533.18229791 Ry
     estimated scf accuracy    <       0.00627189 Ry

     iteration # 33     ecut=    30.00 Ry     beta= 0.70
     Davidson diagonalization with overlap

---- Real-time Memory Report at c_bands before calling an iterative solver
           227 MiB given to the printing process from OS
             0 MiB allocation reported by mallinfo(arena+hblkhd)
         46184 MiB available memory on the node where the printing process lives
------------------
     ethr =  3.80E-06,  avg # of iterations =  1.0

     total cpu time spent up to now is       39.7 secs

     total energy              =   -1533.18123928 Ry
     estimated scf accuracy    <       0.00971329 Ry

     iteration # 34     ecut=    30.00 Ry     beta= 0.70
     Davidson diagonalization with overlap

---- Real-time Memory Report at c_bands before calling an iterative solver
           227 MiB given to the printing process from OS
             0 MiB allocation reported by mallinfo(arena+hblkhd)
         46186 MiB available memory on the node where the printing process lives
------------------
     ethr =  3.80E-06,  avg # of iterations =  1.1

     total cpu time spent up to now is       40.6 secs

     total energy              =   -1533.18045427 Ry
     estimated scf accuracy    <       0.03585714 Ry

     iteration # 35     ecut=    30.00 Ry     beta= 0.70
     Davidson diagonalization with overlap

---- Real-time Memory Report at c_bands before calling an iterative solver
           227 MiB given to the printing process from OS
             0 MiB allocation reported by mallinfo(arena+hblkhd)
         46187 MiB available memory on the node where the printing process lives
------------------
     ethr =  3.80E-06,  avg # of iterations =  1.0

     total cpu time spent up to now is       41.4 secs

     total energy              =   -1533.18316526 Ry
     estimated scf accuracy    <       0.00439820 Ry

     iteration # 36     ecut=    30.00 Ry     beta= 0.70
     Davidson diagonalization with overlap

---- Real-time Memory Report at c_bands before calling an iterative solver
           227 MiB given to the printing process from OS
             0 MiB allocation reported by mallinfo(arena+hblkhd)
         46202 MiB available memory on the node where the printing process lives
------------------
     ethr =  3.80E-06,  avg # of iterations =  1.0

     total cpu time spent up to now is       42.3 secs

     total energy              =   -1533.18306494 Ry
     estimated scf accuracy    <       0.00416636 Ry

     iteration # 37     ecut=    30.00 Ry     beta= 0.70
     Davidson diagonalization with overlap

---- Real-time Memory Report at c_bands before calling an iterative solver
           227 MiB given to the printing process from OS
             0 MiB allocation reported by mallinfo(arena+hblkhd)
         46187 MiB available memory on the node where the printing process lives
------------------
     ethr =  3.80E-06,  avg # of iterations =  1.0

     total cpu time spent up to now is       43.1 secs

     total energy              =   -1533.18322424 Ry
     estimated scf accuracy    <       0.00431941 Ry

     iteration # 38     ecut=    30.00 Ry     beta= 0.70
     Davidson diagonalization with overlap

---- Real-time Memory Report at c_bands before calling an iterative solver
           227 MiB given to the printing process from OS
             0 MiB allocation reported by mallinfo(arena+hblkhd)
         46186 MiB available memory on the node where the printing process lives
------------------
     ethr =  3.80E-06,  avg # of iterations =  1.0

     total cpu time spent up to now is       43.9 secs

     total energy              =   -1533.18356395 Ry
     estimated scf accuracy    <       0.00259505 Ry

     iteration # 39     ecut=    30.00 Ry     beta= 0.70
     Davidson diagonalization with overlap

---- Real-time Memory Report at c_bands before calling an iterative solver
           227 MiB given to the printing process from OS
             0 MiB allocation reported by mallinfo(arena+hblkhd)
         46191 MiB available memory on the node where the printing process lives
------------------
     ethr =  3.41E-06,  avg # of iterations =  1.0

     total cpu time spent up to now is       44.6 secs

     total energy              =   -1533.18267609 Ry
     estimated scf accuracy    <       0.00889334 Ry

     iteration # 40     ecut=    30.00 Ry     beta= 0.70
     Davidson diagonalization with overlap

---- Real-time Memory Report at c_bands before calling an iterative solver
           227 MiB given to the printing process from OS
             0 MiB allocation reported by mallinfo(arena+hblkhd)
         46188 MiB available memory on the node where the printing process lives
------------------
     ethr =  3.41E-06,  avg # of iterations =  1.0

     total cpu time spent up to now is       45.4 secs

     total energy              =   -1533.18419501 Ry
     estimated scf accuracy    <       0.00212001 Ry

     iteration # 41     ecut=    30.00 Ry     beta= 0.70
     Davidson diagonalization with overlap

---- Real-time Memory Report at c_bands before calling an iterative solver
           227 MiB given to the printing process from OS
             0 MiB allocation reported by mallinfo(arena+hblkhd)
         46190 MiB available memory on the node where the printing process lives
------------------
     ethr =  2.79E-06,  avg # of iterations =  1.0

     total cpu time spent up to now is       46.1 secs

     total energy              =   -1533.18518170 Ry
     estimated scf accuracy    <       0.00075811 Ry

     iteration # 42     ecut=    30.00 Ry     beta= 0.70
     Davidson diagonalization with overlap

---- Real-time Memory Report at c_bands before calling an iterative solver
           227 MiB given to the printing process from OS
             0 MiB allocation reported by mallinfo(arena+hblkhd)
         46188 MiB available memory on the node where the printing process lives
------------------
     ethr =  9.98E-07,  avg # of iterations =  1.0

     total cpu time spent up to now is       46.9 secs

     total energy              =   -1533.18538529 Ry
     estimated scf accuracy    <       0.00448026 Ry

     iteration # 43     ecut=    30.00 Ry     beta= 0.70
     Davidson diagonalization with overlap

---- Real-time Memory Report at c_bands before calling an iterative solver
           227 MiB given to the printing process from OS
             0 MiB allocation reported by mallinfo(arena+hblkhd)
         46191 MiB available memory on the node where the printing process lives
------------------
     ethr =  9.98E-07,  avg # of iterations =  1.0

     total cpu time spent up to now is       47.6 secs

     total energy              =   -1533.18656069 Ry
     estimated scf accuracy    <       0.00106355 Ry

     iteration # 44     ecut=    30.00 Ry     beta= 0.70
     Davidson diagonalization with overlap

---- Real-time Memory Report at c_bands before calling an iterative solver
           227 MiB given to the printing process from OS
             0 MiB allocation reported by mallinfo(arena+hblkhd)
         46192 MiB available memory on the node where the printing process lives
------------------
     ethr =  9.98E-07,  avg # of iterations =  1.0

     total cpu time spent up to now is       48.4 secs

     total energy              =   -1533.18722750 Ry
     estimated scf accuracy    <       0.00072835 Ry

     iteration # 45     ecut=    30.00 Ry     beta= 0.70
     Davidson diagonalization with overlap

---- Real-time Memory Report at c_bands before calling an iterative solver
           227 MiB given to the printing process from OS
             0 MiB allocation reported by mallinfo(arena+hblkhd)
         46194 MiB available memory on the node where the printing process lives
------------------
     ethr =  9.58E-07,  avg # of iterations =  1.0

     total cpu time spent up to now is       49.1 secs

     total energy              =   -1533.18675566 Ry
     estimated scf accuracy    <       0.00275500 Ry

     iteration # 46     ecut=    30.00 Ry     beta= 0.70
     Davidson diagonalization with overlap

---- Real-time Memory Report at c_bands before calling an iterative solver
           227 MiB given to the printing process from OS
             0 MiB allocation reported by mallinfo(arena+hblkhd)
         46191 MiB available memory on the node where the printing process lives
------------------
     ethr =  9.58E-07,  avg # of iterations =  1.0

     total cpu time spent up to now is       49.9 secs

     total energy              =   -1533.18734657 Ry
     estimated scf accuracy    <       0.00058768 Ry

     iteration # 47     ecut=    30.00 Ry     beta= 0.70
     Davidson diagonalization with overlap

---- Real-time Memory Report at c_bands before calling an iterative solver
           227 MiB given to the printing process from OS
             0 MiB allocation reported by mallinfo(arena+hblkhd)
         46193 MiB available memory on the node where the printing process lives
------------------
     ethr =  7.73E-07,  avg # of iterations =  1.0

     total cpu time spent up to now is       50.6 secs

     total energy              =   -1533.18771516 Ry
     estimated scf accuracy    <       0.00007581 Ry

     iteration # 48     ecut=    30.00 Ry     beta= 0.70
     Davidson diagonalization with overlap

---- Real-time Memory Report at c_bands before calling an iterative solver
           227 MiB given to the printing process from OS
             0 MiB allocation reported by mallinfo(arena+hblkhd)
         46192 MiB available memory on the node where the printing process lives
------------------
     ethr =  9.98E-08,  avg # of iterations =  1.3

     total cpu time spent up to now is       51.4 secs

     total energy              =   -1533.18765712 Ry
     estimated scf accuracy    <       0.00027012 Ry

     iteration # 49     ecut=    30.00 Ry     beta= 0.70
     Davidson diagonalization with overlap

---- Real-time Memory Report at c_bands before calling an iterative solver
           227 MiB given to the printing process from OS
             0 MiB allocation reported by mallinfo(arena+hblkhd)
         46197 MiB available memory on the node where the printing process lives
------------------
     ethr =  9.98E-08,  avg # of iterations =  1.0

     total cpu time spent up to now is       52.4 secs

     total energy              =   -1533.18773849 Ry
     estimated scf accuracy    <       0.00009972 Ry

     iteration # 50     ecut=    30.00 Ry     beta= 0.70
     Davidson diagonalization with overlap

---- Real-time Memory Report at c_bands before calling an iterative solver
           227 MiB given to the printing process from OS
             0 MiB allocation reported by mallinfo(arena+hblkhd)
         46190 MiB available memory on the node where the printing process lives
------------------
     ethr =  9.98E-08,  avg # of iterations =  1.0

     total cpu time spent up to now is       53.4 secs

     total energy              =   -1533.18774753 Ry
     estimated scf accuracy    <       0.00008019 Ry

     iteration # 51     ecut=    30.00 Ry     beta= 0.70
     Davidson diagonalization with overlap

---- Real-time Memory Report at c_bands before calling an iterative solver
           227 MiB given to the printing process from OS
             0 MiB allocation reported by mallinfo(arena+hblkhd)
         46188 MiB available memory on the node where the printing process lives
------------------
     ethr =  9.98E-08,  avg # of iterations =  1.0

     total cpu time spent up to now is       54.2 secs

     total energy              =   -1533.18777264 Ry
     estimated scf accuracy    <       0.00004655 Ry

     iteration # 52     ecut=    30.00 Ry     beta= 0.70
     Davidson diagonalization with overlap

---- Real-time Memory Report at c_bands before calling an iterative solver
           227 MiB given to the printing process from OS
             0 MiB allocation reported by mallinfo(arena+hblkhd)
         46188 MiB available memory on the node where the printing process lives
------------------
     ethr =  6.13E-08,  avg # of iterations =  1.0

     total cpu time spent up to now is       55.0 secs

     total energy              =   -1533.18777938 Ry
     estimated scf accuracy    <       0.00005320 Ry

     iteration # 53     ecut=    30.00 Ry     beta= 0.70
     Davidson diagonalization with overlap

---- Real-time Memory Report at c_bands before calling an iterative solver
           227 MiB given to the printing process from OS
             0 MiB allocation reported by mallinfo(arena+hblkhd)
         46190 MiB available memory on the node where the printing process lives
------------------
     ethr =  6.13E-08,  avg # of iterations =  1.0

     total cpu time spent up to now is       55.8 secs

     total energy              =   -1533.18779226 Ry
     estimated scf accuracy    <       0.00007940 Ry

     iteration # 54     ecut=    30.00 Ry     beta= 0.70
     Davidson diagonalization with overlap

---- Real-time Memory Report at c_bands before calling an iterative solver
           227 MiB given to the printing process from OS
             0 MiB allocation reported by mallinfo(arena+hblkhd)
         46191 MiB available memory on the node where the printing process lives
------------------
     ethr =  6.13E-08,  avg # of iterations =  1.0

     total cpu time spent up to now is       56.6 secs

     total energy              =   -1533.18781035 Ry
     estimated scf accuracy    <       0.00001569 Ry

     iteration # 55     ecut=    30.00 Ry     beta= 0.70
     Davidson diagonalization with overlap

---- Real-time Memory Report at c_bands before calling an iterative solver
           227 MiB given to the printing process from OS
             0 MiB allocation reported by mallinfo(arena+hblkhd)
         46194 MiB available memory on the node where the printing process lives
------------------
     ethr =  2.06E-08,  avg # of iterations =  1.0

     total cpu time spent up to now is       57.7 secs

     total energy              =   -1533.18782071 Ry
     estimated scf accuracy    <       0.00003895 Ry

     iteration # 56     ecut=    30.00 Ry     beta= 0.70
     Davidson diagonalization with overlap

---- Real-time Memory Report at c_bands before calling an iterative solver
           227 MiB given to the printing process from OS
             0 MiB allocation reported by mallinfo(arena+hblkhd)
         46193 MiB available memory on the node where the printing process lives
------------------
     ethr =  2.06E-08,  avg # of iterations =  1.0

     total cpu time spent up to now is       58.7 secs

     total energy              =   -1533.18780177 Ry
     estimated scf accuracy    <       0.00001292 Ry

     iteration # 57     ecut=    30.00 Ry     beta= 0.70
     Davidson diagonalization with overlap

---- Real-time Memory Report at c_bands before calling an iterative solver
           227 MiB given to the printing process from OS
             0 MiB allocation reported by mallinfo(arena+hblkhd)
         46195 MiB available memory on the node where the printing process lives
------------------
     ethr =  1.70E-08,  avg # of iterations =  2.0

     total cpu time spent up to now is       59.5 secs

     total energy              =   -1533.18785480 Ry
     estimated scf accuracy    <       0.00001135 Ry

     iteration # 58     ecut=    30.00 Ry     beta= 0.70
     Davidson diagonalization with overlap

---- Real-time Memory Report at c_bands before calling an iterative solver
           227 MiB given to the printing process from OS
             0 MiB allocation reported by mallinfo(arena+hblkhd)
         46193 MiB available memory on the node where the printing process lives
------------------
     ethr =  1.49E-08,  avg # of iterations =  1.0

     total cpu time spent up to now is       60.2 secs

     total energy              =   -1533.18781934 Ry
     estimated scf accuracy    <       0.00000451 Ry

     iteration # 59     ecut=    30.00 Ry     beta= 0.70
     Davidson diagonalization with overlap

---- Real-time Memory Report at c_bands before calling an iterative solver
           227 MiB given to the printing process from OS
             0 MiB allocation reported by mallinfo(arena+hblkhd)
         46194 MiB available memory on the node where the printing process lives
------------------
     ethr =  5.93E-09,  avg # of iterations =  2.0

     total cpu time spent up to now is       61.0 secs

     total energy              =   -1533.18786755 Ry
     estimated scf accuracy    <       0.00000898 Ry

     iteration # 60     ecut=    30.00 Ry     beta= 0.70
     Davidson diagonalization with overlap

---- Real-time Memory Report at c_bands before calling an iterative solver
           227 MiB given to the printing process from OS
             0 MiB allocation reported by mallinfo(arena+hblkhd)
         46193 MiB available memory on the node where the printing process lives
------------------
     ethr =  5.93E-09,  avg # of iterations =  1.1

     total cpu time spent up to now is       61.8 secs

     total energy              =   -1533.18787048 Ry
     estimated scf accuracy    <       0.00000685 Ry

     iteration # 61     ecut=    30.00 Ry     beta= 0.70
     Davidson diagonalization with overlap

---- Real-time Memory Report at c_bands before calling an iterative solver
           227 MiB given to the printing process from OS
             0 MiB allocation reported by mallinfo(arena+hblkhd)
         46196 MiB available memory on the node where the printing process lives
------------------
     ethr =  5.93E-09,  avg # of iterations =  1.0

     total cpu time spent up to now is       62.5 secs

     End of self-consistent calculation

          k = 0.0000 0.0000 0.0000 (  1629 PWs)   bands (ev):

   -64.7337 -64.7114 -33.5394 -33.5279 -33.4486 -33.4432 -33.4212 -33.4182
   -27.9605  -9.9079  -9.8751  -9.8744  -9.8214  -9.8207  -9.8204  -9.8153
    -9.8097  -9.7956  -9.7808  -5.9298  -5.9250  -5.8960   3.4029   6.7394
     8.9710  11.7512  11.7558  12.0392  12.3760  13.1871  13.1904  13.5725
    13.6802  13.9368  13.9745  14.1193  14.2381  14.2779  14.3228  14.3433
    14.4848  14.4913  14.5015  14.7548  15.4357  17.2124  17.2209  18.1823
    18.3264  19.5252  20.4617  20.5573  20.5699  20.5773  21.3537  24.6695
    24.9217  24.9227  24.9273  25.7974  25.8004  27.1847  27.1856  27.4854

     occupation numbers 
     1.0000   1.0000   1.0000   1.0000   1.0000   1.0000   1.0000   1.0000
     1.0000   1.0000   1.0000   1.0000   1.0000   1.0000   1.0000   1.0000
     1.0000   1.0000   1.0000   1.0000   1.0000   1.0000   1.0000   1.0000
     1.0000   1.0000   1.0000   1.0000   1.0000   1.0000   1.0000   1.0000
     1.0000   1.0000   1.0000   1.0000   1.0000   1.0000   0.0000   0.0000
     0.0000   0.0000   0.0000   0.0000   0.0000   0.0000   0.0000   0.0000
     0.0000   0.0000   0.0000   0.0000   0.0000   0.0000   0.0000   0.0000
     0.0000   0.0000   0.0000   0.0000   0.0000   0.0000   0.0000   0.0000

          k = 0.0000 0.0000 0.7290 (  1609 PWs)   bands (ev):

   -64.7251 -64.7191 -33.5304 -33.5220 -33.4529 -33.4430 -33.4262 -33.4102
   -27.9485  -9.9121  -9.8806  -9.8745  -9.8266  -9.8155  -9.8069  -9.8057
    -9.8019  -9.8001  -9.7718  -6.0864  -6.0494  -5.8619   4.6799   6.7747
     9.5949  10.5290  11.0976  11.9386  12.6699  12.7486  12.8382  13.1041
    13.3121  13.8689  13.9505  14.0377  14.0386  14.0686  14.2051  14.3178
    14.3435  14.3618  14.4347  14.5753  15.4236  15.7747  17.8564  18.6546
    18.9807  19.4727  19.7282  19.9455  20.4009  23.5308  23.7163  24.4509
    24.9964  25.1942  25.5868  26.4359  26.4699  27.2781  28.0015  30.1111

     occupation numbers 
     1.0000   1.0000   1.0000   1.0000   1.0000   1.0000   1.0000   1.0000
     1.0000   1.0000   1.0000   1.0000   1.0000   1.0000   1.0000   1.0000
     1.0000   1.0000   1.0000   1.0000   1.0000   1.0000   1.0000   1.0000
     1.0000   1.0000   1.0000   1.0000   1.0000   1.0000   1.0000   1.0000
     1.0000   1.0000   1.0000   1.0000   1.0000   1.0000   0.0000   0.0000
     0.0000   0.0000   0.0000   0.0000   0.0000   0.0000   0.0000   0.0000
     0.0000   0.0000   0.0000   0.0000   0.0000   0.0000   0.0000   0.0000
     0.0000   0.0000   0.0000   0.0000   0.0000   0.0000   0.0000   0.0000

          k = 0.0000 0.4098 0.3645 (  1604 PWs)   bands (ev):

   -64.7277 -64.7164 -33.5107 -33.4995 -33.4626 -33.4580 -33.4271 -33.4211
   -27.9544  -9.9115  -9.8716  -9.8695  -9.8196  -9.8183  -9.8138  -9.8083
    -9.8073  -9.7947  -9.7754  -6.1160  -5.9031  -5.8812   4.4060   6.2912
    10.0362  10.2824  11.7263  11.8799  12.3424  12.6744  12.8908  13.4869
    13.8688  13.8784  13.9418  13.9663  14.0529  14.1427  14.2194  14.2486
    14.3266  14.3720  14.4724  15.0302  15.2883  16.6524  17.7601  17.8753
    18.8062  19.4229  19.6114  20.8616  20.8846  22.4891  22.9220  23.4596
    23.7926  24.4939  25.0892  25.5918  27.0868  27.4705  28.9699  29.6870

     occupation numbers 
     1.0000   1.0000   1.0000   1.0000   1.0000   1.0000   1.0000   1.0000
     1.0000   1.0000   1.0000   1.0000   1.0000   1.0000   1.0000   1.0000
     1.0000   1.0000   1.0000   1.0000   1.0000   1.0000   1.0000   1.0000
     1.0000   1.0000   1.0000   1.0000   1.0000   1.0000   1.0000   1.0000
     1.0000   1.0000   1.0000   1.0000   1.0000   1.0000   0.0000   0.0000
     0.0000   0.0000   0.0000   0.0000   0.0000   0.0000   0.0000   0.0000
     0.0000   0.0000   0.0000   0.0000   0.0000   0.0000   0.0000   0.0000
     0.0000   0.0000   0.0000   0.0000   0.0000   0.0000   0.0000   0.0000

          k = 0.0000 0.4098 1.0935 (  1616 PWs)   bands (ev):

   -64.7250 -64.7195 -33.5455 -33.5102 -33.4512 -33.4370 -33.4274 -33.4221
   -27.9485  -9.9119  -9.8849  -9.8760  -9.8232  -9.8206  -9.8079  -9.8044
    -9.8026  -9.7999  -9.7749  -6.0684  -6.0672  -5.8645   4.8644   6.3176
    10.4051  10.5412  11.0434  11.8993  12.0475  12.5809  12.9031  13.0084
    13.2446  13.9473  13.9558  13.9812  14.0563  14.1196  14.2772  14.3198
    14.3545  14.3685  14.6124  14.8718  15.6788  16.0780  16.4869  18.4454
    18.6876  19.9914  20.2957  20.7308  20.7889  22.2414  22.4649  23.8175
    24.9620  25.2666  25.9220  26.4461  27.4785  28.8073  29.3520  30.5352

     occupation numbers 
     1.0000   1.0000   1.0000   1.0000   1.0000   1.0000   1.0000   1.0000
     1.0000   1.0000   1.0000   1.0000   1.0000   1.0000   1.0000   1.0000
     1.0000   1.0000   1.0000   1.0000   1.0000   1.0000   1.0000   1.0000
     1.0000   1.0000   1.0000   1.0000   1.0000   1.0000   1.0000   1.0000
     1.0000   1.0000   1.0000   1.0000   1.0000   1.0000   0.0000   0.0000
     0.0000   0.0000   0.0000   0.0000   0.0000   0.0000   0.0000   0.0000
     0.0000   0.0000   0.0000   0.0000   0.0000   0.0000   0.0000   0.0000
     0.0000   0.0000   0.0000   0.0000   0.0000   0.0000   0.0000   0.0000

          k = 0.3333-0.2385 0.3645 (  1604 PWs)   bands (ev):

   -64.7277 -64.7164 -33.5107 -33.5001 -33.4627 -33.4564 -33.4287 -33.4205
   -27.9544  -9.9115  -9.8716  -9.8695  -9.8197  -9.8183  -9.8138  -9.8083
    -9.8072  -9.7947  -9.7754  -6.1156  -5.9030  -5.8816   4.4063   6.2908
    10.0355  10.2832  11.7256  11.8830  12.3445  12.6750  12.8911  13.4584
    13.8345  13.8755  13.9704  14.0295  14.0999  14.1334  14.2020  14.2783
    14.3167  14.3627  14.3890  15.0508  15.2819  16.6577  17.7660  17.8761
    18.8024  19.4240  19.6132  20.8621  20.8817  22.4865  22.9231  23.4589
    23.7923  24.4954  25.0913  25.5857  27.0865  27.4736  28.9677  29.6883

     occupation numbers 
     1.0000   1.0000   1.0000   1.0000   1.0000   1.0000   1.0000   1.0000
     1.0000   1.0000   1.0000   1.0000   1.0000   1.0000   1.0000   1.0000
     1.0000   1.0000   1.0000   1.0000   1.0000   1.0000   1.0000   1.0000
     1.0000   1.0000   1.0000   1.0000   1.0000   1.0000   1.0000   1.0000
     1.0000   1.0000   1.0000   1.0000   1.0000   1.0000   0.0000   0.0000
     0.0000   0.0000   0.0000   0.0000   0.0000   0.0000   0.0000   0.0000
     0.0000   0.0000   0.0000   0.0000   0.0000   0.0000   0.0000   0.0000
     0.0000   0.0000   0.0000   0.0000   0.0000   0.0000   0.0000   0.0000

          k = 0.3333-0.2385 1.0935 (  1616 PWs)   bands (ev):

   -64.7250 -64.7195 -33.5455 -33.5097 -33.4499 -33.4375 -33.4274 -33.4235
   -27.9485  -9.9119  -9.8850  -9.8760  -9.8232  -9.8206  -9.8079  -9.8044
    -9.8026  -9.7999  -9.7749  -6.0684  -6.0668  -5.8650   4.8647   6.3170
    10.4052  10.5420  11.0451  11.9004  12.0466  12.5856  12.8932  13.0065
    13.2404  13.9459  13.9817  14.0267  14.0768  14.1093  14.2325  14.3005
    14.3005  14.3756  14.6305  14.8859  15.6825  16.0820  16.4879  18.4458
    18.6901  19.9930  20.2872  20.7275  20.7933  22.2416  22.4690  23.8173
    24.9599  25.2649  25.9199  26.4452  27.4788  28.8096  29.3505  30.5384

     occupation numbers 
     1.0000   1.0000   1.0000   1.0000   1.0000   1.0000   1.0000   1.0000
     1.0000   1.0000   1.0000   1.0000   1.0000   1.0000   1.0000   1.0000
     1.0000   1.0000   1.0000   1.0000   1.0000   1.0000   1.0000   1.0000
     1.0000   1.0000   1.0000   1.0000   1.0000   1.0000   1.0000   1.0000
     1.0000   1.0000   1.0000   1.0000   1.0000   1.0000   0.0000   0.0000
     0.0000   0.0000   0.0000   0.0000   0.0000   0.0000   0.0000   0.0000
     0.0000   0.0000   0.0000   0.0000   0.0000   0.0000   0.0000   0.0000
     0.0000   0.0000   0.0000   0.0000   0.0000   0.0000   0.0000   0.0000

          k = 0.3333 0.1714 0.7290 (  1616 PWs)   bands (ev):

   -64.7250 -64.7195 -33.5341 -33.5206 -33.4550 -33.4450 -33.4299 -33.4089
   -27.9485  -9.9119  -9.8843  -9.8766  -9.8239  -9.8200  -9.8079  -9.8045
    -9.8026  -9.7999  -9.7749  -6.0839  -6.0515  -5.8646   4.8645   6.3171
    10.4045  10.5444  11.0440  11.8989  12.0480  12.5810  12.9022  13.0071
    13.2354  13.9360  13.9734  14.0029  14.0483  14.1177  14.2565  14.2999
    14.3513  14.3927  14.6124  14.8761  15.6886  16.0751  16.4867  18.4420
    18.6888  19.9974  20.2871  20.7339  20.7908  22.2493  22.4633  23.8173
    24.9616  25.2581  25.9163  26.4465  27.4784  28.8085  29.3513  30.5374

     occupation numbers 
     1.0000   1.0000   1.0000   1.0000   1.0000   1.0000   1.0000   1.0000
     1.0000   1.0000   1.0000   1.0000   1.0000   1.0000   1.0000   1.0000
     1.0000   1.0000   1.0000   1.0000   1.0000   1.0000   1.0000   1.0000
     1.0000   1.0000   1.0000   1.0000   1.0000   1.0000   1.0000   1.0000
     1.0000   1.0000   1.0000   1.0000   1.0000   1.0000   0.0000   0.0000
     0.0000   0.0000   0.0000   0.0000   0.0000   0.0000   0.0000   0.0000
     0.0000   0.0000   0.0000   0.0000   0.0000   0.0000   0.0000   0.0000
     0.0000   0.0000   0.0000   0.0000   0.0000   0.0000   0.0000   0.0000

          k = 0.3333 0.1714-0.0000 (  1618 PWs)   bands (ev):

   -64.7334 -64.7112 -33.5379 -33.5264 -33.4513 -33.4362 -33.4179 -33.4173
   -27.9603  -9.9164  -9.8752  -9.8745  -9.8195  -9.8142  -9.8135  -9.8129
    -9.8018  -9.7950  -9.7838  -5.9318  -5.9295  -5.9011   3.9075   5.4986
    10.1556  11.7438  11.7468  11.9678  12.3852  12.9088  12.9182  13.0873
    13.8260  13.9674  13.9947  14.0078  14.1152  14.2991  14.3041  14.3421
    14.7565  14.9132  14.9210  15.4395  15.5902  17.5238  17.5248  17.8470
    18.1105  18.6879  19.7757  20.4023  20.4067  20.6133  21.4822  22.1371
    22.1384  23.1970  27.5083  27.6284  28.1243  28.1281  29.2510  30.0746

     occupation numbers 
     1.0000   1.0000   1.0000   1.0000   1.0000   1.0000   1.0000   1.0000
     1.0000   1.0000   1.0000   1.0000   1.0000   1.0000   1.0000   1.0000
     1.0000   1.0000   1.0000   1.0000   1.0000   1.0000   1.0000   1.0000
     1.0000   1.0000   1.0000   1.0000   1.0000   1.0000   1.0000   1.0000
     1.0000   1.0000   1.0000   1.0000   1.0000   1.0000   0.0000   0.0000
     0.0000   0.0000   0.0000   0.0000   0.0000   0.0000   0.0000   0.0000
     0.0000   0.0000   0.0000   0.0000   0.0000   0.0000   0.0000   0.0000
     0.0000   0.0000   0.0000   0.0000   0.0000   0.0000   0.0000   0.0000

          k = 0.3333-0.6483 0.0000 (  1609 PWs)   bands (ev):

   -64.7251 -64.7191 -33.5418 -33.5112 -33.4481 -33.4345 -33.4296 -33.4196
   -27.9485  -9.9120  -9.8800  -9.8752  -9.8272  -9.8149  -9.8069  -9.8057
    -9.8019  -9.8001  -9.7717  -6.0695  -6.0663  -5.8620   4.6800   6.7750
     9.5957  10.5264  11.0977  11.9373  12.6709  12.7472  12.8395  13.0987
    13.3181  13.8798  13.9116  14.0247  14.0778  14.1155  14.2123  14.2876
    14.3330  14.3728  14.4014  14.5884  15.4306  15.7667  17.8577  18.6560
    18.9808  19.4720  19.7338  19.9384  20.3952  23.5256  23.7171  24.4535
    25.0025  25.1912  25.5875  26.4405  26.4700  27.2801  28.0013  30.1134

     occupation numbers 
     1.0000   1.0000   1.0000   1.0000   1.0000   1.0000   1.0000   1.0000
     1.0000   1.0000   1.0000   1.0000   1.0000   1.0000   1.0000   1.0000
     1.0000   1.0000   1.0000   1.0000   1.0000   1.0000   1.0000   1.0000
     1.0000   1.0000   1.0000   1.0000   1.0000   1.0000   1.0000   1.0000
     1.0000   1.0000   1.0000   1.0000   1.0000   1.0000   0.0000   0.0000
     0.0000   0.0000   0.0000   0.0000   0.0000   0.0000   0.0000   0.0000
     0.0000   0.0000   0.0000   0.0000   0.0000   0.0000   0.0000   0.0000
     0.0000   0.0000   0.0000   0.0000   0.0000   0.0000   0.0000   0.0000

          k = 0.3333-0.6483 0.7290 (  1626 PWs)   bands (ev):

   -64.7285 -64.7166 -33.5124 -33.5014 -33.4683 -33.4617 -33.4354 -33.4232
   -27.9543  -9.9132  -9.8792  -9.8782  -9.8231  -9.8188  -9.8150  -9.8105
    -9.8071  -9.7980  -9.7761  -6.1152  -5.9057  -5.8844   4.8813   5.5599
     9.7715  11.3512  11.3614  12.0967  12.1279  12.5555  12.8332  13.2320
    13.7674  13.8499  13.9575  13.9917  14.1102  14.1647  14.2338  14.3018
    14.3591  14.3790  15.2704  15.4580  15.6456  16.2747  17.9383  18.0977
    18.1515  18.8111  18.8239  19.0581  20.2240  23.1691  24.0200  24.4444
    24.4948  25.0982  25.6666  26.0823  27.1621  27.3019  27.3197  29.2571

     occupation numbers 
     1.0000   1.0000   1.0000   1.0000   1.0000   1.0000   1.0000   1.0000
     1.0000   1.0000   1.0000   1.0000   1.0000   1.0000   1.0000   1.0000
     1.0000   1.0000   1.0000   1.0000   1.0000   1.0000   1.0000   1.0000
     1.0000   1.0000   1.0000   1.0000   1.0000   1.0000   1.0000   1.0000
     1.0000   1.0000   1.0000   1.0000   1.0000   1.0000   0.0000   0.0000
     0.0000   0.0000   0.0000   0.0000   0.0000   0.0000   0.0000   0.0000
     0.0000   0.0000   0.0000   0.0000   0.0000   0.0000   0.0000   0.0000
     0.0000   0.0000   0.0000   0.0000   0.0000   0.0000   0.0000   0.0000

     highest occupied, lowest unoccupied level (ev):    14.2991   14.2020

!    total energy              =   -1533.18787065 Ry
     estimated scf accuracy    <       0.00000086 Ry

     The total energy is the sum of the following terms:
     one-electron contribution =    -529.19097139 Ry
     hartree contribution      =     323.73154501 Ry
     xc contribution           =    -192.25088004 Ry
     ewald contribution        =    -669.58582089 Ry
     one-center paw contrib.   =    -465.89174334 Ry
      -> PAW hartree energy AE =     184.83890956 Ry
      -> PAW hartree energy PS =    -175.32224006 Ry
      -> PAW xc energy AE      =    -496.84638602 Ry
      -> PAW xc energy PS      =      21.43797318 Ry
      -> total E_H with PAW    =     333.24821451 Ry
      -> total E_XC with PAW   =    -667.65929288 Ry

     convergence has been achieved in  61 iterations

     Writing all to output data dir calculations_bands/myprefix.save/
 
     init_run     :     11.01s CPU      3.67s WALL (       1 calls)
     electrons    :    216.79s CPU     58.47s WALL (       1 calls)

     Called by init_run:
     wfcinit      :      4.76s CPU      1.53s WALL (       1 calls)
     wfcinit:atom :      0.00s CPU      0.00s WALL (       5 calls)
     wfcinit:wfcr :      4.71s CPU      1.51s WALL (       5 calls)
     potinit      :      1.68s CPU      0.54s WALL (       1 calls)
     hinit0       :      2.92s CPU      1.03s WALL (       1 calls)

     Called by electrons:
     c_bands      :     98.76s CPU     26.09s WALL (      61 calls)
     sum_band     :     34.97s CPU      9.90s WALL (      61 calls)
     v_of_rho     :      3.39s CPU      0.90s WALL (      62 calls)
     v_h          :      0.23s CPU      0.06s WALL (      62 calls)
     v_xc         :      3.16s CPU      0.83s WALL (      62 calls)
     newd         :     21.98s CPU      6.36s WALL (      62 calls)
     PAW_pot      :     57.67s CPU     15.30s WALL (      62 calls)
     mix_rho      :      0.89s CPU      0.24s WALL (      61 calls)

     Called by c_bands:
     init_us_2    :      0.57s CPU      0.16s WALL (     615 calls)
     init_us_2:cp :      0.55s CPU      0.16s WALL (     615 calls)
     cegterg      :     85.44s CPU     22.55s WALL (     305 calls)

     Called by sum_band:
     sum_band:wei :      0.05s CPU      0.01s WALL (      61 calls)
     sum_band:loo :     18.07s CPU      4.71s WALL (      61 calls)
     sum_band:buf :      0.08s CPU      0.02s WALL (     305 calls)
     sum_band:ini :      0.25s CPU      0.07s WALL (     305 calls)
     sum_band:cal :      0.51s CPU      0.13s WALL (     305 calls)
     sum_band:bec :      0.08s CPU      0.02s WALL (     305 calls)
     addusdens    :      9.16s CPU      3.12s WALL (      61 calls)
     addusd:skk   :      0.04s CPU      0.01s WALL (     183 calls)
     addusd:dgemm :      1.05s CPU      0.93s WALL (     183 calls)
     addusd:qvan2 :      6.18s CPU      1.57s WALL (     183 calls)

     Called by *egterg:
     cdiaghg      :     11.43s CPU      3.03s WALL (     689 calls)
     cegterg:over :      1.58s CPU      0.42s WALL (     384 calls)
     cegterg:upda :      0.82s CPU      0.22s WALL (     384 calls)
     cegterg:last :      0.82s CPU      0.22s WALL (     344 calls)
     cdiaghg:chol :      0.84s CPU      0.22s WALL (     689 calls)
     cdiaghg:inve :      0.15s CPU      0.04s WALL (     689 calls)
     cdiaghg:para :      2.13s CPU      0.58s WALL (    1378 calls)
     h_psi        :     73.31s CPU     19.52s WALL (     694 calls)
     s_psi        :      0.40s CPU      0.10s WALL (     694 calls)
     g_psi        :      0.05s CPU      0.01s WALL (     384 calls)

     Called by h_psi:
     h_psi:calbec :      1.20s CPU      0.31s WALL (     694 calls)
     vloc_psi     :     71.45s CPU     19.03s WALL (     694 calls)
     add_vuspsi   :      0.55s CPU      0.15s WALL (     694 calls)

     General routines
     calbec       :      1.68s CPU      0.44s WALL (     999 calls)
     fft          :      3.48s CPU      1.08s WALL (     804 calls)
     ffts         :      0.58s CPU      0.17s WALL (     123 calls)
     fftw         :     80.93s CPU     21.51s WALL (  100214 calls)
     interpolate  :      0.76s CPU      0.22s WALL (      62 calls)
 
     Parallel routines

     PAW routines
     PAW_pot      :     57.67s CPU     15.30s WALL (      62 calls)
     PAW_symme    :      0.13s CPU      0.04s WALL (     123 calls)
 
     PWSCF        :   3m49.63s CPU   1m 3.17s WALL

 
   This run was terminated on:  10:55: 9   6Jun2023            

=------------------------------------------------------------------------------=
   JOB DONE.
=------------------------------------------------------------------------------=
