
     Program PWSCF v.7.0 starts on 20May2023 at 22:32:20 

     This program is part of the open-source Quantum ESPRESSO suite
     for quantum simulation of materials; please cite
         "P. Giannozzi et al., J. Phys.:Condens. Matter 21 395502 (2009);
         "P. Giannozzi et al., J. Phys.:Condens. Matter 29 465901 (2017);
         "P. Giannozzi et al., J. Chem. Phys. 152 154105 (2020);
          URL http://www.quantum-espresso.org", 
     in publications or presentations arising from this work. More details at
     http://www.quantum-espresso.org/quote

     Parallel version (MPI & OpenMP), running on      32 processor cores
     Number of MPI processes:                 1
     Threads/MPI process:                    32

     MPI processes distributed on     1 nodes
     120786 MiB available memory on the printing compute node when the environment starts
 
     Reading input from espresso_18624.pwi
Warning: card &CELL ignored
Warning: card / ignored

     Current dimensions of program PWSCF are:
     Max number of different atomic species (ntypx) = 10
     Max number of k-points (npk) =  40000
     Max angular momentum in pseudopotentials (lmaxx) =  4

     gamma-point specific algorithms are used
     Message from routine setup:
     no reason to have ecutrho>4*ecutwfc
     Message from routine setup:
     using ibrav=0 with symmetry is DISCOURAGED, use correct ibrav instead

     Subspace diagonalization in iterative solution of the eigenvalue problem:
     a serial algorithm will be used

 
     G-vector sticks info
     --------------------
     sticks:   dense  smooth     PW     G-vecs:    dense   smooth      PW
     Sum        1345     673    163                32311    11311    1411
 
     Using Slab Decomposition
 


     bravais-lattice index     =            0
     lattice parameter (alat)  =       8.9800  a.u.
     unit-cell volume          =     512.0472 (a.u.)^3
     number of atoms/cell      =            4
     number of atomic types    =            2
     number of electrons       =        68.00
     number of Kohn-Sham states=           41
     kinetic-energy cutoff     =      30.0000  Ry
     charge density cutoff     =     240.0000  Ry
     scf convergence threshold =      1.0E-06
     mixing beta               =       0.7000
     number of iterations used =            8  plain     mixing
     Exchange-correlation= PBE
                           (   1   4   3   4   0   0   0)

     celldm(1)=   8.979972  celldm(2)=   0.000000  celldm(3)=   0.000000
     celldm(4)=   0.000000  celldm(5)=   0.000000  celldm(6)=   0.000000

     crystal axes: (cart. coord. in units of alat)
               a(1) = (   1.000000   0.000000   0.000000 )  
               a(2) = (   0.500000   0.866025   0.000000 )  
               a(3) = (   0.500000   0.288675   0.816497 )  

     reciprocal axes: (cart. coord. in units 2 pi/alat)
               b(1) = (  1.000000 -0.577350 -0.408248 )  
               b(2) = (  0.000000  1.154701 -0.408248 )  
               b(3) = (  0.000000  0.000000  1.224745 )  


     PseudoPot. # 1 for Sc read from file:
     /home/pragov/projects/rrg-bengioy-ad/pragov/crystal_structure_design/SSSP/Sc_ONCV_PBE-1.0.oncvpsp.upf
     MD5 check sum: e21af8023abb52e52cb7cd3133e4a229
     Pseudo is Norm-conserving, Zval = 11.0
     Generated using ONCVPSP code by D. R. Hamann
     Using radial grid of 1662 points,  6 beta functions with: 
                l(1) =   0
                l(2) =   0
                l(3) =   1
                l(4) =   1
                l(5) =   2
                l(6) =   2

     PseudoPot. # 2 for Ag read from file:
     /home/pragov/projects/rrg-bengioy-ad/pragov/crystal_structure_design/SSSP/Ag_ONCV_PBE-1.0.oncvpsp.upf
     MD5 check sum: 94f47bd0669c641108e45594df92fabc
     Pseudo is Norm-conserving, Zval = 19.0
     Generated using ONCVPSP code by D. R. Hamann
     Using radial grid of 1398 points,  6 beta functions with: 
                l(1) =   0
                l(2) =   0
                l(3) =   1
                l(4) =   1
                l(5) =   2
                l(6) =   2

     atomic species   valence    mass     pseudopotential
        Sc            11.00    44.95591     Sc( 1.00)
        Ag            19.00   107.86820     Ag( 1.00)

     12 Sym. Ops., with inversion, found


                                    s                        frac. trans.

      isym =  1     identity                                     

 cryst.   s( 1) = (     1          0          0      )
                  (     0          1          0      )
                  (     0          0          1      )

 cart.    s( 1) = (  1.0000000  0.0000000 -0.0000000 )
                  (  0.0000000  1.0000000 -0.0000000 )
                  (  0.0000000  0.0000000  1.0000000 )


      isym =  2     180 deg rotation - cart. axis [1,0,0]        

 cryst.   s( 2) = (     1          0          0      )
                  (     1         -1          0      )
                  (     1          0         -1      )

 cart.    s( 2) = (  1.0000000  0.0000000 -0.0000000 )
                  (  0.0000000 -1.0000000  0.0000000 )
                  (  0.0000000  0.0000000 -1.0000000 )


      isym =  3     120 deg rotation - cryst. axis [0,0,1]       

 cryst.   s( 3) = (    -1          1          0      )
                  (    -1          0          0      )
                  (    -1          0          1      )

 cart.    s( 3) = ( -0.5000000 -0.8660254  0.0000000 )
                  (  0.8660254 -0.5000000 -0.0000000 )
                  (  0.0000000  0.0000000  1.0000000 )


      isym =  4     120 deg rotation - cryst. axis [0,0,-1]      

 cryst.   s( 4) = (     0         -1          0      )
                  (     1         -1          0      )
                  (     0         -1          1      )

 cart.    s( 4) = ( -0.5000000  0.8660254  0.0000000 )
                  ( -0.8660254 -0.5000000  0.0000000 )
                  (  0.0000000  0.0000000  1.0000000 )


      isym =  5     180 deg rotation - cryst. axis [0,1,0]       

 cryst.   s( 5) = (     0         -1          0      )
                  (    -1          0          0      )
                  (     0          0         -1      )

 cart.    s( 5) = ( -0.5000000 -0.8660254  0.0000000 )
                  ( -0.8660254  0.5000000  0.0000000 )
                  (  0.0000000  0.0000000 -1.0000000 )


      isym =  6     180 deg rotation - cryst. axis [1,1,0]       

 cryst.   s( 6) = (    -1          1          0      )
                  (     0          1          0      )
                  (     0          1         -1      )

 cart.    s( 6) = ( -0.5000000  0.8660254  0.0000000 )
                  (  0.8660254  0.5000000 -0.0000000 )
                  (  0.0000000  0.0000000 -1.0000000 )


      isym =  7     inversion                                    

 cryst.   s( 7) = (    -1          0          0      )
                  (     0         -1          0      )
                  (     0          0         -1      )

 cart.    s( 7) = ( -1.0000000  0.0000000  0.0000000 )
                  (  0.0000000 -1.0000000  0.0000000 )
                  (  0.0000000  0.0000000 -1.0000000 )


      isym =  8     inv. 180 deg rotation - cart. axis [1,0,0]   

 cryst.   s( 8) = (    -1          0          0      )
                  (    -1          1          0      )
                  (    -1          0          1      )

 cart.    s( 8) = ( -1.0000000  0.0000000  0.0000000 )
                  (  0.0000000  1.0000000 -0.0000000 )
                  (  0.0000000  0.0000000  1.0000000 )


      isym =  9     inv. 120 deg rotation - cryst. axis [0,0,1]  

 cryst.   s( 9) = (     1         -1          0      )
                  (     1          0          0      )
                  (     1          0         -1      )

 cart.    s( 9) = (  0.5000000  0.8660254  0.0000000 )
                  ( -0.8660254  0.5000000  0.0000000 )
                  (  0.0000000  0.0000000 -1.0000000 )


      isym = 10     inv. 120 deg rotation - cryst. axis [0,0,-1] 

 cryst.   s(10) = (     0          1          0      )
                  (    -1          1          0      )
                  (     0          1         -1      )

 cart.    s(10) = (  0.5000000 -0.8660254 -0.0000000 )
                  (  0.8660254  0.5000000 -0.0000000 )
                  (  0.0000000  0.0000000 -1.0000000 )


      isym = 11     inv. 180 deg rotation - cryst. axis [0,1,0]  

 cryst.   s(11) = (     0          1          0      )
                  (     1          0          0      )
                  (     0          0          1      )

 cart.    s(11) = (  0.5000000  0.8660254  0.0000000 )
                  (  0.8660254 -0.5000000 -0.0000000 )
                  (  0.0000000  0.0000000  1.0000000 )


      isym = 12     inv. 180 deg rotation - cryst. axis [1,1,0]  

 cryst.   s(12) = (     1         -1          0      )
                  (     0         -1          0      )
                  (     0         -1          1      )

 cart.    s(12) = (  0.5000000 -0.8660254 -0.0000000 )
                  ( -0.8660254 -0.5000000  0.0000000 )
                  (  0.0000000  0.0000000  1.0000000 )


   Cartesian axes

     site n.     atom                  positions (alat units)
         1           Sc  tau(   1) = (   0.0000000   0.0000000   0.0000000  )
         2           Ag  tau(   2) = (   0.5000000   0.2886751   0.2041241  )
         3           Ag  tau(   3) = (   1.5000000   0.8660254   0.6123724  )
         4           Ag  tau(   4) = (   1.0000000   0.5773503   0.4082483  )

   Crystallographic axes

     site n.     atom                  positions (cryst. coord.)
         1           Sc  tau(   1) = (  0.0000000  0.0000000  0.0000000  )
         2           Ag  tau(   2) = (  0.2500000  0.2500000  0.2500000  )
         3           Ag  tau(   3) = (  0.7500000  0.7500000  0.7500000  )
         4           Ag  tau(   4) = (  0.5000000  0.5000000  0.5000000  )

     number of k points=     1  Methfessel-Paxton smearing, width (Ry)=  0.0010
                       cart. coord. in units 2pi/alat
        k(    1) = (   0.0000000   0.0000000   0.0000000), wk =   2.0000000

                       cryst. coord.
        k(    1) = (   0.0000000   0.0000000   0.0000000), wk =   2.0000000

     Dense  grid:    16156 G-vectors     FFT dimensions: (  45,  45,  45)

     Smooth grid:     5656 G-vectors     FFT dimensions: (  32,  32,  32)

     Dynamical RAM for                 wfc:       0.44 MB

     Dynamical RAM for     wfc (w. buffer):       0.44 MB

     Dynamical RAM for           str. fact:       0.49 MB

     Dynamical RAM for           local pot:       0.00 MB

     Dynamical RAM for          nlocal pot:       0.78 MB

     Dynamical RAM for                qrad:       2.49 MB

     Dynamical RAM for          rho,v,vnew:       2.83 MB

     Dynamical RAM for               rhoin:       0.94 MB

     Dynamical RAM for            rho*nmix:       3.94 MB

     Dynamical RAM for           G-vectors:       0.97 MB

     Dynamical RAM for          h,s,v(r/c):       0.15 MB

     Dynamical RAM for          <psi|beta>:       0.02 MB

     Dynamical RAM for                 psi:       0.89 MB

     Dynamical RAM for                hpsi:       0.89 MB

     Dynamical RAM for      wfcinit/wfcrot:       0.93 MB

     Estimated static dynamical RAM per process >      13.16 MB

     Estimated max dynamical RAM per process >      19.05 MB

     Initial potential from superposition of free atoms

     starting charge      67.9965, renormalised to      68.0000
     Starting wfcs are   40 randomized atomic wfcs +    1 random wfcs

     total cpu time spent up to now is        2.4 secs

     Self-consistent Calculation

     iteration #  1     ecut=    30.00 Ry     beta= 0.70
     Davidson diagonalization with overlap

---- Real-time Memory Report at c_bands before calling an iterative solver
           242 MiB given to the printing process from OS
             0 MiB allocation reported by mallinfo(arena+hblkhd)
        120722 MiB available memory on the node where the printing process lives
------------------
     ethr =  1.00E-02,  avg # of iterations =  5.0

     Threshold (ethr) on eigenvalues was too large:
     Diagonalizing with lowered threshold

     Davidson diagonalization with overlap

---- Real-time Memory Report at c_bands before calling an iterative solver
           309 MiB given to the printing process from OS
             0 MiB allocation reported by mallinfo(arena+hblkhd)
        120657 MiB available memory on the node where the printing process lives
------------------
     ethr =  5.20E-04,  avg # of iterations =  2.0

     total cpu time spent up to now is        2.6 secs

     total energy              =    -952.66625764 Ry
     estimated scf accuracy    <       0.33207801 Ry

     iteration #  2     ecut=    30.00 Ry     beta= 0.70
     Davidson diagonalization with overlap

---- Real-time Memory Report at c_bands before calling an iterative solver
           315 MiB given to the printing process from OS
             0 MiB allocation reported by mallinfo(arena+hblkhd)
        120650 MiB available memory on the node where the printing process lives
------------------
     ethr =  4.88E-04,  avg # of iterations =  5.0

     total cpu time spent up to now is        2.7 secs

     total energy              =    -952.72457256 Ry
     estimated scf accuracy    <       0.48864156 Ry

     iteration #  3     ecut=    30.00 Ry     beta= 0.70
     Davidson diagonalization with overlap

---- Real-time Memory Report at c_bands before calling an iterative solver
           318 MiB given to the printing process from OS
             0 MiB allocation reported by mallinfo(arena+hblkhd)
        120648 MiB available memory on the node where the printing process lives
------------------
     ethr =  4.88E-04,  avg # of iterations =  5.0

     total cpu time spent up to now is        2.7 secs

     total energy              =    -952.80055639 Ry
     estimated scf accuracy    <       0.05638716 Ry

     iteration #  4     ecut=    30.00 Ry     beta= 0.70
     Davidson diagonalization with overlap

---- Real-time Memory Report at c_bands before calling an iterative solver
           318 MiB given to the printing process from OS
             0 MiB allocation reported by mallinfo(arena+hblkhd)
        120648 MiB available memory on the node where the printing process lives
------------------
     ethr =  8.29E-05,  avg # of iterations =  2.0

     total cpu time spent up to now is        2.8 secs

     total energy              =    -952.81280523 Ry
     estimated scf accuracy    <       0.13199946 Ry

     iteration #  5     ecut=    30.00 Ry     beta= 0.70
     Davidson diagonalization with overlap

---- Real-time Memory Report at c_bands before calling an iterative solver
           318 MiB given to the printing process from OS
             0 MiB allocation reported by mallinfo(arena+hblkhd)
        120648 MiB available memory on the node where the printing process lives
------------------
     ethr =  8.29E-05,  avg # of iterations =  1.0

     total cpu time spent up to now is        2.9 secs

     total energy              =    -952.81830534 Ry
     estimated scf accuracy    <       0.13813777 Ry

     iteration #  6     ecut=    30.00 Ry     beta= 0.70
     Davidson diagonalization with overlap

---- Real-time Memory Report at c_bands before calling an iterative solver
           318 MiB given to the printing process from OS
             0 MiB allocation reported by mallinfo(arena+hblkhd)
        120648 MiB available memory on the node where the printing process lives
------------------
     ethr =  8.29E-05,  avg # of iterations =  1.0

     total cpu time spent up to now is        2.9 secs

     total energy              =    -952.81215602 Ry
     estimated scf accuracy    <       0.04522500 Ry

     iteration #  7     ecut=    30.00 Ry     beta= 0.70
     Davidson diagonalization with overlap

---- Real-time Memory Report at c_bands before calling an iterative solver
           318 MiB given to the printing process from OS
             0 MiB allocation reported by mallinfo(arena+hblkhd)
        120648 MiB available memory on the node where the printing process lives
------------------
     ethr =  6.65E-05,  avg # of iterations =  1.0

     total cpu time spent up to now is        3.0 secs

     total energy              =    -952.81581011 Ry
     estimated scf accuracy    <       0.09853073 Ry

     iteration #  8     ecut=    30.00 Ry     beta= 0.70
     Davidson diagonalization with overlap

---- Real-time Memory Report at c_bands before calling an iterative solver
           318 MiB given to the printing process from OS
             0 MiB allocation reported by mallinfo(arena+hblkhd)
        120648 MiB available memory on the node where the printing process lives
------------------
     ethr =  6.65E-05,  avg # of iterations =  1.0

     total cpu time spent up to now is        3.1 secs

     total energy              =    -952.81480697 Ry
     estimated scf accuracy    <       0.04866271 Ry

     iteration #  9     ecut=    30.00 Ry     beta= 0.70
     Davidson diagonalization with overlap

---- Real-time Memory Report at c_bands before calling an iterative solver
           318 MiB given to the printing process from OS
             0 MiB allocation reported by mallinfo(arena+hblkhd)
        120648 MiB available memory on the node where the printing process lives
------------------
     ethr =  6.65E-05,  avg # of iterations =  1.0

     total cpu time spent up to now is        3.1 secs

     total energy              =    -952.81434868 Ry
     estimated scf accuracy    <       0.06915568 Ry

     iteration # 10     ecut=    30.00 Ry     beta= 0.70
     Davidson diagonalization with overlap

---- Real-time Memory Report at c_bands before calling an iterative solver
           318 MiB given to the printing process from OS
             0 MiB allocation reported by mallinfo(arena+hblkhd)
        120648 MiB available memory on the node where the printing process lives
------------------
     ethr =  6.65E-05,  avg # of iterations =  1.0

     total cpu time spent up to now is        3.2 secs

     total energy              =    -952.81367334 Ry
     estimated scf accuracy    <       0.02534557 Ry

     iteration # 11     ecut=    30.00 Ry     beta= 0.70
     Davidson diagonalization with overlap

---- Real-time Memory Report at c_bands before calling an iterative solver
           318 MiB given to the printing process from OS
             0 MiB allocation reported by mallinfo(arena+hblkhd)
        120647 MiB available memory on the node where the printing process lives
------------------
     ethr =  3.73E-05,  avg # of iterations =  1.0

     total cpu time spent up to now is        3.2 secs

     total energy              =    -952.81417713 Ry
     estimated scf accuracy    <       0.04471841 Ry

     iteration # 12     ecut=    30.00 Ry     beta= 0.70
     Davidson diagonalization with overlap

---- Real-time Memory Report at c_bands before calling an iterative solver
           318 MiB given to the printing process from OS
             0 MiB allocation reported by mallinfo(arena+hblkhd)
        120646 MiB available memory on the node where the printing process lives
------------------
     ethr =  3.73E-05,  avg # of iterations =  1.0

     total cpu time spent up to now is        3.3 secs

     total energy              =    -952.81342356 Ry
     estimated scf accuracy    <       0.06570940 Ry

     iteration # 13     ecut=    30.00 Ry     beta= 0.70
     Davidson diagonalization with overlap

---- Real-time Memory Report at c_bands before calling an iterative solver
           318 MiB given to the printing process from OS
             0 MiB allocation reported by mallinfo(arena+hblkhd)
        120646 MiB available memory on the node where the printing process lives
------------------
     ethr =  3.73E-05,  avg # of iterations =  1.0

     total cpu time spent up to now is        3.3 secs

     total energy              =    -952.81437426 Ry
     estimated scf accuracy    <       0.01548191 Ry

     iteration # 14     ecut=    30.00 Ry     beta= 0.70
     Davidson diagonalization with overlap

---- Real-time Memory Report at c_bands before calling an iterative solver
           318 MiB given to the printing process from OS
             0 MiB allocation reported by mallinfo(arena+hblkhd)
        120646 MiB available memory on the node where the printing process lives
------------------
     ethr =  2.28E-05,  avg # of iterations =  1.0

     total cpu time spent up to now is        3.4 secs

     total energy              =    -952.81468667 Ry
     estimated scf accuracy    <       0.00651333 Ry

     iteration # 15     ecut=    30.00 Ry     beta= 0.70
     Davidson diagonalization with overlap

---- Real-time Memory Report at c_bands before calling an iterative solver
           318 MiB given to the printing process from OS
             0 MiB allocation reported by mallinfo(arena+hblkhd)
        120646 MiB available memory on the node where the printing process lives
------------------
     ethr =  9.58E-06,  avg # of iterations =  1.0

     total cpu time spent up to now is        3.5 secs

     total energy              =    -952.81469375 Ry
     estimated scf accuracy    <       0.00123794 Ry

     iteration # 16     ecut=    30.00 Ry     beta= 0.70
     Davidson diagonalization with overlap

---- Real-time Memory Report at c_bands before calling an iterative solver
           318 MiB given to the printing process from OS
             0 MiB allocation reported by mallinfo(arena+hblkhd)
        120646 MiB available memory on the node where the printing process lives
------------------
     ethr =  1.82E-06,  avg # of iterations =  1.0

     total cpu time spent up to now is        3.5 secs

     total energy              =    -952.81469897 Ry
     estimated scf accuracy    <       0.00009141 Ry

     iteration # 17     ecut=    30.00 Ry     beta= 0.70
     Davidson diagonalization with overlap

---- Real-time Memory Report at c_bands before calling an iterative solver
           318 MiB given to the printing process from OS
             0 MiB allocation reported by mallinfo(arena+hblkhd)
        120646 MiB available memory on the node where the printing process lives
------------------
     ethr =  1.34E-07,  avg # of iterations =  1.0

     total cpu time spent up to now is        3.6 secs

     total energy              =    -952.81470105 Ry
     estimated scf accuracy    <       0.00007943 Ry

     iteration # 18     ecut=    30.00 Ry     beta= 0.70
     Davidson diagonalization with overlap

---- Real-time Memory Report at c_bands before calling an iterative solver
           318 MiB given to the printing process from OS
             0 MiB allocation reported by mallinfo(arena+hblkhd)
        120646 MiB available memory on the node where the printing process lives
------------------
     ethr =  1.17E-07,  avg # of iterations =  1.0

     total cpu time spent up to now is        3.6 secs

     total energy              =    -952.81470169 Ry
     estimated scf accuracy    <       0.00000231 Ry

     iteration # 19     ecut=    30.00 Ry     beta= 0.70
     Davidson diagonalization with overlap

---- Real-time Memory Report at c_bands before calling an iterative solver
           318 MiB given to the printing process from OS
             0 MiB allocation reported by mallinfo(arena+hblkhd)
        120646 MiB available memory on the node where the printing process lives
------------------
     ethr =  3.40E-09,  avg # of iterations =  1.0

     total cpu time spent up to now is        3.7 secs

     total energy              =    -952.81470147 Ry
     estimated scf accuracy    <       0.00002049 Ry

     iteration # 20     ecut=    30.00 Ry     beta= 0.70
     Davidson diagonalization with overlap

---- Real-time Memory Report at c_bands before calling an iterative solver
           318 MiB given to the printing process from OS
             0 MiB allocation reported by mallinfo(arena+hblkhd)
        120646 MiB available memory on the node where the printing process lives
------------------
     ethr =  3.40E-09,  avg # of iterations =  2.0

     total cpu time spent up to now is        3.8 secs

     total energy              =    -952.81470157 Ry
     estimated scf accuracy    <       0.00000147 Ry

     iteration # 21     ecut=    30.00 Ry     beta= 0.70
     Davidson diagonalization with overlap

---- Real-time Memory Report at c_bands before calling an iterative solver
           318 MiB given to the printing process from OS
             0 MiB allocation reported by mallinfo(arena+hblkhd)
        120646 MiB available memory on the node where the printing process lives
------------------
     ethr =  2.16E-09,  avg # of iterations =  1.0

     total cpu time spent up to now is        3.8 secs

     End of self-consistent calculation

          k = 0.0000 0.0000 0.0000 (   706 PWs)   bands (ev):

   -78.5057 -78.3431 -78.3417 -41.5724 -41.5724 -41.5724 -41.3635 -41.3635
   -41.3635 -41.3592 -41.3592 -41.3592 -31.4934 -10.2393 -10.2393 -10.2393
     8.1205   9.1027   9.1027   9.7183   9.7183   9.7183   9.9675   9.9675
     9.9675  10.9490  10.9490  11.0353  11.0354  11.0354  11.4658  11.4658
    17.1866  17.1866  17.1866  19.6031  19.7053  19.7054  20.7372  20.7372
    21.6864

     occupation numbers 
     1.0000   1.0000   1.0000   1.0000   1.0000   1.0000   1.0000   1.0000
     1.0000   1.0000   1.0000   1.0000   1.0000   1.0000   1.0000   1.0000
     1.0000   1.0000   1.0000   1.0000   1.0000   1.0000   1.0000   1.0000
     1.0000   1.0000   1.0000   1.0000   1.0000   1.0000   1.0000   1.0000
     0.6670   0.6667   0.6663  -0.0000  -0.0000  -0.0000  -0.0000  -0.0000
    -0.0000

     the Fermi energy is    17.1893 ev

!    total energy              =    -952.81470156 Ry
     estimated scf accuracy    <       0.00000004 Ry
     smearing contrib. (-TS)   =      -0.00074672 Ry
     internal energy E=F+TS    =    -952.81395485 Ry

     The total energy is F=E-TS. E is the sum of the following terms:
     one-electron contribution =    -418.29370245 Ry
     hartree contribution      =     235.24100416 Ry
     xc contribution           =     -93.29234405 Ry
     ewald contribution        =    -676.46891250 Ry

     convergence has been achieved in  21 iterations

     Forces acting on atoms (cartesian axes, Ry/au):

     atom    1 type  1   force =     0.00000000    0.00000000   -0.00000000
     atom    2 type  2   force =     0.00000000    0.00000000   -0.00000099
     atom    3 type  2   force =     0.00000000    0.00000000    0.00000099
     atom    4 type  2   force =     0.00000000    0.00000000    0.00000000
     The non-local contrib.  to forces
     atom    1 type  1   force =     0.00000000    0.00000000    0.00000000
     atom    2 type  2   force =     0.00000000    0.00000000   -0.00000535
     atom    3 type  2   force =     0.00000000    0.00000000    0.00000535
     atom    4 type  2   force =    -0.00000000   -0.00000000    0.00000000
     The ionic contribution  to forces
     atom    1 type  1   force =    -0.00000000   -0.00000000    0.00000000
     atom    2 type  2   force =    -0.00000000    0.00000000    0.00000000
     atom    3 type  2   force =     0.00000000    0.00000000   -0.00000000
     atom    4 type  2   force =    -0.00000000   -0.00000000   -0.00000000
     The local contribution  to forces
     atom    1 type  1   force =     0.00000029   -0.00000031    0.00000034
     atom    2 type  2   force =    -0.00006736    0.00000063    0.00000736
     atom    3 type  2   force =     0.00006662   -0.00000002   -0.00000745
     atom    4 type  2   force =     0.00000040    0.00000011   -0.00000025
     The core correction contribution to forces
     atom    1 type  1   force =     0.00000000    0.00000000    0.00000000
     atom    2 type  2   force =     0.00000000    0.00000000    0.00000000
     atom    3 type  2   force =     0.00000000    0.00000000    0.00000000
     atom    4 type  2   force =     0.00000000    0.00000000    0.00000000
     The Hubbard contrib.    to forces
     atom    1 type  1   force =     0.00000000    0.00000000    0.00000000
     atom    2 type  2   force =     0.00000000    0.00000000    0.00000000
     atom    3 type  2   force =     0.00000000    0.00000000    0.00000000
     atom    4 type  2   force =     0.00000000    0.00000000    0.00000000
     The SCF correction term to forces
     atom    1 type  1   force =    -0.00000048    0.00000039   -0.00000046
     atom    2 type  2   force =     0.00004351    0.00000020   -0.00000291
     atom    3 type  2   force =    -0.00004280   -0.00000081    0.00000318
     atom    4 type  2   force =    -0.00000009   -0.00000019    0.00000018

     Total force =     0.000001     Total SCF correction =     0.000061
     SCF correction compared to forces is large: reduce conv_thr to get better values


     Computing stress (Cartesian axis) and pressure

          total   stress  (Ry/bohr**3)                   (kbar)     P=    -1188.86
  -0.00808166   0.00000000   0.00000000        -1188.85        0.00        0.00
   0.00000000  -0.00808166  -0.00000000            0.00    -1188.85       -0.00
   0.00000000   0.00000000  -0.00808173            0.00        0.00    -1188.86

     kinetic stress (kbar)  61197.16      0.00      0.00
                                0.00  61197.16     -0.00
                                0.00     -0.00  61197.20

     local   stress (kbar)  -6100.52     -0.25      0.04
                               -0.25  -6100.72     -0.15
                                0.04     -0.15  -6100.69

     nonloc. stress (kbar)  -5560.29     -0.00     -0.00
                               -0.00  -5560.29     -0.00
                               -0.00      0.00  -5560.30

     hartree stress (kbar)  22527.19      0.17     -0.11
                                0.17  22527.42      0.17
                               -0.11      0.17  22527.34

     exc-cor stress (kbar)  -8471.92      0.00     -0.00
                                0.00  -8471.92      0.00
                               -0.00      0.00  -8471.92

     corecor stress (kbar)      0.00      0.00      0.00
                                0.00      0.00      0.00
                                0.00      0.00      0.00

     ewald   stress (kbar) -64780.50     -0.00     -0.00
                               -0.00 -64780.50     -0.00
                               -0.00     -0.00 -64780.50

     hubbard stress (kbar)      0.00      0.00      0.00
                                0.00      0.00      0.00
                                0.00      0.00      0.00

     DFT-D   stress (kbar)      0.00      0.00      0.00
                                0.00      0.00      0.00
                                0.00      0.00      0.00

     XDM     stress (kbar)      0.00      0.00      0.00
                                0.00      0.00      0.00
                                0.00      0.00      0.00

     dft-nl  stress (kbar)      0.00      0.00      0.00
                                0.00      0.00      0.00
                                0.00      0.00      0.00

     TS-vdW  stress (kbar)      0.00      0.00      0.00
                                0.00      0.00      0.00
                                0.00      0.00      0.00


                                0.00      0.00      0.00
                                0.00      0.00      0.00


                                0.00      0.00      0.00


     Writing all to output data dir new_calculations/myprefix.save/
 
     init_run     :     64.74s CPU      2.35s WALL (       1 calls)
     electrons    :     42.69s CPU      1.40s WALL (       1 calls)
     forces       :      0.36s CPU      0.01s WALL (       1 calls)
     stress       :      0.73s CPU      0.03s WALL (       1 calls)

     Called by init_run:
     wfcinit      :      8.01s CPU      0.26s WALL (       1 calls)
     wfcinit:atom :      0.01s CPU      0.00s WALL (       1 calls)
     wfcinit:wfcr :      7.95s CPU      0.26s WALL (       1 calls)
     potinit      :      9.28s CPU      0.30s WALL (       1 calls)
     hinit0       :     47.44s CPU      1.78s WALL (       1 calls)

     Called by electrons:
     c_bands      :     27.10s CPU      0.89s WALL (      22 calls)
     sum_band     :      6.20s CPU      0.20s WALL (      22 calls)
     v_of_rho     :      5.99s CPU      0.20s WALL (      22 calls)
     v_h          :      0.59s CPU      0.02s WALL (      22 calls)
     v_xc         :      5.34s CPU      0.18s WALL (      22 calls)
     mix_rho      :      1.73s CPU      0.06s WALL (      22 calls)

     Called by c_bands:
     init_us_2    :      0.36s CPU      0.01s WALL (      45 calls)
     init_us_2:cp :      0.29s CPU      0.01s WALL (      45 calls)
     regterg      :     25.58s CPU      0.84s WALL (      22 calls)

     Called by sum_band:
     sum_band:wei :      0.08s CPU      0.00s WALL (      22 calls)
     sum_band:loo :      5.32s CPU      0.17s WALL (      22 calls)
     sum_band:buf :      0.02s CPU      0.00s WALL (      22 calls)
     sum_band:ini :      0.20s CPU      0.01s WALL (      22 calls)

     Called by *egterg:
     rdiaghg      :      3.16s CPU      0.10s WALL (      58 calls)
     regterg:over :      0.13s CPU      0.00s WALL (      37 calls)
     regterg:upda :      0.20s CPU      0.01s WALL (      37 calls)
     regterg:last :      0.18s CPU      0.01s WALL (      28 calls)
     h_psi        :     28.88s CPU      0.94s WALL (      60 calls)
     g_psi        :      0.04s CPU      0.00s WALL (      37 calls)

     Called by h_psi:
     h_psi:calbec :      0.47s CPU      0.02s WALL (      60 calls)
     vloc_psi     :     27.96s CPU      0.91s WALL (      60 calls)
     add_vuspsi   :      0.14s CPU      0.00s WALL (      60 calls)

     General routines
     calbec       :      0.40s CPU      0.01s WALL (      65 calls)
     fft          :     46.13s CPU      1.68s WALL (     225 calls)
     ffts         :      8.79s CPU      0.29s WALL (      44 calls)
     fftw         :     23.82s CPU      0.77s WALL (    2432 calls)
     interpolate  :      9.22s CPU      0.30s WALL (      22 calls)
 
     Parallel routines
 
     PWSCF        :   1m53.06s CPU      4.01s WALL

 
   This run was terminated on:  22:32:24  20May2023            

=------------------------------------------------------------------------------=
   JOB DONE.
=------------------------------------------------------------------------------=
