
     Program PWSCF v.7.0 starts on 21May2023 at 20: 3:51 

     This program is part of the open-source Quantum ESPRESSO suite
     for quantum simulation of materials; please cite
         "P. Giannozzi et al., J. Phys.:Condens. Matter 21 395502 (2009);
         "P. Giannozzi et al., J. Phys.:Condens. Matter 29 465901 (2017);
         "P. Giannozzi et al., J. Chem. Phys. 152 154105 (2020);
          URL http://www.quantum-espresso.org", 
     in publications or presentations arising from this work. More details at
     http://www.quantum-espresso.org/quote

     Parallel version (MPI & OpenMP), running on      32 processor cores
     Number of MPI processes:                 1
     Threads/MPI process:                    32

     MPI processes distributed on     1 nodes
     77951 MiB available memory on the printing compute node when the environment starts
 
     Reading input from espresso_21252.pwi
Warning: card &CELL ignored
Warning: card / ignored

     Current dimensions of program PWSCF are:
     Max number of different atomic species (ntypx) = 10
     Max number of k-points (npk) =  40000
     Max angular momentum in pseudopotentials (lmaxx) =  4
     file Pb.pbe-dn-kjpaw_psl.0.2.2.UPF: wavefunction(s)  6S renormalized

     gamma-point specific algorithms are used
     Message from routine setup:
     using ibrav=0 with symmetry is DISCOURAGED, use correct ibrav instead

     Subspace diagonalization in iterative solution of the eigenvalue problem:
     a serial algorithm will be used

 
     G-vector sticks info
     --------------------
     sticks:   dense  smooth     PW     G-vecs:    dense   smooth      PW
     Sum        1417     703    169                35053    12339    1471
 
     Using Slab Decomposition
 


     bravais-lattice index     =            0
     lattice parameter (alat)  =       9.2351  a.u.
     unit-cell volume          =     556.9500 (a.u.)^3
     number of atoms/cell      =            4
     number of atomic types    =            3
     number of electrons       =        61.00
     number of Kohn-Sham states=           37
     kinetic-energy cutoff     =      30.0000  Ry
     charge density cutoff     =     240.0000  Ry
     scf convergence threshold =      1.0E-06
     mixing beta               =       0.7000
     number of iterations used =            8  plain     mixing
     Exchange-correlation= SLA  PW   PBX  PBC
                           (   1   4   3   4   0   0   0)

     celldm(1)=   9.235145  celldm(2)=   0.000000  celldm(3)=   0.000000
     celldm(4)=   0.000000  celldm(5)=   0.000000  celldm(6)=   0.000000

     crystal axes: (cart. coord. in units of alat)
               a(1) = (   1.000000   0.000000   0.000000 )  
               a(2) = (   0.500000   0.866025   0.000000 )  
               a(3) = (   0.500000   0.288675   0.816497 )  

     reciprocal axes: (cart. coord. in units 2 pi/alat)
               b(1) = (  1.000000 -0.577350 -0.408248 )  
               b(2) = (  0.000000  1.154701 -0.408248 )  
               b(3) = (  0.000000  0.000000  1.224745 )  


     PseudoPot. # 1 for Y  read from file:
     /home/pragov/projects/rrg-bengioy-ad/pragov/crystal_structure_design/SSSP/Y_pbe_v1.uspp.F.UPF
     MD5 check sum: 2cf71db95cafeb975fc457bd7f14888e
     Pseudo is Ultrasoft + core correction, Zval = 11.0
     Generated by new atomic code, or converted to UPF format
     Using radial grid of  885 points,  6 beta functions with: 
                l(1) =   0
                l(2) =   0
                l(3) =   1
                l(4) =   1
                l(5) =   2
                l(6) =   2
     Q(r) pseudized with  6 coefficients,  rinner =    1.200   1.200   1.200
                                                       1.200   1.200

     PseudoPot. # 2 for Pd read from file:
     /home/pragov/projects/rrg-bengioy-ad/pragov/crystal_structure_design/SSSP/Pd_ONCV_PBE-1.0.oncvpsp.upf
     MD5 check sum: eb77f42b51d86fb18e25f68156a31cf1
     Pseudo is Norm-conserving, Zval = 18.0
     Generated using ONCVPSP code by D. R. Hamann
     Using radial grid of 1410 points,  6 beta functions with: 
                l(1) =   0
                l(2) =   0
                l(3) =   1
                l(4) =   1
                l(5) =   2
                l(6) =   2

     PseudoPot. # 3 for Pb read from file:
     /home/pragov/projects/rrg-bengioy-ad/pragov/crystal_structure_design/SSSP/Pb.pbe-dn-kjpaw_psl.0.2.2.UPF
     MD5 check sum: 9d431e6316058b74ade52399a6cf67da
     Pseudo is Projector augmented-wave + core cor, Zval = 14.0
     Generated using "atomic" code by A. Dal Corso  v.5.0.99 svn rev. 10869
     Shape of augmentation charge: PSQ
     Using radial grid of 1281 points,  6 beta functions with: 
                l(1) =   0
                l(2) =   0
                l(3) =   1
                l(4) =   1
                l(5) =   2
                l(6) =   2
     Q(r) pseudized with 0 coefficients 


     atomic species   valence    mass     pseudopotential
        Y             11.00    88.90584     Y ( 1.00)
        Pd            18.00   106.42000     Pd( 1.00)
        Pb            14.00   207.20000     Pb( 1.00)

     12 Sym. Ops., with inversion, found


                                    s                        frac. trans.

      isym =  1     identity                                     

 cryst.   s( 1) = (     1          0          0      )
                  (     0          1          0      )
                  (     0          0          1      )

 cart.    s( 1) = (  1.0000000  0.0000000  0.0000000 )
                  (  0.0000000  1.0000000  0.0000000 )
                  (  0.0000000  0.0000000  1.0000000 )


      isym =  2     180 deg rotation - cart. axis [1,0,0]        

 cryst.   s( 2) = (     1          0          0      )
                  (     1         -1          0      )
                  (     1          0         -1      )

 cart.    s( 2) = (  1.0000000  0.0000000  0.0000000 )
                  (  0.0000000 -1.0000000 -0.0000000 )
                  (  0.0000000  0.0000000 -1.0000000 )


      isym =  3     120 deg rotation - cryst. axis [0,0,1]       

 cryst.   s( 3) = (    -1          1          0      )
                  (    -1          0          0      )
                  (    -1          0          1      )

 cart.    s( 3) = ( -0.5000000 -0.8660254  0.0000000 )
                  (  0.8660254 -0.5000000  0.0000000 )
                  (  0.0000000  0.0000000  1.0000000 )


      isym =  4     120 deg rotation - cryst. axis [0,0,-1]      

 cryst.   s( 4) = (     0         -1          0      )
                  (     1         -1          0      )
                  (     0         -1          1      )

 cart.    s( 4) = ( -0.5000000  0.8660254 -0.0000000 )
                  ( -0.8660254 -0.5000000  0.0000000 )
                  (  0.0000000  0.0000000  1.0000000 )


      isym =  5     180 deg rotation - cryst. axis [0,1,0]       

 cryst.   s( 5) = (     0         -1          0      )
                  (    -1          0          0      )
                  (     0          0         -1      )

 cart.    s( 5) = ( -0.5000000 -0.8660254  0.0000000 )
                  ( -0.8660254  0.5000000 -0.0000000 )
                  (  0.0000000  0.0000000 -1.0000000 )


      isym =  6     180 deg rotation - cryst. axis [1,1,0]       

 cryst.   s( 6) = (    -1          1          0      )
                  (     0          1          0      )
                  (     0          1         -1      )

 cart.    s( 6) = ( -0.5000000  0.8660254 -0.0000000 )
                  (  0.8660254  0.5000000 -0.0000000 )
                  (  0.0000000  0.0000000 -1.0000000 )


      isym =  7     inversion                                    

 cryst.   s( 7) = (    -1          0          0      )
                  (     0         -1          0      )
                  (     0          0         -1      )

 cart.    s( 7) = ( -1.0000000  0.0000000  0.0000000 )
                  (  0.0000000 -1.0000000 -0.0000000 )
                  (  0.0000000  0.0000000 -1.0000000 )


      isym =  8     inv. 180 deg rotation - cart. axis [1,0,0]   

 cryst.   s( 8) = (    -1          0          0      )
                  (    -1          1          0      )
                  (    -1          0          1      )

 cart.    s( 8) = ( -1.0000000  0.0000000  0.0000000 )
                  (  0.0000000  1.0000000  0.0000000 )
                  (  0.0000000  0.0000000  1.0000000 )


      isym =  9     inv. 120 deg rotation - cryst. axis [0,0,1]  

 cryst.   s( 9) = (     1         -1          0      )
                  (     1          0          0      )
                  (     1          0         -1      )

 cart.    s( 9) = (  0.5000000  0.8660254 -0.0000000 )
                  ( -0.8660254  0.5000000 -0.0000000 )
                  (  0.0000000  0.0000000 -1.0000000 )


      isym = 10     inv. 120 deg rotation - cryst. axis [0,0,-1] 

 cryst.   s(10) = (     0          1          0      )
                  (    -1          1          0      )
                  (     0          1         -1      )

 cart.    s(10) = (  0.5000000 -0.8660254  0.0000000 )
                  (  0.8660254  0.5000000 -0.0000000 )
                  (  0.0000000  0.0000000 -1.0000000 )


      isym = 11     inv. 180 deg rotation - cryst. axis [0,1,0]  

 cryst.   s(11) = (     0          1          0      )
                  (     1          0          0      )
                  (     0          0          1      )

 cart.    s(11) = (  0.5000000  0.8660254 -0.0000000 )
                  (  0.8660254 -0.5000000  0.0000000 )
                  (  0.0000000  0.0000000  1.0000000 )


      isym = 12     inv. 180 deg rotation - cryst. axis [1,1,0]  

 cryst.   s(12) = (     1         -1          0      )
                  (     0         -1          0      )
                  (     0         -1          1      )

 cart.    s(12) = (  0.5000000 -0.8660254  0.0000000 )
                  ( -0.8660254 -0.5000000  0.0000000 )
                  (  0.0000000  0.0000000  1.0000000 )


   Cartesian axes

     site n.     atom                  positions (alat units)
         1           Y   tau(   1) = (   1.0000000   0.5773503   0.4082483  )
         2           Pd  tau(   2) = (   1.5000000   0.8660254   0.6123724  )
         3           Pd  tau(   3) = (   0.5000000   0.2886751   0.2041241  )
         4           Pb  tau(   4) = (   0.0000000   0.0000000   0.0000000  )

   Crystallographic axes

     site n.     atom                  positions (cryst. coord.)
         1           Y   tau(   1) = (  0.5000000  0.5000000  0.5000000  )
         2           Pd  tau(   2) = (  0.7500000  0.7500000  0.7500000  )
         3           Pd  tau(   3) = (  0.2500000  0.2500000  0.2500000  )
         4           Pb  tau(   4) = (  0.0000000  0.0000000  0.0000000  )

     number of k points=     1  Methfessel-Paxton smearing, width (Ry)=  0.0010
                       cart. coord. in units 2pi/alat
        k(    1) = (   0.0000000   0.0000000   0.0000000), wk =   2.0000000

                       cryst. coord.
        k(    1) = (   0.0000000   0.0000000   0.0000000), wk =   2.0000000

     Dense  grid:    17527 G-vectors     FFT dimensions: (  45,  45,  45)

     Smooth grid:     6170 G-vectors     FFT dimensions: (  36,  36,  36)

     Dynamical RAM for                 wfc:       0.44 MB

     Dynamical RAM for     wfc (w. buffer):       0.44 MB

     Dynamical RAM for           str. fact:       0.80 MB

     Dynamical RAM for           local pot:       0.00 MB

     Dynamical RAM for          nlocal pot:       0.85 MB

     Dynamical RAM for                qrad:       3.73 MB

     Dynamical RAM for          rho,v,vnew:       2.89 MB

     Dynamical RAM for               rhoin:       0.96 MB

     Dynamical RAM for            rho*nmix:       4.28 MB

     Dynamical RAM for           G-vectors:       1.05 MB

     Dynamical RAM for          h,s,v(r/c):       0.13 MB

     Dynamical RAM for          <psi|beta>:       0.02 MB

     Dynamical RAM for                 psi:       0.87 MB

     Dynamical RAM for                hpsi:       0.87 MB

     Dynamical RAM for                spsi:       0.87 MB

     Dynamical RAM for      wfcinit/wfcrot:       1.03 MB

     Dynamical RAM for           addusdens:      50.01 MB

     Dynamical RAM for          addusforce:      50.15 MB

     Dynamical RAM for         addusstress:      53.76 MB

     Estimated static dynamical RAM per process >      15.27 MB

     Estimated max dynamical RAM per process >      73.30 MB

     Check: negative core charge=   -0.000004

     Initial potential from superposition of free atoms

     starting charge      60.9925, renormalised to      61.0000

     negative rho (up, down):  4.437E-02 0.000E+00
     Starting wfcs are   42 randomized atomic wfcs
     Checking if some PAW data can be deallocated... 

     total cpu time spent up to now is        3.5 secs

     Self-consistent Calculation

     iteration #  1     ecut=    30.00 Ry     beta= 0.70
     Davidson diagonalization with overlap

---- Real-time Memory Report at c_bands before calling an iterative solver
           319 MiB given to the printing process from OS
             0 MiB allocation reported by mallinfo(arena+hblkhd)
         77837 MiB available memory on the node where the printing process lives
------------------
     ethr =  1.00E-02,  avg # of iterations =  2.0

     Threshold (ethr) on eigenvalues was too large:
     Diagonalizing with lowered threshold

     Davidson diagonalization with overlap

---- Real-time Memory Report at c_bands before calling an iterative solver
           462 MiB given to the printing process from OS
             0 MiB allocation reported by mallinfo(arena+hblkhd)
         77659 MiB available memory on the node where the printing process lives
------------------
     ethr =  7.16E-04,  avg # of iterations =  4.0
     Minimization algorithm failed to find Fermi energy: reverting to bisection
     Possible cause: smearing is larger than the electronic band-gap.

     negative rho (up, down):  4.091E-02 0.000E+00

     total cpu time spent up to now is        4.1 secs

     total energy              =   -1462.96067708 Ry
     estimated scf accuracy    <       0.75554546 Ry

     iteration #  2     ecut=    30.00 Ry     beta= 0.70
     Davidson diagonalization with overlap

---- Real-time Memory Report at c_bands before calling an iterative solver
           473 MiB given to the printing process from OS
             0 MiB allocation reported by mallinfo(arena+hblkhd)
         77646 MiB available memory on the node where the printing process lives
------------------
     ethr =  1.24E-03,  avg # of iterations =  3.0

     negative rho (up, down):  4.124E-02 0.000E+00

     total cpu time spent up to now is        4.5 secs

     total energy              =   -1463.06633778 Ry
     estimated scf accuracy    <       2.04924628 Ry

     iteration #  3     ecut=    30.00 Ry     beta= 0.70
     Davidson diagonalization with overlap

---- Real-time Memory Report at c_bands before calling an iterative solver
           486 MiB given to the printing process from OS
             0 MiB allocation reported by mallinfo(arena+hblkhd)
         77637 MiB available memory on the node where the printing process lives
------------------
     ethr =  1.24E-03,  avg # of iterations =  2.0

     negative rho (up, down):  4.162E-02 0.000E+00

     total cpu time spent up to now is        4.8 secs

     total energy              =   -1463.41210566 Ry
     estimated scf accuracy    <       0.29231701 Ry

     iteration #  4     ecut=    30.00 Ry     beta= 0.70
     Davidson diagonalization with overlap

---- Real-time Memory Report at c_bands before calling an iterative solver
           486 MiB given to the printing process from OS
             0 MiB allocation reported by mallinfo(arena+hblkhd)
         77636 MiB available memory on the node where the printing process lives
------------------
     ethr =  4.79E-04,  avg # of iterations =  2.0

     negative rho (up, down):  4.190E-02 0.000E+00

     total cpu time spent up to now is        5.1 secs

     total energy              =   -1463.40967325 Ry
     estimated scf accuracy    <       0.12548734 Ry

     iteration #  5     ecut=    30.00 Ry     beta= 0.70
     Davidson diagonalization with overlap

---- Real-time Memory Report at c_bands before calling an iterative solver
           487 MiB given to the printing process from OS
             0 MiB allocation reported by mallinfo(arena+hblkhd)
         77634 MiB available memory on the node where the printing process lives
------------------
     ethr =  2.06E-04,  avg # of iterations =  2.0

     negative rho (up, down):  4.290E-02 0.000E+00

     total cpu time spent up to now is        5.4 secs

     total energy              =   -1463.41742713 Ry
     estimated scf accuracy    <       0.11493747 Ry

     iteration #  6     ecut=    30.00 Ry     beta= 0.70
     Davidson diagonalization with overlap

---- Real-time Memory Report at c_bands before calling an iterative solver
           487 MiB given to the printing process from OS
             0 MiB allocation reported by mallinfo(arena+hblkhd)
         77634 MiB available memory on the node where the printing process lives
------------------
     ethr =  1.88E-04,  avg # of iterations =  1.0

     negative rho (up, down):  4.291E-02 0.000E+00

     total cpu time spent up to now is        5.7 secs

     total energy              =   -1463.42101381 Ry
     estimated scf accuracy    <       0.07503230 Ry

     iteration #  7     ecut=    30.00 Ry     beta= 0.70
     Davidson diagonalization with overlap

---- Real-time Memory Report at c_bands before calling an iterative solver
           487 MiB given to the printing process from OS
             0 MiB allocation reported by mallinfo(arena+hblkhd)
         77691 MiB available memory on the node where the printing process lives
------------------
     ethr =  1.23E-04,  avg # of iterations =  1.0

     negative rho (up, down):  4.299E-02 0.000E+00

     total cpu time spent up to now is        6.1 secs

     total energy              =   -1463.42056495 Ry
     estimated scf accuracy    <       0.08672601 Ry

     iteration #  8     ecut=    30.00 Ry     beta= 0.70
     Davidson diagonalization with overlap

---- Real-time Memory Report at c_bands before calling an iterative solver
           489 MiB given to the printing process from OS
             0 MiB allocation reported by mallinfo(arena+hblkhd)
         77659 MiB available memory on the node where the printing process lives
------------------
     ethr =  1.23E-04,  avg # of iterations =  1.0

     negative rho (up, down):  4.304E-02 0.000E+00

     total cpu time spent up to now is        6.4 secs

     total energy              =   -1463.42297041 Ry
     estimated scf accuracy    <       0.05523768 Ry

     iteration #  9     ecut=    30.00 Ry     beta= 0.70
     Davidson diagonalization with overlap

---- Real-time Memory Report at c_bands before calling an iterative solver
           489 MiB given to the printing process from OS
             0 MiB allocation reported by mallinfo(arena+hblkhd)
         77658 MiB available memory on the node where the printing process lives
------------------
     ethr =  9.06E-05,  avg # of iterations =  1.0

     negative rho (up, down):  4.305E-02 0.000E+00

     total cpu time spent up to now is        7.6 secs

     total energy              =   -1463.42066055 Ry
     estimated scf accuracy    <       0.06842044 Ry

     iteration # 10     ecut=    30.00 Ry     beta= 0.70
     Davidson diagonalization with overlap

---- Real-time Memory Report at c_bands before calling an iterative solver
           489 MiB given to the printing process from OS
             0 MiB allocation reported by mallinfo(arena+hblkhd)
         77655 MiB available memory on the node where the printing process lives
------------------
     ethr =  9.06E-05,  avg # of iterations =  1.0

     negative rho (up, down):  4.306E-02 0.000E+00

     total cpu time spent up to now is        8.3 secs

     total energy              =   -1463.42260644 Ry
     estimated scf accuracy    <       0.08581574 Ry

     iteration # 11     ecut=    30.00 Ry     beta= 0.70
     Davidson diagonalization with overlap

---- Real-time Memory Report at c_bands before calling an iterative solver
           489 MiB given to the printing process from OS
             0 MiB allocation reported by mallinfo(arena+hblkhd)
         77654 MiB available memory on the node where the printing process lives
------------------
     ethr =  9.06E-05,  avg # of iterations =  1.0

     negative rho (up, down):  4.304E-02 0.000E+00

     total cpu time spent up to now is        8.6 secs

     total energy              =   -1463.42270656 Ry
     estimated scf accuracy    <       0.00596896 Ry

     iteration # 12     ecut=    30.00 Ry     beta= 0.70
     Davidson diagonalization with overlap

---- Real-time Memory Report at c_bands before calling an iterative solver
           489 MiB given to the printing process from OS
             0 MiB allocation reported by mallinfo(arena+hblkhd)
         77654 MiB available memory on the node where the printing process lives
------------------
     ethr =  9.79E-06,  avg # of iterations =  1.0

     negative rho (up, down):  4.303E-02 0.000E+00

     total cpu time spent up to now is        8.9 secs

     total energy              =   -1463.42320559 Ry
     estimated scf accuracy    <       0.05977714 Ry

     iteration # 13     ecut=    30.00 Ry     beta= 0.70
     Davidson diagonalization with overlap

---- Real-time Memory Report at c_bands before calling an iterative solver
           489 MiB given to the printing process from OS
             0 MiB allocation reported by mallinfo(arena+hblkhd)
         77654 MiB available memory on the node where the printing process lives
------------------
     ethr =  9.79E-06,  avg # of iterations =  1.0

     negative rho (up, down):  4.304E-02 0.000E+00

     total cpu time spent up to now is        9.2 secs

     total energy              =   -1463.42285835 Ry
     estimated scf accuracy    <       0.02372661 Ry

     iteration # 14     ecut=    30.00 Ry     beta= 0.70
     Davidson diagonalization with overlap

---- Real-time Memory Report at c_bands before calling an iterative solver
           489 MiB given to the printing process from OS
             0 MiB allocation reported by mallinfo(arena+hblkhd)
         77654 MiB available memory on the node where the printing process lives
------------------
     ethr =  9.79E-06,  avg # of iterations =  1.0

     negative rho (up, down):  4.304E-02 0.000E+00

     total cpu time spent up to now is        9.5 secs

     total energy              =   -1463.42313044 Ry
     estimated scf accuracy    <       0.00102698 Ry

     iteration # 15     ecut=    30.00 Ry     beta= 0.70
     Davidson diagonalization with overlap

---- Real-time Memory Report at c_bands before calling an iterative solver
           489 MiB given to the printing process from OS
             0 MiB allocation reported by mallinfo(arena+hblkhd)
         77654 MiB available memory on the node where the printing process lives
------------------
     ethr =  1.68E-06,  avg # of iterations =  1.0

     negative rho (up, down):  4.304E-02 0.000E+00

     total cpu time spent up to now is        9.8 secs

     total energy              =   -1463.42312895 Ry
     estimated scf accuracy    <       0.00110742 Ry

     iteration # 16     ecut=    30.00 Ry     beta= 0.70
     Davidson diagonalization with overlap

---- Real-time Memory Report at c_bands before calling an iterative solver
           489 MiB given to the printing process from OS
             0 MiB allocation reported by mallinfo(arena+hblkhd)
         77653 MiB available memory on the node where the printing process lives
------------------
     ethr =  1.68E-06,  avg # of iterations =  1.0

     negative rho (up, down):  4.304E-02 0.000E+00

     total cpu time spent up to now is       10.1 secs

     total energy              =   -1463.42313193 Ry
     estimated scf accuracy    <       0.00026054 Ry

     iteration # 17     ecut=    30.00 Ry     beta= 0.70
     Davidson diagonalization with overlap

---- Real-time Memory Report at c_bands before calling an iterative solver
           489 MiB given to the printing process from OS
             0 MiB allocation reported by mallinfo(arena+hblkhd)
         77653 MiB available memory on the node where the printing process lives
------------------
     ethr =  4.27E-07,  avg # of iterations =  3.0

     negative rho (up, down):  4.304E-02 0.000E+00

     total cpu time spent up to now is       10.5 secs

     total energy              =   -1463.42314215 Ry
     estimated scf accuracy    <       0.00002218 Ry

     iteration # 18     ecut=    30.00 Ry     beta= 0.70
     Davidson diagonalization with overlap

---- Real-time Memory Report at c_bands before calling an iterative solver
           489 MiB given to the printing process from OS
             0 MiB allocation reported by mallinfo(arena+hblkhd)
         77653 MiB available memory on the node where the printing process lives
------------------
     ethr =  3.64E-08,  avg # of iterations =  5.0

     negative rho (up, down):  4.304E-02 0.000E+00

     total cpu time spent up to now is       10.8 secs

     total energy              =   -1463.42314514 Ry
     estimated scf accuracy    <       0.00014422 Ry

     iteration # 19     ecut=    30.00 Ry     beta= 0.70
     Davidson diagonalization with overlap

---- Real-time Memory Report at c_bands before calling an iterative solver
           489 MiB given to the printing process from OS
             0 MiB allocation reported by mallinfo(arena+hblkhd)
         77654 MiB available memory on the node where the printing process lives
------------------
     ethr =  3.64E-08,  avg # of iterations =  2.0

     negative rho (up, down):  4.304E-02 0.000E+00

     total cpu time spent up to now is       11.1 secs

     total energy              =   -1463.42314312 Ry
     estimated scf accuracy    <       0.00013483 Ry

     iteration # 20     ecut=    30.00 Ry     beta= 0.70
     Davidson diagonalization with overlap

---- Real-time Memory Report at c_bands before calling an iterative solver
           489 MiB given to the printing process from OS
             0 MiB allocation reported by mallinfo(arena+hblkhd)
         77701 MiB available memory on the node where the printing process lives
------------------
     ethr =  3.64E-08,  avg # of iterations =  1.0

     negative rho (up, down):  4.304E-02 0.000E+00

     total cpu time spent up to now is       11.4 secs

     total energy              =   -1463.42314464 Ry
     estimated scf accuracy    <       0.00000258 Ry

     iteration # 21     ecut=    30.00 Ry     beta= 0.70
     Davidson diagonalization with overlap

---- Real-time Memory Report at c_bands before calling an iterative solver
           489 MiB given to the printing process from OS
             0 MiB allocation reported by mallinfo(arena+hblkhd)
         77654 MiB available memory on the node where the printing process lives
------------------
     ethr =  4.23E-09,  avg # of iterations =  3.0

     negative rho (up, down):  4.304E-02 0.000E+00

     total cpu time spent up to now is       11.7 secs

     End of self-consistent calculation

          k = 0.0000 0.0000 0.0000 (   736 PWs)   bands (ev):

   -70.4336 -70.4319 -35.7560 -35.7560 -35.7560 -35.7517 -35.7517 -35.7517
   -25.4364  -5.5947  -5.5947  -5.5946  -1.1814  -1.1811  -1.1795  -1.1793
    -1.1792   5.3715  11.4244  11.4244  11.4244  11.5563  11.5563  12.8404
    12.8404  12.8405  13.6524  13.6524  15.6798  16.2799  16.2799  16.2799
    17.9917  17.9917  17.9917  19.3946  19.3946

     occupation numbers 
     1.0000   1.0000   1.0000   1.0000   1.0000   1.0000   1.0000   1.0000
     1.0000   1.0000   1.0000   1.0000   1.0000   1.0000   1.0000   1.0000
     1.0000   1.0000   1.0000   1.0000   1.0000   1.0000   1.0000   1.0000
     1.0000   1.0000   1.0000   1.0000   1.0000   0.5007   0.5000   0.4993
    -0.0000  -0.0000  -0.0000  -0.0000  -0.0000

     the Fermi energy is    16.2799 ev

!    total energy              =   -1463.42314458 Ry
     estimated scf accuracy    <       0.00000058 Ry
     smearing contrib. (-TS)   =      -0.00084628 Ry
     internal energy E=F+TS    =   -1463.42229829 Ry

     The total energy is F=E-TS. E is the sum of the following terms:
     one-electron contribution =    -251.21627402 Ry
     hartree contribution      =     161.58481063 Ry
     xc contribution           =    -116.21905866 Ry
     ewald contribution        =    -529.05158655 Ry
     one-center paw contrib.   =    -728.52018969 Ry
      -> PAW hartree energy AE =     101.84419281 Ry
      -> PAW hartree energy PS =    -101.65701498 Ry
      -> PAW xc energy AE      =    -772.76831119 Ry
      -> PAW xc energy PS      =      44.06094367 Ry
      -> total E_H with PAW    =     161.77198846 Ry
      -> total E_XC with PAW   =    -844.92642618 Ry

     convergence has been achieved in  21 iterations

     negative rho (up, down):  4.304E-02 0.000E+00

     Forces acting on atoms (cartesian axes, Ry/au):

     atom    1 type  1   force =     0.00000000    0.00000000    0.00000000
     atom    2 type  2   force =     0.00000000    0.00000000   -0.00005519
     atom    3 type  2   force =    -0.00000000   -0.00000000    0.00005519
     atom    4 type  3   force =     0.00000000    0.00000000   -0.00000000
     The non-local contrib.  to forces
     atom    1 type  1   force =     0.00000000    0.00000000   -0.00000000
     atom    2 type  2   force =     0.00000000    0.00000000   -0.00005721
     atom    3 type  2   force =    -0.00000000   -0.00000000    0.00005721
     atom    4 type  3   force =    -0.00000000   -0.00000000    0.00000000
     The ionic contribution  to forces
     atom    1 type  1   force =     0.00000000   -0.00000000   -0.00000000
     atom    2 type  2   force =     0.00000000   -0.00000000   -0.00000000
     atom    3 type  2   force =     0.00000000    0.00000000    0.00000000
     atom    4 type  3   force =    -0.00000000    0.00000000    0.00000000
     The local contribution  to forces
     atom    1 type  1   force =     0.00000413   -0.00001556   -0.00000317
     atom    2 type  2   force =    -0.00018397    0.00039287    0.00020956
     atom    3 type  2   force =     0.00020549   -0.00037653   -0.00017646
     atom    4 type  3   force =     0.00000683    0.00001873    0.00001150
     The core correction contribution to forces
     atom    1 type  1   force =     0.00000069   -0.00000031    0.00000009
     atom    2 type  2   force =     0.00000000    0.00000000    0.00000000
     atom    3 type  2   force =     0.00000000    0.00000000    0.00000000
     atom    4 type  3   force =    -0.00000092    0.00000068    0.00000006
     The Hubbard contrib.    to forces
     atom    1 type  1   force =     0.00000000    0.00000000    0.00000000
     atom    2 type  2   force =     0.00000000    0.00000000    0.00000000
     atom    3 type  2   force =     0.00000000    0.00000000    0.00000000
     atom    4 type  3   force =     0.00000000    0.00000000    0.00000000
     The SCF correction term to forces
     atom    1 type  1   force =    -0.00000180    0.00001244    0.00000563
     atom    2 type  2   force =     0.00002241   -0.00022018   -0.00019933
     atom    3 type  2   force =    -0.00000625    0.00020209    0.00018263
     atom    4 type  3   force =    -0.00001718   -0.00001869   -0.00001835

     Total force =     0.000078     Total SCF correction =     0.000405
     SCF correction compared to forces is large: reduce conv_thr to get better values


     Computing stress (Cartesian axis) and pressure


     negative rho (up, down):  4.304E-02 0.000E+00
          total   stress  (Ry/bohr**3)                   (kbar)     P=     -526.49
  -0.00357897   0.00000000  -0.00000000         -526.48        0.00       -0.00
   0.00000000  -0.00357897   0.00000000            0.00     -526.48        0.00
  -0.00000000   0.00000000  -0.00357918           -0.00        0.00     -526.52

     kinetic stress (kbar)  39486.47     -0.00     -0.00
                               -0.00  39486.47     -0.00
                               -0.00     -0.00  39486.63

     local   stress (kbar)  -8736.71     -0.20     -0.60
                               -0.20  -8737.16      0.72
                               -0.60      0.72  -8737.29

     nonloc. stress (kbar)   8612.76      0.00     -0.00
                                0.00   8612.76     -0.00
                               -0.00     -0.00   8612.77

     hartree stress (kbar)  14226.27     -0.04      0.43
                               -0.04  14226.15     -0.52
                                0.43     -0.52  14226.36

     exc-cor stress (kbar)   3281.52      0.00      0.00
                                0.00   3281.52     -0.00
                                0.00     -0.00   3281.52

     corecor stress (kbar) -10817.71     -0.01      0.00
                               -0.01 -10817.72      0.00
                                0.00      0.00 -10817.72

     ewald   stress (kbar) -46578.79      0.00     -0.00
                                0.00 -46578.79      0.00
                               -0.00      0.00 -46578.79

     hubbard stress (kbar)      0.00      0.00      0.00
                                0.00      0.00      0.00
                                0.00      0.00      0.00

     DFT-D   stress (kbar)      0.00      0.00      0.00
                                0.00      0.00      0.00
                                0.00      0.00      0.00

     XDM     stress (kbar)      0.00      0.00      0.00
                                0.00      0.00      0.00
                                0.00      0.00      0.00

     dft-nl  stress (kbar)      0.00      0.00      0.00
                                0.00      0.00      0.00
                                0.00      0.00      0.00

     TS-vdW  stress (kbar)      0.00      0.00      0.00
                                0.00      0.00      0.00
                                0.00      0.00      0.00


                                0.00      0.00      0.00
                                0.00      0.00      0.00


                                0.00      0.00      0.00


     Writing all to output data dir new_calculations/myprefix.save/
 
     init_run     :     81.86s CPU      3.19s WALL (       1 calls)
     electrons    :    258.14s CPU      8.49s WALL (       1 calls)
     forces       :      1.28s CPU      0.04s WALL (       1 calls)
     stress       :      3.72s CPU      0.12s WALL (       1 calls)

     Called by init_run:
     wfcinit      :     18.60s CPU      0.61s WALL (       1 calls)
     wfcinit:atom :      0.01s CPU      0.00s WALL (       1 calls)
     wfcinit:wfcr :     18.50s CPU      0.60s WALL (       1 calls)
     potinit      :     19.27s CPU      0.65s WALL (       1 calls)
     hinit0       :     41.09s CPU      1.82s WALL (       1 calls)

     Called by electrons:
     c_bands      :    125.93s CPU      4.06s WALL (      22 calls)
     sum_band     :     50.48s CPU      1.63s WALL (      22 calls)
     v_of_rho     :      6.60s CPU      0.22s WALL (      22 calls)
     v_h          :      0.55s CPU      0.02s WALL (      22 calls)
     v_xc         :      6.47s CPU      0.22s WALL (      24 calls)
     newd         :     24.80s CPU      0.82s WALL (      22 calls)
     PAW_pot      :     45.16s CPU      1.54s WALL (      22 calls)
     mix_rho      :      2.08s CPU      0.07s WALL (      22 calls)

     Called by c_bands:
     init_us_2    :      0.45s CPU      0.02s WALL (      45 calls)
     init_us_2:cp :      0.38s CPU      0.01s WALL (      45 calls)
     regterg      :    124.54s CPU      4.01s WALL (      22 calls)

     Called by sum_band:
     sum_band:wei :      0.10s CPU      0.00s WALL (      22 calls)
     sum_band:loo :     24.46s CPU      0.78s WALL (      22 calls)
     sum_band:buf :      0.02s CPU      0.00s WALL (      22 calls)
     sum_band:ini :      0.24s CPU      0.01s WALL (      22 calls)
     sum_band:cal :      0.11s CPU      0.00s WALL (      22 calls)
     sum_band:bec :      0.04s CPU      0.00s WALL (      22 calls)
     addusdens    :     24.61s CPU      0.80s WALL (      22 calls)
     addusd:skk   :      0.05s CPU      0.00s WALL (      44 calls)
     addusd:dgemm :      3.05s CPU      0.11s WALL (      44 calls)
     addusd:qvan2 :     20.99s CPU      0.68s WALL (      44 calls)

     Called by *egterg:
     rdiaghg      :      2.88s CPU      0.10s WALL (      61 calls)
     regterg:over :      0.14s CPU      0.00s WALL (      40 calls)
     regterg:upda :      0.21s CPU      0.01s WALL (      40 calls)
     regterg:last :      0.29s CPU      0.01s WALL (      32 calls)
     h_psi        :    138.16s CPU      4.45s WALL (      63 calls)
     s_psi        :      0.08s CPU      0.00s WALL (      63 calls)
     g_psi        :      0.04s CPU      0.00s WALL (      40 calls)

     Called by h_psi:
     h_psi:calbec :      0.35s CPU      0.01s WALL (      63 calls)
     vloc_psi     :    137.31s CPU      4.43s WALL (      63 calls)
     add_vuspsi   :      0.16s CPU      0.01s WALL (      63 calls)

     General routines
     calbec       :      0.35s CPU      0.01s WALL (      90 calls)
     fft          :     31.48s CPU      1.07s WALL (     261 calls)
     ffts         :     16.35s CPU      0.55s WALL (      44 calls)
     fftw         :    151.44s CPU      4.87s WALL (    2232 calls)
     interpolate  :     16.84s CPU      0.56s WALL (      22 calls)
 
     Parallel routines

     PAW routines
     PAW_pot      :     45.16s CPU      1.54s WALL (      22 calls)
     PAW_symme    :      0.18s CPU      0.01s WALL (      44 calls)
 
     PWSCF        :   5m53.11s CPU     12.59s WALL

 
   This run was terminated on:  20: 4: 4  21May2023            

=------------------------------------------------------------------------------=
   JOB DONE.
=------------------------------------------------------------------------------=
