
     Program PWSCF v.7.0 starts on 20May2023 at 23:45:48 

     This program is part of the open-source Quantum ESPRESSO suite
     for quantum simulation of materials; please cite
         "P. Giannozzi et al., J. Phys.:Condens. Matter 21 395502 (2009);
         "P. Giannozzi et al., J. Phys.:Condens. Matter 29 465901 (2017);
         "P. Giannozzi et al., J. Chem. Phys. 152 154105 (2020);
          URL http://www.quantum-espresso.org", 
     in publications or presentations arising from this work. More details at
     http://www.quantum-espresso.org/quote

     Parallel version (MPI & OpenMP), running on      32 processor cores
     Number of MPI processes:                 1
     Threads/MPI process:                    32

     MPI processes distributed on     1 nodes
     143580 MiB available memory on the printing compute node when the environment starts
 
     Reading input from espresso_24216.pwi
Warning: card &CELL ignored
Warning: card / ignored

     Current dimensions of program PWSCF are:
     Max number of different atomic species (ntypx) = 10
     Max number of k-points (npk) =  40000
     Max angular momentum in pseudopotentials (lmaxx) =  4

     gamma-point specific algorithms are used
     Message from routine setup:
     using ibrav=0 with symmetry is DISCOURAGED, use correct ibrav instead

     Subspace diagonalization in iterative solution of the eigenvalue problem:
     a serial algorithm will be used

 
     G-vector sticks info
     --------------------
     sticks:   dense  smooth     PW     G-vecs:    dense   smooth      PW
     Sum        1565     777    193                46585    16375    2103
 
     Using Slab Decomposition
 


     bravais-lattice index     =            0
     lattice parameter (alat)  =       9.0425  a.u.
     unit-cell volume          =     739.3875 (a.u.)^3
     number of atoms/cell      =            8
     number of atomic types    =            2
     number of electrons       =        76.00
     number of Kohn-Sham states=           46
     kinetic-energy cutoff     =      30.0000  Ry
     charge density cutoff     =     240.0000  Ry
     scf convergence threshold =      1.0E-06
     mixing beta               =       0.7000
     number of iterations used =            8  plain     mixing
     Exchange-correlation= PBE
                           (   1   4   3   4   0   0   0)

     celldm(1)=   9.042545  celldm(2)=   0.000000  celldm(3)=   0.000000
     celldm(4)=   0.000000  celldm(5)=   0.000000  celldm(6)=   0.000000

     crystal axes: (cart. coord. in units of alat)
               a(1) = (   1.000000   0.000000   0.000000 )  
               a(2) = (   0.000000   1.000000   0.000000 )  
               a(3) = (   0.000000   0.000000   1.000000 )  

     reciprocal axes: (cart. coord. in units 2 pi/alat)
               b(1) = (  1.000000  0.000000  0.000000 )  
               b(2) = (  0.000000  1.000000  0.000000 )  
               b(3) = (  0.000000  0.000000  1.000000 )  


     PseudoPot. # 1 for Si read from file:
     /home/pragov/projects/rrg-bengioy-ad/pragov/crystal_structure_design/SSSP/Si.pbe-n-rrkjus_psl.1.0.0.UPF
     MD5 check sum: 0b0bb1205258b0d07b9f9672cf965d36
     Pseudo is Ultrasoft + core correction, Zval =  4.0
     Generated using "atomic" code by A. Dal Corso  v.5.1
     Using radial grid of 1141 points,  6 beta functions with: 
                l(1) =   0
                l(2) =   0
                l(3) =   1
                l(4) =   1
                l(5) =   2
                l(6) =   2
     Q(r) pseudized with 0 coefficients 


     PseudoPot. # 2 for Tc read from file:
     /home/pragov/projects/rrg-bengioy-ad/pragov/crystal_structure_design/SSSP/Tc_ONCV_PBE-1.0.oncvpsp.upf
     MD5 check sum: 1c2b1e6c8b361b656073c0c20ed4f60a
     Pseudo is Norm-conserving, Zval = 15.0
     Generated using ONCVPSP code by D. R. Hamann
     Using radial grid of 1492 points,  6 beta functions with: 
                l(1) =   0
                l(2) =   0
                l(3) =   1
                l(4) =   1
                l(5) =   2
                l(6) =   2

     atomic species   valence    mass     pseudopotential
        Si             4.00    28.08500     Si( 1.00)
        Tc            15.00    97.90721     Tc( 1.00)

     12 Sym. Ops. (no inversion) found ( 9 have fractional translation)


                                    s                        frac. trans.

      isym =  1     identity                                     

 cryst.   s( 1) = (     1          0          0      )
                  (     0          1          0      )
                  (     0          0          1      )

 cart.    s( 1) = (  1.0000000  0.0000000  0.0000000 )
                  (  0.0000000  1.0000000  0.0000000 )
                  (  0.0000000  0.0000000  1.0000000 )


      isym =  2     180 deg rotation - cart. axis [0,0,1]        

 cryst.   s( 2) = (    -1          0          0      )    f =( -0.5000000 )
                  (     0         -1          0      )       (  0.0000000 )
                  (     0          0          1      )       (  0.5000000 )

 cart.    s( 2) = ( -1.0000000  0.0000000  0.0000000 )    f =( -0.5000000 )
                  (  0.0000000 -1.0000000  0.0000000 )       (  0.0000000 )
                  (  0.0000000  0.0000000  1.0000000 )       (  0.5000000 )


      isym =  3     180 deg rotation - cart. axis [0,1,0]        

 cryst.   s( 3) = (    -1          0          0      )    f =(  0.0000000 )
                  (     0          1          0      )       (  0.5000000 )
                  (     0          0         -1      )       ( -0.5000000 )

 cart.    s( 3) = ( -1.0000000  0.0000000  0.0000000 )    f =(  0.0000000 )
                  (  0.0000000  1.0000000  0.0000000 )       (  0.5000000 )
                  (  0.0000000  0.0000000 -1.0000000 )       ( -0.5000000 )


      isym =  4     180 deg rotation - cart. axis [1,0,0]        

 cryst.   s( 4) = (     1          0          0      )    f =( -0.5000000 )
                  (     0         -1          0      )       ( -0.5000000 )
                  (     0          0         -1      )       (  0.0000000 )

 cart.    s( 4) = (  1.0000000  0.0000000  0.0000000 )    f =( -0.5000000 )
                  (  0.0000000 -1.0000000  0.0000000 )       ( -0.5000000 )
                  (  0.0000000  0.0000000 -1.0000000 )       (  0.0000000 )


      isym =  5     120 deg rotation - cart. axis [-1,-1,-1]     

 cryst.   s( 5) = (     0          0          1      )
                  (     1          0          0      )
                  (     0          1          0      )

 cart.    s( 5) = (  0.0000000  1.0000000  0.0000000 )
                  (  0.0000000  0.0000000  1.0000000 )
                  (  1.0000000  0.0000000  0.0000000 )


      isym =  6     120 deg rotation - cart. axis [-1,1,1]       

 cryst.   s( 6) = (     0          0         -1      )    f =(  0.0000000 )
                  (    -1          0          0      )       (  0.5000000 )
                  (     0          1          0      )       ( -0.5000000 )

 cart.    s( 6) = (  0.0000000 -1.0000000  0.0000000 )    f =(  0.0000000 )
                  (  0.0000000  0.0000000  1.0000000 )       (  0.5000000 )
                  ( -1.0000000  0.0000000  0.0000000 )       ( -0.5000000 )


      isym =  7     120 deg rotation - cart. axis [1,1,-1]       

 cryst.   s( 7) = (     0          0         -1      )    f =( -0.5000000 )
                  (     1          0          0      )       ( -0.5000000 )
                  (     0         -1          0      )       (  0.0000000 )

 cart.    s( 7) = (  0.0000000  1.0000000  0.0000000 )    f =( -0.5000000 )
                  (  0.0000000  0.0000000 -1.0000000 )       ( -0.5000000 )
                  ( -1.0000000  0.0000000  0.0000000 )       (  0.0000000 )


      isym =  8     120 deg rotation - cart. axis [1,-1,1]       

 cryst.   s( 8) = (     0          0          1      )    f =( -0.5000000 )
                  (    -1          0          0      )       (  0.0000000 )
                  (     0         -1          0      )       (  0.5000000 )

 cart.    s( 8) = (  0.0000000 -1.0000000  0.0000000 )    f =( -0.5000000 )
                  (  0.0000000  0.0000000 -1.0000000 )       (  0.0000000 )
                  (  1.0000000  0.0000000  0.0000000 )       (  0.5000000 )


      isym =  9     120 deg rotation - cart. axis [1,1,1]        

 cryst.   s( 9) = (     0          1          0      )
                  (     0          0          1      )
                  (     1          0          0      )

 cart.    s( 9) = (  0.0000000  0.0000000  1.0000000 )
                  (  1.0000000  0.0000000  0.0000000 )
                  (  0.0000000  1.0000000  0.0000000 )


      isym = 10     120 deg rotation - cart. axis [-1,1,-1]      

 cryst.   s(10) = (     0         -1          0      )    f =( -0.5000000 )
                  (     0          0         -1      )       ( -0.5000000 )
                  (     1          0          0      )       (  0.0000000 )

 cart.    s(10) = (  0.0000000  0.0000000  1.0000000 )    f =( -0.5000000 )
                  ( -1.0000000  0.0000000  0.0000000 )       ( -0.5000000 )
                  (  0.0000000 -1.0000000  0.0000000 )       (  0.0000000 )


      isym = 11     120 deg rotation - cart. axis [1,-1,-1]      

 cryst.   s(11) = (     0         -1          0      )    f =( -0.5000000 )
                  (     0          0          1      )       (  0.0000000 )
                  (    -1          0          0      )       (  0.5000000 )

 cart.    s(11) = (  0.0000000  0.0000000 -1.0000000 )    f =( -0.5000000 )
                  ( -1.0000000  0.0000000  0.0000000 )       (  0.0000000 )
                  (  0.0000000  1.0000000  0.0000000 )       (  0.5000000 )


      isym = 12     120 deg rotation - cart. axis [-1,-1,1]      

 cryst.   s(12) = (     0          1          0      )    f =(  0.0000000 )
                  (     0          0         -1      )       (  0.5000000 )
                  (    -1          0          0      )       ( -0.5000000 )

 cart.    s(12) = (  0.0000000  0.0000000 -1.0000000 )    f =(  0.0000000 )
                  (  1.0000000  0.0000000  0.0000000 )       (  0.5000000 )
                  (  0.0000000 -1.0000000  0.0000000 )       ( -0.5000000 )


   Cartesian axes

     site n.     atom                  positions (alat units)
         1           Si  tau(   1) = (   0.6551940   0.1551940   0.3448060  )
         2           Si  tau(   2) = (   0.1551940   0.3448060   0.6551940  )
         3           Si  tau(   3) = (   0.3448060   0.6551940   0.1551940  )
         4           Si  tau(   4) = (   0.8448060   0.8448060   0.8448060  )
         5           Tc  tau(   5) = (   0.3649450   0.8649450   0.6350550  )
         6           Tc  tau(   6) = (   0.8649450   0.6350550   0.3649450  )
         7           Tc  tau(   7) = (   0.6350550   0.3649450   0.8649450  )
         8           Tc  tau(   8) = (   0.1350550   0.1350550   0.1350550  )

   Crystallographic axes

     site n.     atom                  positions (cryst. coord.)
         1           Si  tau(   1) = (  0.6551940  0.1551940  0.3448060  )
         2           Si  tau(   2) = (  0.1551940  0.3448060  0.6551940  )
         3           Si  tau(   3) = (  0.3448060  0.6551940  0.1551940  )
         4           Si  tau(   4) = (  0.8448060  0.8448060  0.8448060  )
         5           Tc  tau(   5) = (  0.3649450  0.8649450  0.6350550  )
         6           Tc  tau(   6) = (  0.8649450  0.6350550  0.3649450  )
         7           Tc  tau(   7) = (  0.6350550  0.3649450  0.8649450  )
         8           Tc  tau(   8) = (  0.1350550  0.1350550  0.1350550  )

     number of k points=     1  Methfessel-Paxton smearing, width (Ry)=  0.0010
                       cart. coord. in units 2pi/alat
        k(    1) = (   0.0000000   0.0000000   0.0000000), wk =   2.0000000

                       cryst. coord.
        k(    1) = (   0.0000000   0.0000000   0.0000000), wk =   2.0000000

     Dense  grid:    23293 G-vectors     FFT dimensions: (  48,  48,  48)

     Smooth grid:     8188 G-vectors     FFT dimensions: (  32,  32,  32)

     Dynamical RAM for                 wfc:       0.72 MB

     Dynamical RAM for     wfc (w. buffer):       0.72 MB

     Dynamical RAM for           str. fact:       0.71 MB

     Dynamical RAM for           local pot:       0.00 MB

     Dynamical RAM for          nlocal pot:       2.25 MB

     Dynamical RAM for                qrad:       2.49 MB

     Dynamical RAM for          rho,v,vnew:       3.60 MB

     Dynamical RAM for               rhoin:       1.20 MB

     Dynamical RAM for            rho*nmix:       5.69 MB

     Dynamical RAM for           G-vectors:       1.40 MB

     Dynamical RAM for          h,s,v(r/c):       0.19 MB

     Dynamical RAM for          <psi|beta>:       0.05 MB

     Dynamical RAM for                 psi:       1.44 MB

     Dynamical RAM for                hpsi:       1.44 MB

     Dynamical RAM for                spsi:       1.44 MB

     Dynamical RAM for      wfcinit/wfcrot:       1.83 MB

     Dynamical RAM for           addusdens:      67.53 MB

     Dynamical RAM for          addusforce:      69.86 MB

     Dynamical RAM for         addusstress:      71.44 MB

     Estimated static dynamical RAM per process >      17.65 MB

     Estimated max dynamical RAM per process >      94.78 MB

     Initial potential from superposition of free atoms

     starting charge      75.9949, renormalised to      76.0000
     Starting wfcs are   56 randomized atomic wfcs

     total cpu time spent up to now is        5.3 secs

     Self-consistent Calculation

     iteration #  1     ecut=    30.00 Ry     beta= 0.70
     Davidson diagonalization with overlap

---- Real-time Memory Report at c_bands before calling an iterative solver
           481 MiB given to the printing process from OS
             0 MiB allocation reported by mallinfo(arena+hblkhd)
        143337 MiB available memory on the node where the printing process lives
------------------
     ethr =  1.00E-02,  avg # of iterations =  2.0

     Threshold (ethr) on eigenvalues was too large:
     Diagonalizing with lowered threshold

     Davidson diagonalization with overlap

---- Real-time Memory Report at c_bands before calling an iterative solver
           493 MiB given to the printing process from OS
             0 MiB allocation reported by mallinfo(arena+hblkhd)
        143334 MiB available memory on the node where the printing process lives
------------------
     ethr =  2.21E-04,  avg # of iterations =  3.0

     total cpu time spent up to now is        5.6 secs

     total energy              =    -690.76604960 Ry
     estimated scf accuracy    <       0.16764047 Ry

     iteration #  2     ecut=    30.00 Ry     beta= 0.70
     Davidson diagonalization with overlap

---- Real-time Memory Report at c_bands before calling an iterative solver
           510 MiB given to the printing process from OS
             0 MiB allocation reported by mallinfo(arena+hblkhd)
        143315 MiB available memory on the node where the printing process lives
------------------
     ethr =  2.21E-04,  avg # of iterations =  2.0

     total cpu time spent up to now is        5.8 secs

     total energy              =    -690.78087253 Ry
     estimated scf accuracy    <       0.02393459 Ry

     iteration #  3     ecut=    30.00 Ry     beta= 0.70
     Davidson diagonalization with overlap

---- Real-time Memory Report at c_bands before calling an iterative solver
           516 MiB given to the printing process from OS
             0 MiB allocation reported by mallinfo(arena+hblkhd)
        143309 MiB available memory on the node where the printing process lives
------------------
     ethr =  3.15E-05,  avg # of iterations =  3.0

     total cpu time spent up to now is        5.9 secs

     total energy              =    -690.75531541 Ry
     estimated scf accuracy    <       0.33466642 Ry

     iteration #  4     ecut=    30.00 Ry     beta= 0.70
     Davidson diagonalization with overlap

---- Real-time Memory Report at c_bands before calling an iterative solver
           516 MiB given to the printing process from OS
             0 MiB allocation reported by mallinfo(arena+hblkhd)
        143308 MiB available memory on the node where the printing process lives
------------------
     ethr =  3.15E-05,  avg # of iterations =  3.0

     total cpu time spent up to now is        6.1 secs

     total energy              =    -690.77094459 Ry
     estimated scf accuracy    <       0.44916524 Ry

     iteration #  5     ecut=    30.00 Ry     beta= 0.70
     Davidson diagonalization with overlap

---- Real-time Memory Report at c_bands before calling an iterative solver
           516 MiB given to the printing process from OS
             0 MiB allocation reported by mallinfo(arena+hblkhd)
        143309 MiB available memory on the node where the printing process lives
------------------
     ethr =  3.15E-05,  avg # of iterations =  2.0

     total cpu time spent up to now is        6.2 secs

     total energy              =    -690.78935449 Ry
     estimated scf accuracy    <       0.00390934 Ry

     iteration #  6     ecut=    30.00 Ry     beta= 0.70
     Davidson diagonalization with overlap

---- Real-time Memory Report at c_bands before calling an iterative solver
           516 MiB given to the printing process from OS
             0 MiB allocation reported by mallinfo(arena+hblkhd)
        143309 MiB available memory on the node where the printing process lives
------------------
     ethr =  5.14E-06,  avg # of iterations =  3.0

     total cpu time spent up to now is        6.3 secs

     total energy              =    -690.78623143 Ry
     estimated scf accuracy    <       0.11546423 Ry

     iteration #  7     ecut=    30.00 Ry     beta= 0.70
     Davidson diagonalization with overlap

---- Real-time Memory Report at c_bands before calling an iterative solver
           519 MiB given to the printing process from OS
             0 MiB allocation reported by mallinfo(arena+hblkhd)
        143307 MiB available memory on the node where the printing process lives
------------------
     ethr =  5.14E-06,  avg # of iterations =  2.0

     total cpu time spent up to now is        6.5 secs

     total energy              =    -690.79011900 Ry
     estimated scf accuracy    <       0.00049161 Ry

     iteration #  8     ecut=    30.00 Ry     beta= 0.70
     Davidson diagonalization with overlap

---- Real-time Memory Report at c_bands before calling an iterative solver
           519 MiB given to the printing process from OS
             0 MiB allocation reported by mallinfo(arena+hblkhd)
        143307 MiB available memory on the node where the printing process lives
------------------
     ethr =  6.47E-07,  avg # of iterations =  3.0

     total cpu time spent up to now is        6.6 secs

     total energy              =    -690.78995995 Ry
     estimated scf accuracy    <       0.00583006 Ry

     iteration #  9     ecut=    30.00 Ry     beta= 0.70
     Davidson diagonalization with overlap

---- Real-time Memory Report at c_bands before calling an iterative solver
           519 MiB given to the printing process from OS
             0 MiB allocation reported by mallinfo(arena+hblkhd)
        143307 MiB available memory on the node where the printing process lives
------------------
     ethr =  6.47E-07,  avg # of iterations =  2.0

     total cpu time spent up to now is        6.8 secs

     total energy              =    -690.79017321 Ry
     estimated scf accuracy    <       0.00041253 Ry

     iteration # 10     ecut=    30.00 Ry     beta= 0.70
     Davidson diagonalization with overlap

---- Real-time Memory Report at c_bands before calling an iterative solver
           519 MiB given to the printing process from OS
             0 MiB allocation reported by mallinfo(arena+hblkhd)
        143307 MiB available memory on the node where the printing process lives
------------------
     ethr =  5.43E-07,  avg # of iterations =  1.0

     total cpu time spent up to now is        6.9 secs

     total energy              =    -690.79019178 Ry
     estimated scf accuracy    <       0.00003858 Ry

     iteration # 11     ecut=    30.00 Ry     beta= 0.70
     Davidson diagonalization with overlap

---- Real-time Memory Report at c_bands before calling an iterative solver
           519 MiB given to the printing process from OS
             0 MiB allocation reported by mallinfo(arena+hblkhd)
        143307 MiB available memory on the node where the printing process lives
------------------
     ethr =  5.08E-08,  avg # of iterations =  2.0

     total cpu time spent up to now is        7.0 secs

     total energy              =    -690.79019519 Ry
     estimated scf accuracy    <       0.00000474 Ry

     iteration # 12     ecut=    30.00 Ry     beta= 0.70
     Davidson diagonalization with overlap

---- Real-time Memory Report at c_bands before calling an iterative solver
           519 MiB given to the printing process from OS
             0 MiB allocation reported by mallinfo(arena+hblkhd)
        143307 MiB available memory on the node where the printing process lives
------------------
     ethr =  6.23E-09,  avg # of iterations =  4.0

     total cpu time spent up to now is        7.2 secs

     End of self-consistent calculation

          k = 0.0000 0.0000 0.0000 (  1052 PWs)   bands (ev):

   -49.5867 -49.5248 -49.5246 -49.5241 -21.7869 -21.7868 -21.7864 -21.7437
   -21.7435 -21.7434 -21.5590 -21.5588 -21.5565 -21.4738 -21.4736 -21.4735
     5.4590   9.4194   9.4196   9.4197  12.4839  12.4839  12.4839  13.2645
    13.2647  13.2648  13.4378  14.2447  14.2448  14.3454  14.3455  14.3456
    15.5307  15.5308  15.5310  17.6034  17.6035  17.6036  17.8277  17.8278
    19.2098  19.2099  19.2100  20.9402  20.9404  20.9405

     occupation numbers 
     1.0000   1.0000   1.0000   1.0000   1.0000   1.0000   1.0000   1.0000
     1.0000   1.0000   1.0000   1.0000   1.0000   1.0000   1.0000   1.0000
     1.0000   1.0000   1.0000   1.0000   1.0000   1.0000   1.0000   1.0000
     1.0000   1.0000   1.0000   1.0000   1.0000   1.0000   1.0000   1.0000
     1.0000   1.0000   1.0000   1.0000   1.0000   1.0000  -0.0000  -0.0000
    -0.0000  -0.0000  -0.0000  -0.0000  -0.0000  -0.0000

     the Fermi energy is    17.7578 ev

!    total energy              =    -690.79019491 Ry
     estimated scf accuracy    <       0.00000097 Ry
     smearing contrib. (-TS)   =       0.00000000 Ry
     internal energy E=F+TS    =    -690.79019491 Ry

     The total energy is F=E-TS. E is the sum of the following terms:
     one-electron contribution =    -189.18765639 Ry
     hartree contribution      =     135.77695859 Ry
     xc contribution           =     -95.72362890 Ry
     ewald contribution        =    -541.65586821 Ry

     convergence has been achieved in  12 iterations

     Forces acting on atoms (cartesian axes, Ry/au):

     atom    1 type  1   force =     0.00414709    0.00414709   -0.00414709
     atom    2 type  1   force =     0.00414709   -0.00414709    0.00414709
     atom    3 type  1   force =    -0.00414709    0.00414709    0.00414709
     atom    4 type  1   force =    -0.00414709   -0.00414709   -0.00414709
     atom    5 type  2   force =     0.02221337    0.02221337   -0.02221337
     atom    6 type  2   force =     0.02221337   -0.02221337    0.02221337
     atom    7 type  2   force =    -0.02221337    0.02221337    0.02221337
     atom    8 type  2   force =    -0.02221337   -0.02221337   -0.02221337
     The non-local contrib.  to forces
     atom    1 type  1   force =     0.00651100    0.00651100   -0.00651100
     atom    2 type  1   force =     0.00651100   -0.00651100    0.00651100
     atom    3 type  1   force =    -0.00651100    0.00651100    0.00651100
     atom    4 type  1   force =    -0.00651100   -0.00651100   -0.00651100
     atom    5 type  2   force =     0.03336520    0.03336520   -0.03336520
     atom    6 type  2   force =     0.03336520   -0.03336520    0.03336520
     atom    7 type  2   force =    -0.03336520    0.03336520    0.03336520
     atom    8 type  2   force =    -0.03336520   -0.03336520   -0.03336520
     The ionic contribution  to forces
     atom    1 type  1   force =    -0.30142072   -0.30142072    0.30142072
     atom    2 type  1   force =    -0.30142072    0.30142072   -0.30142072
     atom    3 type  1   force =     0.30142072   -0.30142072   -0.30142072
     atom    4 type  1   force =     0.30142072    0.30142072    0.30142072
     atom    5 type  2   force =    -0.87803400   -0.87803400    0.87803400
     atom    6 type  2   force =    -0.87803400    0.87803400   -0.87803400
     atom    7 type  2   force =     0.87803400   -0.87803400   -0.87803400
     atom    8 type  2   force =     0.87803400    0.87803400    0.87803400
     The local contribution  to forces
     atom    1 type  1   force =     0.29989898    0.29958541   -0.29977076
     atom    2 type  1   force =     0.29975196   -0.30003786    0.29958628
     atom    3 type  1   force =    -0.29997936    0.30019354    0.30013883
     atom    4 type  1   force =    -0.29972715   -0.29975325   -0.29991329
     atom    5 type  2   force =     0.86682249    0.86741117   -0.86762587
     atom    6 type  2   force =     0.86653277   -0.86628412    0.86683676
     atom    7 type  2   force =    -0.86665024    0.86659333    0.86685144
     atom    8 type  2   force =    -0.86673780   -0.86737866   -0.86599246
     The core correction contribution to forces
     atom    1 type  1   force =    -0.00078157   -0.00078151    0.00078148
     atom    2 type  1   force =    -0.00078371    0.00077911   -0.00078175
     atom    3 type  1   force =     0.00078370   -0.00077677   -0.00078154
     atom    4 type  1   force =     0.00077969    0.00078032    0.00078176
     atom    5 type  2   force =     0.00000000    0.00000000    0.00000000
     atom    6 type  2   force =     0.00000000    0.00000000    0.00000000
     atom    7 type  2   force =     0.00000000    0.00000000    0.00000000
     atom    8 type  2   force =     0.00000000    0.00000000    0.00000000
     The Hubbard contrib.    to forces
     atom    1 type  1   force =     0.00000000    0.00000000    0.00000000
     atom    2 type  1   force =     0.00000000    0.00000000    0.00000000
     atom    3 type  1   force =     0.00000000    0.00000000    0.00000000
     atom    4 type  1   force =     0.00000000    0.00000000    0.00000000
     atom    5 type  2   force =     0.00000000    0.00000000    0.00000000
     atom    6 type  2   force =     0.00000000    0.00000000    0.00000000
     atom    7 type  2   force =     0.00000000    0.00000000    0.00000000
     atom    8 type  2   force =     0.00000000    0.00000000    0.00000000
     The SCF correction term to forces
     atom    1 type  1   force =    -0.00004663    0.00020123   -0.00003332
     atom    2 type  1   force =     0.00003963    0.00016121    0.00020558
     atom    3 type  1   force =     0.00009968   -0.00027543   -0.00024573
     atom    4 type  1   force =    -0.00006479   -0.00006916    0.00006713
     atom    5 type  2   force =     0.00006433   -0.00051189    0.00082400
     atom    6 type  2   force =     0.00030411   -0.00064856    0.00013425
     atom    7 type  2   force =    -0.00022318    0.00027134    0.00000916
     atom    8 type  2   force =    -0.00015518    0.00053206   -0.00092681

     Total force =     0.078279     Total SCF correction =     0.001743


     Computing stress (Cartesian axis) and pressure

          total   stress  (Ry/bohr**3)                   (kbar)     P=       18.60
   0.00012647   0.00000000   0.00000000           18.60        0.00        0.00
   0.00000000   0.00012647   0.00000000            0.00       18.60        0.00
   0.00000000   0.00000000   0.00012647            0.00        0.00       18.60

     kinetic stress (kbar)  28617.39      0.00      0.00
                                0.00  28617.39      0.00
                                0.00      0.00  28617.39

     local   stress (kbar)  -4356.28      0.58      0.63
                                0.58  -4356.41     -0.36
                                0.63     -0.36  -4356.35

     nonloc. stress (kbar)   7838.62      0.00      0.00
                                0.00   7838.62      0.00
                                0.00      0.00   7838.62

     hartree stress (kbar)   9004.49     -0.24     -0.25
                               -0.24   9004.52      0.15
                               -0.25      0.15   9004.55

     exc-cor stress (kbar)  -2284.36     -0.00     -0.00
                               -0.00  -2284.36      0.00
                               -0.00      0.00  -2284.36

     corecor stress (kbar)  -2879.45      0.00      0.00
                                0.00  -2879.45     -0.00
                                0.00     -0.00  -2879.45

     ewald   stress (kbar) -35921.77     -0.00      0.00
                               -0.00 -35921.77     -0.00
                                0.00     -0.00 -35921.77

     hubbard stress (kbar)      0.00      0.00      0.00
                                0.00      0.00      0.00
                                0.00      0.00      0.00

     DFT-D   stress (kbar)      0.00      0.00      0.00
                                0.00      0.00      0.00
                                0.00      0.00      0.00

     XDM     stress (kbar)      0.00      0.00      0.00
                                0.00      0.00      0.00
                                0.00      0.00      0.00

     dft-nl  stress (kbar)      0.00      0.00      0.00
                                0.00      0.00      0.00
                                0.00      0.00      0.00

     TS-vdW  stress (kbar)      0.00      0.00      0.00
                                0.00      0.00      0.00
                                0.00      0.00      0.00


                                0.00      0.00      0.00
                                0.00      0.00      0.00


                                0.00      0.00      0.00


     Writing all to output data dir new_calculations/myprefix.save/
 
     init_run     :    116.55s CPU      5.14s WALL (       1 calls)
     electrons    :     54.93s CPU      1.94s WALL (       1 calls)
     forces       :      1.48s CPU      0.05s WALL (       1 calls)
     stress       :      4.07s CPU      0.14s WALL (       1 calls)

     Called by init_run:
     wfcinit      :     19.33s CPU      0.69s WALL (       1 calls)
     wfcinit:atom :      0.01s CPU      0.00s WALL (       1 calls)
     wfcinit:wfcr :     19.21s CPU      0.68s WALL (       1 calls)
     potinit      :     35.72s CPU      1.44s WALL (       1 calls)
     hinit0       :     59.85s CPU      2.93s WALL (       1 calls)

     Called by electrons:
     c_bands      :     25.14s CPU      0.83s WALL (      13 calls)
     sum_band     :     13.80s CPU      0.58s WALL (      13 calls)
     v_of_rho     :      4.84s CPU      0.17s WALL (      13 calls)
     v_h          :      0.46s CPU      0.02s WALL (      13 calls)
     v_xc         :      4.90s CPU      0.17s WALL (      15 calls)
     newd         :     10.11s CPU      0.35s WALL (      13 calls)
     mix_rho      :      1.14s CPU      0.04s WALL (      13 calls)

     Called by c_bands:
     init_us_2    :      0.27s CPU      0.01s WALL (      27 calls)
     init_us_2:cp :      0.23s CPU      0.01s WALL (      27 calls)
     regterg      :     23.60s CPU      0.78s WALL (      13 calls)

     Called by sum_band:
     sum_band:wei :      0.02s CPU      0.00s WALL (      13 calls)
     sum_band:loo :      5.23s CPU      0.17s WALL (      13 calls)
     sum_band:buf :      0.01s CPU      0.00s WALL (      13 calls)
     sum_band:ini :      0.14s CPU      0.00s WALL (      13 calls)
     sum_band:cal :      0.39s CPU      0.01s WALL (      13 calls)
     sum_band:bec :      0.03s CPU      0.00s WALL (      13 calls)
     addusdens    :      7.84s CPU      0.39s WALL (      13 calls)
     addusd:skk   :      0.03s CPU      0.00s WALL (      13 calls)
     addusd:dgemm :      0.71s CPU      0.16s WALL (      13 calls)
     addusd:qvan2 :      6.68s CPU      0.22s WALL (      13 calls)

     Called by *egterg:
     rdiaghg      :      3.03s CPU      0.10s WALL (      44 calls)
     regterg:over :      0.14s CPU      0.00s WALL (      32 calls)
     regterg:upda :      0.24s CPU      0.01s WALL (      32 calls)
     regterg:last :      0.54s CPU      0.02s WALL (      25 calls)
     h_psi        :     37.45s CPU      1.28s WALL (      46 calls)
     s_psi        :      0.09s CPU      0.00s WALL (      46 calls)
     g_psi        :      0.03s CPU      0.00s WALL (      32 calls)

     Called by h_psi:
     h_psi:calbec :      0.29s CPU      0.01s WALL (      46 calls)
     vloc_psi     :     36.73s CPU      1.26s WALL (      46 calls)
     add_vuspsi   :      0.16s CPU      0.01s WALL (      46 calls)

     General routines
     calbec       :      0.66s CPU      0.02s WALL (      64 calls)
     fft          :     54.15s CPU      2.44s WALL (     162 calls)
     ffts         :     34.86s CPU      1.40s WALL (      26 calls)
     fftw         :     35.32s CPU      1.21s WALL (    1773 calls)
     interpolate  :     35.17s CPU      1.41s WALL (      13 calls)
 
     Parallel routines
 
     PWSCF        :   3m 3.27s CPU     10.25s WALL

 
   This run was terminated on:  23:45:59  20May2023            

=------------------------------------------------------------------------------=
   JOB DONE.
=------------------------------------------------------------------------------=
