
     Program PWSCF v.7.0 starts on 20May2023 at  8:13:41 

     This program is part of the open-source Quantum ESPRESSO suite
     for quantum simulation of materials; please cite
         "P. Giannozzi et al., J. Phys.:Condens. Matter 21 395502 (2009);
         "P. Giannozzi et al., J. Phys.:Condens. Matter 29 465901 (2017);
         "P. Giannozzi et al., J. Chem. Phys. 152 154105 (2020);
          URL http://www.quantum-espresso.org", 
     in publications or presentations arising from this work. More details at
     http://www.quantum-espresso.org/quote

     Parallel version (MPI & OpenMP), running on      32 processor cores
     Number of MPI processes:                 1
     Threads/MPI process:                    32

     MPI processes distributed on     1 nodes
     118955 MiB available memory on the printing compute node when the environment starts
 
     Reading input from espresso_10253.pwi
Warning: card &CELL ignored
Warning: card / ignored

     Current dimensions of program PWSCF are:
     Max number of different atomic species (ntypx) = 10
     Max number of k-points (npk) =  40000
     Max angular momentum in pseudopotentials (lmaxx) =  4
     file O.pbe-n-kjpaw_psl.0.1.UPF: wavefunction(s)  2P renormalized

     gamma-point specific algorithms are used
     Message from routine setup:
     using ibrav=0 with symmetry is DISCOURAGED, use correct ibrav instead

     Subspace diagonalization in iterative solution of the eigenvalue problem:
     a serial algorithm will be used

 
     G-vector sticks info
     --------------------
     sticks:   dense  smooth     PW     G-vecs:    dense   smooth      PW
     Sum        1351     665    163                25407     8967    1123
 
     Using Slab Decomposition
 


     bravais-lattice index     =            0
     lattice parameter (alat)  =       9.1324  a.u.
     unit-cell volume          =     405.0018 (a.u.)^3
     number of atoms/cell      =            4
     number of atomic types    =            3
     number of electrons       =        42.00
     number of Kohn-Sham states=           25
     kinetic-energy cutoff     =      30.0000  Ry
     charge density cutoff     =     240.0000  Ry
     scf convergence threshold =      1.0E-06
     mixing beta               =       0.7000
     number of iterations used =            8  plain     mixing
     Exchange-correlation= SLA  PW   PBX  PBC
                           (   1   4   3   4   0   0   0)

     celldm(1)=   9.132351  celldm(2)=   0.000000  celldm(3)=   0.000000
     celldm(4)=   0.000000  celldm(5)=   0.000000  celldm(6)=   0.000000

     crystal axes: (cart. coord. in units of alat)
               a(1) = (   1.000000   0.000000   0.000000 )  
               a(2) = (  -0.530951   0.847402   0.000000 )  
               a(3) = (   0.000000   0.000000   0.627508 )  

     reciprocal axes: (cart. coord. in units 2 pi/alat)
               b(1) = (  1.000000  0.626564  0.000000 )  
               b(2) = (  0.000000  1.180077  0.000000 )  
               b(3) = (  0.000000  0.000000  1.593604 )  


     PseudoPot. # 1 for Zr read from file:
     /home/pragov/projects/rrg-bengioy-ad/pragov/crystal_structure_design/SSSP/Zr_pbe_v1.uspp.F.UPF
     MD5 check sum: 5db81b1e868ab7776c4564c113de050b
     Pseudo is Ultrasoft + core correction, Zval = 12.0
     Generated by new atomic code, or converted to UPF format
     Using radial grid of  887 points,  6 beta functions with: 
                l(1) =   0
                l(2) =   0
                l(3) =   1
                l(4) =   1
                l(5) =   2
                l(6) =   2
     Q(r) pseudized with  6 coefficients,  rinner =    1.200   1.200   1.200
                                                       1.200   1.200

     PseudoPot. # 2 for Ti read from file:
     /home/pragov/projects/rrg-bengioy-ad/pragov/crystal_structure_design/SSSP/ti_pbe_v1.4.uspp.F.UPF
     MD5 check sum: 88a00a6731bd790ddea75d31a80cb452
     Pseudo is Ultrasoft + core correction, Zval = 12.0
     Generated by new atomic code, or converted to UPF format
     Using radial grid of  851 points,  6 beta functions with: 
                l(1) =   0
                l(2) =   0
                l(3) =   1
                l(4) =   1
                l(5) =   2
                l(6) =   2
     Q(r) pseudized with  6 coefficients,  rinner =    1.000   1.000   1.000
                                                       1.000   1.000

     PseudoPot. # 3 for O  read from file:
     /home/pragov/projects/rrg-bengioy-ad/pragov/crystal_structure_design/SSSP/O.pbe-n-kjpaw_psl.0.1.UPF
     MD5 check sum: 0234752ac141de4415c5fc33072bef88
     Pseudo is Projector augmented-wave + core cor, Zval =  6.0
     Generated using "atomic" code by A. Dal Corso  v.5.0.99 svn rev. 10869
     Shape of augmentation charge: BESSEL
     Using radial grid of 1095 points,  4 beta functions with: 
                l(1) =   0
                l(2) =   0
                l(3) =   1
                l(4) =   1
     Q(r) pseudized with 0 coefficients 


     atomic species   valence    mass     pseudopotential
        Zr            12.00    91.22400     Zr( 1.00)
        Ti            12.00    47.86700     Ti( 1.00)
        O              6.00    15.99900     O ( 1.00)

      4 Sym. Ops., with inversion, found


                                    s                        frac. trans.

      isym =  1     identity                                     

 cryst.   s( 1) = (     1          0          0      )
                  (     0          1          0      )
                  (     0          0          1      )

 cart.    s( 1) = (  1.0000000  0.0000000  0.0000000 )
                  (  0.0000000  1.0000000  0.0000000 )
                  (  0.0000000  0.0000000  1.0000000 )


      isym =  2     180 deg rotation - cart. axis [0,0,1]        

 cryst.   s( 2) = (    -1          0          0      )
                  (     0         -1          0      )
                  (     0          0          1      )

 cart.    s( 2) = ( -1.0000000 -0.0000000  0.0000000 )
                  (  0.0000000 -1.0000000  0.0000000 )
                  (  0.0000000  0.0000000  1.0000000 )


      isym =  3     inversion                                    

 cryst.   s( 3) = (    -1          0          0      )
                  (     0         -1          0      )
                  (     0          0         -1      )

 cart.    s( 3) = ( -1.0000000 -0.0000000  0.0000000 )
                  (  0.0000000 -1.0000000  0.0000000 )
                  (  0.0000000  0.0000000 -1.0000000 )


      isym =  4     inv. 180 deg rotation - cart. axis [0,0,1]   

 cryst.   s( 4) = (     1          0          0      )
                  (     0          1          0      )
                  (     0          0         -1      )

 cart.    s( 4) = (  1.0000000  0.0000000  0.0000000 )
                  (  0.0000000  1.0000000  0.0000000 )
                  (  0.0000000  0.0000000 -1.0000000 )


   Cartesian axes

     site n.     atom                  positions (alat units)
         1           Zr  tau(   1) = (   0.0000000   0.0000000   0.0000000  )
         2           Ti  tau(   2) = (   0.4967992   0.2785284   0.3137542  )
         3           Ti  tau(   3) = (  -0.0277507   0.5688738   0.3137542  )
         4           O   tau(   4) = (   0.2345243   0.4237011   0.0000000  )

   Crystallographic axes

     site n.     atom                  positions (cryst. coord.)
         1           Zr  tau(   1) = (  0.0000000  0.0000000  0.0000000  )
         2           Ti  tau(   2) = (  0.6713150  0.3286850  0.5000000  )
         3           Ti  tau(   3) = (  0.3286850  0.6713150  0.5000000  )
         4           O   tau(   4) = (  0.5000000  0.5000000  0.0000000  )

     number of k points=     1  Methfessel-Paxton smearing, width (Ry)=  0.0010
                       cart. coord. in units 2pi/alat
        k(    1) = (   0.0000000   0.0000000   0.0000000), wk =   2.0000000

                       cryst. coord.
        k(    1) = (   0.0000000   0.0000000   0.0000000), wk =   2.0000000

     Dense  grid:    12704 G-vectors     FFT dimensions: (  45,  45,  30)

     Smooth grid:     4484 G-vectors     FFT dimensions: (  32,  32,  20)

     Dynamical RAM for                 wfc:       0.21 MB

     Dynamical RAM for     wfc (w. buffer):       0.21 MB

     Dynamical RAM for           str. fact:       0.58 MB

     Dynamical RAM for           local pot:       0.00 MB

     Dynamical RAM for          nlocal pot:       0.53 MB

     Dynamical RAM for                qrad:       3.73 MB

     Dynamical RAM for          rho,v,vnew:       1.97 MB

     Dynamical RAM for               rhoin:       0.66 MB

     Dynamical RAM for            rho*nmix:       3.10 MB

     Dynamical RAM for           G-vectors:       0.76 MB

     Dynamical RAM for          h,s,v(r/c):       0.06 MB

     Dynamical RAM for          <psi|beta>:       0.01 MB

     Dynamical RAM for                 psi:       0.43 MB

     Dynamical RAM for                hpsi:       0.43 MB

     Dynamical RAM for                spsi:       0.43 MB

     Dynamical RAM for      wfcinit/wfcrot:       0.67 MB

     Dynamical RAM for           addusdens:      36.44 MB

     Dynamical RAM for          addusforce:      36.94 MB

     Dynamical RAM for         addusstress:      38.96 MB

     Estimated static dynamical RAM per process >      11.54 MB

     Estimated max dynamical RAM per process >      53.61 MB

     Check: negative core charge=   -0.000011

     Initial potential from superposition of free atoms

     starting charge      39.9978, renormalised to      42.0000

     negative rho (up, down):  6.450E-02 0.000E+00
     Starting wfcs are   37 randomized atomic wfcs
     Checking if some PAW data can be deallocated... 

     total cpu time spent up to now is        6.8 secs

     Self-consistent Calculation

     iteration #  1     ecut=    30.00 Ry     beta= 0.70
     Davidson diagonalization with overlap

---- Real-time Memory Report at c_bands before calling an iterative solver
           273 MiB given to the printing process from OS
             0 MiB allocation reported by mallinfo(arena+hblkhd)
        118834 MiB available memory on the node where the printing process lives
------------------
     ethr =  1.00E-02,  avg # of iterations =  2.0

     negative rho (up, down):  6.203E-02 0.000E+00

     total cpu time spent up to now is        7.1 secs

     total energy              =    -378.52291014 Ry
     estimated scf accuracy    <       1.46071853 Ry

     iteration #  2     ecut=    30.00 Ry     beta= 0.70
     Davidson diagonalization with overlap

---- Real-time Memory Report at c_bands before calling an iterative solver
           301 MiB given to the printing process from OS
             0 MiB allocation reported by mallinfo(arena+hblkhd)
        118811 MiB available memory on the node where the printing process lives
------------------
     ethr =  3.48E-03,  avg # of iterations =  7.0

     negative rho (up, down):  6.017E-02 0.000E+00

     total cpu time spent up to now is        7.5 secs

     total energy              =    -377.68728287 Ry
     estimated scf accuracy    <      14.27849113 Ry

     iteration #  3     ecut=    30.00 Ry     beta= 0.70
     Davidson diagonalization with overlap

---- Real-time Memory Report at c_bands before calling an iterative solver
           302 MiB given to the printing process from OS
             0 MiB allocation reported by mallinfo(arena+hblkhd)
        118811 MiB available memory on the node where the printing process lives
------------------
     ethr =  3.48E-03,  avg # of iterations =  6.0

     negative rho (up, down):  6.012E-02 0.000E+00

     total cpu time spent up to now is        7.9 secs

     total energy              =    -379.37392162 Ry
     estimated scf accuracy    <       0.21069458 Ry

     iteration #  4     ecut=    30.00 Ry     beta= 0.70
     Davidson diagonalization with overlap

---- Real-time Memory Report at c_bands before calling an iterative solver
           302 MiB given to the printing process from OS
             0 MiB allocation reported by mallinfo(arena+hblkhd)
        118811 MiB available memory on the node where the printing process lives
------------------
     ethr =  5.02E-04,  avg # of iterations =  2.0

     negative rho (up, down):  6.028E-02 0.000E+00

     total cpu time spent up to now is        8.3 secs

     total energy              =    -379.35066613 Ry
     estimated scf accuracy    <       0.27413395 Ry

     iteration #  5     ecut=    30.00 Ry     beta= 0.70
     Davidson diagonalization with overlap

---- Real-time Memory Report at c_bands before calling an iterative solver
           302 MiB given to the printing process from OS
             0 MiB allocation reported by mallinfo(arena+hblkhd)
        118810 MiB available memory on the node where the printing process lives
------------------
     ethr =  5.02E-04,  avg # of iterations =  2.0

     negative rho (up, down):  6.041E-02 0.000E+00

     total cpu time spent up to now is        8.6 secs

     total energy              =    -379.33252199 Ry
     estimated scf accuracy    <       1.05090534 Ry

     iteration #  6     ecut=    30.00 Ry     beta= 0.70
     Davidson diagonalization with overlap

---- Real-time Memory Report at c_bands before calling an iterative solver
           302 MiB given to the printing process from OS
             0 MiB allocation reported by mallinfo(arena+hblkhd)
        118810 MiB available memory on the node where the printing process lives
------------------
     ethr =  5.02E-04,  avg # of iterations =  1.0

     negative rho (up, down):  6.102E-02 0.000E+00

     total cpu time spent up to now is        8.9 secs

     total energy              =    -379.40234431 Ry
     estimated scf accuracy    <       0.17049729 Ry

     iteration #  7     ecut=    30.00 Ry     beta= 0.70
     Davidson diagonalization with overlap

---- Real-time Memory Report at c_bands before calling an iterative solver
           302 MiB given to the printing process from OS
             0 MiB allocation reported by mallinfo(arena+hblkhd)
        118810 MiB available memory on the node where the printing process lives
------------------
     ethr =  4.06E-04,  avg # of iterations =  1.0

     negative rho (up, down):  6.171E-02 0.000E+00

     total cpu time spent up to now is        9.1 secs

     total energy              =    -379.39824489 Ry
     estimated scf accuracy    <       0.11611558 Ry

     iteration #  8     ecut=    30.00 Ry     beta= 0.70
     Davidson diagonalization with overlap

---- Real-time Memory Report at c_bands before calling an iterative solver
           303 MiB given to the printing process from OS
             0 MiB allocation reported by mallinfo(arena+hblkhd)
        118809 MiB available memory on the node where the printing process lives
------------------
     ethr =  2.76E-04,  avg # of iterations =  1.0

     negative rho (up, down):  6.191E-02 0.000E+00

     total cpu time spent up to now is        9.3 secs

     total energy              =    -379.39005194 Ry
     estimated scf accuracy    <       0.09701129 Ry

     iteration #  9     ecut=    30.00 Ry     beta= 0.70
     Davidson diagonalization with overlap

---- Real-time Memory Report at c_bands before calling an iterative solver
           303 MiB given to the printing process from OS
             0 MiB allocation reported by mallinfo(arena+hblkhd)
        118809 MiB available memory on the node where the printing process lives
------------------
     ethr =  2.31E-04,  avg # of iterations =  1.0

     negative rho (up, down):  6.192E-02 0.000E+00

     total cpu time spent up to now is        9.6 secs

     total energy              =    -379.38900833 Ry
     estimated scf accuracy    <       0.04827284 Ry

     iteration # 10     ecut=    30.00 Ry     beta= 0.70
     Davidson diagonalization with overlap

---- Real-time Memory Report at c_bands before calling an iterative solver
           304 MiB given to the printing process from OS
             0 MiB allocation reported by mallinfo(arena+hblkhd)
        118806 MiB available memory on the node where the printing process lives
------------------
     ethr =  1.15E-04,  avg # of iterations =  1.0

     negative rho (up, down):  6.194E-02 0.000E+00

     total cpu time spent up to now is        9.9 secs

     total energy              =    -379.38975653 Ry
     estimated scf accuracy    <       0.00763208 Ry

     iteration # 11     ecut=    30.00 Ry     beta= 0.70
     Davidson diagonalization with overlap

---- Real-time Memory Report at c_bands before calling an iterative solver
           305 MiB given to the printing process from OS
             0 MiB allocation reported by mallinfo(arena+hblkhd)
        118806 MiB available memory on the node where the printing process lives
------------------
     ethr =  1.82E-05,  avg # of iterations =  2.0

     negative rho (up, down):  6.200E-02 0.000E+00

     total cpu time spent up to now is       10.1 secs

     total energy              =    -379.38809805 Ry
     estimated scf accuracy    <       0.10301580 Ry

     iteration # 12     ecut=    30.00 Ry     beta= 0.70
     Davidson diagonalization with overlap

---- Real-time Memory Report at c_bands before calling an iterative solver
           305 MiB given to the printing process from OS
             0 MiB allocation reported by mallinfo(arena+hblkhd)
        118807 MiB available memory on the node where the printing process lives
------------------
     ethr =  1.82E-05,  avg # of iterations =  1.0

     negative rho (up, down):  6.196E-02 0.000E+00

     total cpu time spent up to now is       10.4 secs

     total energy              =    -379.38830715 Ry
     estimated scf accuracy    <       0.05316280 Ry

     iteration # 13     ecut=    30.00 Ry     beta= 0.70
     Davidson diagonalization with overlap

---- Real-time Memory Report at c_bands before calling an iterative solver
           305 MiB given to the printing process from OS
             0 MiB allocation reported by mallinfo(arena+hblkhd)
        118806 MiB available memory on the node where the printing process lives
------------------
     ethr =  1.82E-05,  avg # of iterations =  1.0

     negative rho (up, down):  6.197E-02 0.000E+00

     total cpu time spent up to now is       10.6 secs

     total energy              =    -379.38937931 Ry
     estimated scf accuracy    <       0.13135595 Ry

     iteration # 14     ecut=    30.00 Ry     beta= 0.70
     Davidson diagonalization with overlap

---- Real-time Memory Report at c_bands before calling an iterative solver
           305 MiB given to the printing process from OS
             0 MiB allocation reported by mallinfo(arena+hblkhd)
        118805 MiB available memory on the node where the printing process lives
------------------
     ethr =  1.82E-05,  avg # of iterations =  1.0

     negative rho (up, down):  6.198E-02 0.000E+00

     total cpu time spent up to now is       10.7 secs

     total energy              =    -379.38993365 Ry
     estimated scf accuracy    <       0.00588152 Ry

     iteration # 15     ecut=    30.00 Ry     beta= 0.70
     Davidson diagonalization with overlap

---- Real-time Memory Report at c_bands before calling an iterative solver
           305 MiB given to the printing process from OS
             0 MiB allocation reported by mallinfo(arena+hblkhd)
        118805 MiB available memory on the node where the printing process lives
------------------
     ethr =  1.40E-05,  avg # of iterations =  1.0

     negative rho (up, down):  6.198E-02 0.000E+00

     total cpu time spent up to now is       10.8 secs

     total energy              =    -379.39010552 Ry
     estimated scf accuracy    <       0.00667993 Ry

     iteration # 16     ecut=    30.00 Ry     beta= 0.70
     Davidson diagonalization with overlap

---- Real-time Memory Report at c_bands before calling an iterative solver
           305 MiB given to the printing process from OS
             0 MiB allocation reported by mallinfo(arena+hblkhd)
        118805 MiB available memory on the node where the printing process lives
------------------
     ethr =  1.40E-05,  avg # of iterations =  1.0

     negative rho (up, down):  6.197E-02 0.000E+00

     total cpu time spent up to now is       10.9 secs

     total energy              =    -379.39006521 Ry
     estimated scf accuracy    <       0.00387497 Ry

     iteration # 17     ecut=    30.00 Ry     beta= 0.70
     Davidson diagonalization with overlap

---- Real-time Memory Report at c_bands before calling an iterative solver
           305 MiB given to the printing process from OS
             0 MiB allocation reported by mallinfo(arena+hblkhd)
        118805 MiB available memory on the node where the printing process lives
------------------
     ethr =  9.23E-06,  avg # of iterations =  1.0

     negative rho (up, down):  6.197E-02 0.000E+00

     total cpu time spent up to now is       11.0 secs

     total energy              =    -379.39009193 Ry
     estimated scf accuracy    <       0.00006178 Ry

     iteration # 18     ecut=    30.00 Ry     beta= 0.70
     Davidson diagonalization with overlap

---- Real-time Memory Report at c_bands before calling an iterative solver
           305 MiB given to the printing process from OS
             0 MiB allocation reported by mallinfo(arena+hblkhd)
        118805 MiB available memory on the node where the printing process lives
------------------
     c_bands:  1 eigenvalues not converged
     ethr =  1.47E-07,  avg # of iterations = 20.0

     negative rho (up, down):  6.197E-02 0.000E+00

     total cpu time spent up to now is       11.2 secs

     total energy              =    -379.39010493 Ry
     estimated scf accuracy    <       0.00005441 Ry

     iteration # 19     ecut=    30.00 Ry     beta= 0.70
     Davidson diagonalization with overlap

---- Real-time Memory Report at c_bands before calling an iterative solver
           305 MiB given to the printing process from OS
             0 MiB allocation reported by mallinfo(arena+hblkhd)
        118806 MiB available memory on the node where the printing process lives
------------------
     ethr =  1.30E-07,  avg # of iterations =  1.0

     negative rho (up, down):  6.197E-02 0.000E+00

     total cpu time spent up to now is       11.3 secs

     total energy              =    -379.39010498 Ry
     estimated scf accuracy    <       0.00006431 Ry

     iteration # 20     ecut=    30.00 Ry     beta= 0.70
     Davidson diagonalization with overlap

---- Real-time Memory Report at c_bands before calling an iterative solver
           305 MiB given to the printing process from OS
             0 MiB allocation reported by mallinfo(arena+hblkhd)
        118805 MiB available memory on the node where the printing process lives
------------------
     ethr =  1.30E-07,  avg # of iterations =  1.0

     negative rho (up, down):  6.197E-02 0.000E+00

     total cpu time spent up to now is       11.4 secs

     total energy              =    -379.39010332 Ry
     estimated scf accuracy    <       0.00006802 Ry

     iteration # 21     ecut=    30.00 Ry     beta= 0.70
     Davidson diagonalization with overlap

---- Real-time Memory Report at c_bands before calling an iterative solver
           305 MiB given to the printing process from OS
             0 MiB allocation reported by mallinfo(arena+hblkhd)
        118805 MiB available memory on the node where the printing process lives
------------------
     ethr =  1.30E-07,  avg # of iterations =  1.0

     negative rho (up, down):  6.197E-02 0.000E+00

     total cpu time spent up to now is       11.5 secs

     End of self-consistent calculation

          k = 0.0000 0.0000 0.0000 (   562 PWs)   bands (ev):

   -42.3381 -42.2163 -33.4208 -18.7698 -18.6985 -18.6411 -18.5358 -18.3915
   -18.2314 -11.8502 -11.4296 -10.9737  -6.2126   7.9314   8.3300   8.4300
    10.0462  12.4980  13.8760  14.1507  15.4833  15.4871  15.8390  15.9313
    15.9933

     occupation numbers 
     1.0000   1.0000   1.0000   1.0000   1.0000   1.0000   1.0000   1.0000
     1.0000   1.0000   1.0000   1.0000   1.0000   1.0000   1.0000   1.0000
     1.0000   1.0000   1.0000   1.0000   0.6167   0.3833  -0.0000  -0.0000
    -0.0000

     the Fermi energy is    15.4852 ev

!    total energy              =    -379.39010401 Ry
     estimated scf accuracy    <       0.00000042 Ry
     smearing contrib. (-TS)   =      -0.00053181 Ry
     internal energy E=F+TS    =    -379.38957221 Ry

     The total energy is F=E-TS. E is the sum of the following terms:
     one-electron contribution =    -103.31643763 Ry
     hartree contribution      =      71.14941870 Ry
     xc contribution           =     -61.64256662 Ry
     ewald contribution        =    -276.06037676 Ry
     one-center paw contrib.   =      -9.51960990 Ry
      -> PAW hartree energy AE =      30.13124954 Ry
      -> PAW hartree energy PS =     -30.02465446 Ry
      -> PAW xc energy AE      =     -17.24514666 Ry
      -> PAW xc energy PS      =       7.61894168 Ry
      -> total E_H with PAW    =      71.25601378 Ry
      -> total E_XC with PAW   =     -71.26877160 Ry

     convergence has been achieved in  21 iterations

     negative rho (up, down):  6.197E-02 0.000E+00

     Forces acting on atoms (cartesian axes, Ry/au):

     atom    1 type  1   force =     0.00000000    0.00000000    0.00000000
     atom    2 type  2   force =    -0.13467857    0.07440136    0.00000000
     atom    3 type  2   force =     0.13467857   -0.07440136   -0.00000000
     atom    4 type  3   force =     0.00000000    0.00000000    0.00000000
     The non-local contrib.  to forces
     atom    1 type  1   force =     0.00000000    0.00000000    0.00000000
     atom    2 type  2   force =    -0.07552823    0.04175255    0.00000000
     atom    3 type  2   force =     0.07552823   -0.04175255    0.00000000
     atom    4 type  3   force =     0.00000000    0.00000000    0.00000000
     The ionic contribution  to forces
     atom    1 type  1   force =     0.00000000    0.00000000    0.00000000
     atom    2 type  2   force =     6.24081071   -3.45437279   -0.00000000
     atom    3 type  2   force =    -6.24081071    3.45437279   -0.00000000
     atom    4 type  3   force =    -0.00000000   -0.00000000   -0.00000000
     The local contribution  to forces
     atom    1 type  1   force =     0.00011099   -0.00004907    0.00006723
     atom    2 type  2   force =    -6.28542819    3.47869078   -0.00008705
     atom    3 type  2   force =     6.28545645   -3.47879601   -0.00010692
     atom    4 type  3   force =    -0.00041798    0.00022155    0.00005354
     The core correction contribution to forces
     atom    1 type  1   force =     0.00000367   -0.00000682    0.00000186
     atom    2 type  2   force =    -0.01458287    0.00808305   -0.00000175
     atom    3 type  2   force =     0.01458622   -0.00807871   -0.00000523
     atom    4 type  3   force =    -0.00000006    0.00000067    0.00000009
     The Hubbard contrib.    to forces
     atom    1 type  1   force =     0.00000000    0.00000000    0.00000000
     atom    2 type  2   force =     0.00000000    0.00000000    0.00000000
     atom    3 type  2   force =     0.00000000    0.00000000    0.00000000
     atom    4 type  3   force =     0.00000000    0.00000000    0.00000000
     The SCF correction term to forces
     atom    1 type  1   force =    -0.00003392   -0.00006504   -0.00003820
     atom    2 type  2   force =     0.00002991    0.00027421    0.00002968
     atom    3 type  2   force =    -0.00010173   -0.00012044    0.00009772
     atom    4 type  3   force =     0.00040751   -0.00017387   -0.00005596

     Total force =     0.217595     Total SCF correction =     0.000564


     Computing stress (Cartesian axis) and pressure


     negative rho (up, down):  6.197E-02 0.000E+00
          total   stress  (Ry/bohr**3)                   (kbar)     P=       56.70
   0.00109768   0.00047557   0.00000000          161.47       69.96        0.00
   0.00047557   0.00169118   0.00000000           69.96      248.78        0.00
   0.00000000   0.00000000  -0.00163256            0.00        0.00     -240.16

     kinetic stress (kbar)  23311.23    -38.05      0.00
                              -38.05  23265.01      0.00
                                0.00      0.00  23165.44

     local   stress (kbar)  -2126.00   1736.31     -0.96
                             1736.31     46.40     -0.19
                               -0.96     -0.19  -4931.62

     nonloc. stress (kbar)  10708.94     33.21      0.00
                               33.21  10751.10      0.00
                                0.00      0.00  10292.62

     hartree stress (kbar)   8497.85   -864.64      0.28
                             -864.64   7415.41      0.03
                                0.28      0.03   9929.69

     exc-cor stress (kbar)  -1515.24     -4.06      0.01
                               -4.06  -1520.30      0.00
                                0.01      0.00  -1515.78

     corecor stress (kbar)  -5119.55     -0.21     -0.01
                               -0.21  -5119.86     -0.00
                               -0.01     -0.00  -5094.38

     ewald   stress (kbar) -33595.76   -792.60     -0.00
                             -792.60 -34588.99     -0.00
                               -0.00     -0.00 -32086.13

     hubbard stress (kbar)      0.00      0.00      0.00
                                0.00      0.00      0.00
                                0.00      0.00      0.00

     DFT-D   stress (kbar)      0.00      0.00      0.00
                                0.00      0.00      0.00
                                0.00      0.00      0.00

     XDM     stress (kbar)      0.00      0.00      0.00
                                0.00      0.00      0.00
                                0.00      0.00      0.00

     dft-nl  stress (kbar)      0.00      0.00      0.00
                                0.00      0.00      0.00
                                0.00      0.00      0.00

     TS-vdW  stress (kbar)      0.00      0.00      0.00
                                0.00      0.00      0.00
                                0.00      0.00      0.00


                                0.00      0.00      0.00
                                0.00      0.00      0.00


                                0.00      0.00      0.00


     Writing all to output data dir new_calculations/myprefix.save/
 
     init_run     :    162.89s CPU      6.54s WALL (       1 calls)
     electrons    :    139.18s CPU      4.73s WALL (       1 calls)
     forces       :      1.29s CPU      0.04s WALL (       1 calls)
     stress       :      3.47s CPU      0.11s WALL (       1 calls)

     Called by init_run:
     wfcinit      :     39.43s CPU      1.44s WALL (       1 calls)
     wfcinit:atom :      0.01s CPU      0.00s WALL (       1 calls)
     wfcinit:wfcr :     39.36s CPU      1.44s WALL (       1 calls)
     potinit      :     24.14s CPU      0.82s WALL (       1 calls)
     hinit0       :     97.17s CPU      4.20s WALL (       1 calls)

     Called by electrons:
     c_bands      :     38.08s CPU      1.30s WALL (      21 calls)
     sum_band     :     54.37s CPU      1.85s WALL (      21 calls)
     v_of_rho     :      5.03s CPU      0.17s WALL (      22 calls)
     v_h          :      0.52s CPU      0.02s WALL (      22 calls)
     v_xc         :      4.76s CPU      0.16s WALL (      24 calls)
     newd         :     32.80s CPU      1.11s WALL (      22 calls)
     PAW_pot      :      7.50s CPU      0.25s WALL (      22 calls)
     mix_rho      :      1.43s CPU      0.05s WALL (      21 calls)

     Called by c_bands:
     init_us_2    :      0.39s CPU      0.01s WALL (      43 calls)
     init_us_2:cp :      0.31s CPU      0.01s WALL (      43 calls)
     regterg      :     36.76s CPU      1.25s WALL (      21 calls)

     Called by sum_band:
     sum_band:wei :      0.04s CPU      0.00s WALL (      21 calls)
     sum_band:loo :      9.07s CPU      0.31s WALL (      21 calls)
     sum_band:buf :      0.01s CPU      0.00s WALL (      21 calls)
     sum_band:ini :      0.22s CPU      0.01s WALL (      21 calls)
     sum_band:cal :      2.35s CPU      0.08s WALL (      21 calls)
     sum_band:bec :      0.13s CPU      0.00s WALL (      21 calls)
     addusdens    :     44.35s CPU      1.51s WALL (      21 calls)
     addusd:skk   :      0.41s CPU      0.01s WALL (      63 calls)
     addusd:dgemm :      3.37s CPU      0.12s WALL (      63 calls)
     addusd:qvan2 :     39.85s CPU      1.35s WALL (      63 calls)

     Called by *egterg:
     rdiaghg      :      2.10s CPU      0.07s WALL (      76 calls)
     regterg:over :      1.39s CPU      0.05s WALL (      55 calls)
     regterg:upda :      0.23s CPU      0.01s WALL (      55 calls)
     regterg:last :      0.20s CPU      0.01s WALL (      30 calls)
     h_psi        :     68.44s CPU      2.42s WALL (      77 calls)
     s_psi        :      0.16s CPU      0.01s WALL (      77 calls)
     g_psi        :      0.11s CPU      0.00s WALL (      55 calls)

     Called by h_psi:
     h_psi:calbec :      3.81s CPU      0.13s WALL (      77 calls)
     vloc_psi     :     64.00s CPU      2.27s WALL (      77 calls)
     add_vuspsi   :      0.21s CPU      0.01s WALL (      77 calls)

     General routines
     calbec       :      6.02s CPU      0.21s WALL (     103 calls)
     fft          :     84.10s CPU      3.27s WALL (     260 calls)
     ffts         :     23.27s CPU      0.79s WALL (      43 calls)
     fftw         :     65.82s CPU      2.33s WALL (    1521 calls)
     interpolate  :     23.67s CPU      0.80s WALL (      22 calls)
 
     Parallel routines

     PAW routines
     PAW_pot      :      7.50s CPU      0.25s WALL (      22 calls)
     PAW_symme    :      0.04s CPU      0.00s WALL (      43 calls)
 
     PWSCF        :   5m14.49s CPU     11.97s WALL

 
   This run was terminated on:   8:13:53  20May2023            

=------------------------------------------------------------------------------=
   JOB DONE.
=------------------------------------------------------------------------------=
