
     Program PWSCF v.7.1 starts on 16Jul2023 at 16:53:52 

     This program is part of the open-source Quantum ESPRESSO suite
     for quantum simulation of materials; please cite
         "P. Giannozzi et al., J. Phys.:Condens. Matter 21 395502 (2009);
         "P. Giannozzi et al., J. Phys.:Condens. Matter 29 465901 (2017);
         "P. Giannozzi et al., J. Chem. Phys. 152 154105 (2020);
          URL http://www.quantum-espresso.org", 
     in publications or presentations arising from this work. More details at
     http://www.quantum-espresso.org/quote

     Parallel version (MPI & OpenMP), running on      32 processor cores
     Number of MPI processes:                 8
     Threads/MPI process:                     4

     MPI processes distributed on     1 nodes
     168509 MiB available memory on the printing compute node when the environment starts
 
     Reading input from espresso_12956.pwi
Warning: card &CELL ignored
Warning: card / ignored

     Current dimensions of program PWSCF are:
     Max number of different atomic species (ntypx) = 10
     Max number of k-points (npk) =  40000
     Max angular momentum in pseudopotentials (lmaxx) =  4
     file Nb.pbe-spn-kjpaw_psl.0.3.0.UPF: wavefunction(s)  4S 4P renormalized
     file O.pbe-n-kjpaw_psl.0.1.UPF: wavefunction(s)  2P renormalized
     Message from routine setup:
     using ibrav=0 with symmetry is DISCOURAGED, use correct ibrav instead
 
     K-points division:     npool     =       2
     R & G space division:  proc/nbgrp/npool/nimage =       4
     Subspace diagonalization in iterative solution of the eigenvalue problem:
     a serial algorithm will be used

 
     Parallelization info
     --------------------
     sticks:   dense  smooth     PW     G-vecs:    dense   smooth      PW
     Min         560     279     76                28772    10169    1493
     Max         561     280     77                28777    10174    1495
     Sum        2241    1117    307               115093    40683    5975
 
     Using Slab Decomposition
 


     bravais-lattice index     =            0
     lattice parameter (alat)  =      10.8738  a.u.
     unit-cell volume          =    1834.3717 (a.u.)^3
     number of atoms/cell      =           20
     number of atomic types    =            3
     number of electrons       =       164.00
     number of Kohn-Sham states=           98
     kinetic-energy cutoff     =      30.0000  Ry
     charge density cutoff     =     240.0000  Ry
     scf convergence threshold =      1.0E-06
     mixing beta               =       0.7000
     number of iterations used =            8  plain     mixing
     Exchange-correlation= SLA  PW   PBX  PBC
                           (   1   4   3   4   0   0   0)

     celldm(1)=  10.873820  celldm(2)=   0.000000  celldm(3)=   0.000000
     celldm(4)=   0.000000  celldm(5)=   0.000000  celldm(6)=   0.000000

     crystal axes: (cart. coord. in units of alat)
               a(1) = (   1.000000   0.000000   0.000000 )  
               a(2) = (   0.000000   0.997663   0.000000 )  
               a(3) = (   0.000000   0.000000   1.430069 )  

     reciprocal axes: (cart. coord. in units 2 pi/alat)
               b(1) = (  1.000000  0.000000  0.000000 )  
               b(2) = (  0.000000  1.002342  0.000000 )  
               b(3) = (  0.000000  0.000000  0.699267 )  


     PseudoPot. # 1 for Sr read from file:
     /lustre07/scratch/pragov/crystal_structure_design/utils/SSSP/Sr_pbe_v1.uspp.F.UPF
     MD5 check sum: 6b418c05fbe9db5448babca5e47b7a5b
     Pseudo is Ultrasoft + core correction, Zval = 10.0
     Generated by new atomic code, or converted to UPF format
     Using radial grid of  883 points,  6 beta functions with: 
                l(1) =   0
                l(2) =   0
                l(3) =   1
                l(4) =   1
                l(5) =   2
                l(6) =   2
     Q(r) pseudized with  6 coefficients,  rinner =    1.400   1.400   1.400
                                                       1.400   1.400

     PseudoPot. # 2 for Nb read from file:
     /lustre07/scratch/pragov/crystal_structure_design/utils/SSSP/Nb.pbe-spn-kjpaw_psl.0.3.0.UPF
     MD5 check sum: 411d72ad547312f8017e2943ceca08cc
     Pseudo is Projector augmented-wave + core cor, Zval = 13.0
     Generated using "atomic" code by A. Dal Corso  v.5.0.99 svn rev. 10869
     Shape of augmentation charge: PSQ
     Using radial grid of 1227 points,  6 beta functions with: 
                l(1) =   0
                l(2) =   0
                l(3) =   1
                l(4) =   1
                l(5) =   2
                l(6) =   2
     Q(r) pseudized with 0 coefficients 


     PseudoPot. # 3 for O  read from file:
     /lustre07/scratch/pragov/crystal_structure_design/utils/SSSP/O.pbe-n-kjpaw_psl.0.1.UPF
     MD5 check sum: 0234752ac141de4415c5fc33072bef88
     Pseudo is Projector augmented-wave + core cor, Zval =  6.0
     Generated using "atomic" code by A. Dal Corso  v.5.0.99 svn rev. 10869
     Shape of augmentation charge: BESSEL
     Using radial grid of 1095 points,  4 beta functions with: 
                l(1) =   0
                l(2) =   0
                l(3) =   1
                l(4) =   1
     Q(r) pseudized with 0 coefficients 


     atomic species   valence    mass     pseudopotential
        Sr            10.00    87.62000     Sr( 1.00)
        Nb            13.00    92.90637     Nb( 1.00)
        O              6.00    15.99900     O ( 1.00)

      4 Sym. Ops. (no inversion) found ( 2 have fractional translation)


                                    s                        frac. trans.

      isym =  1     identity                                     

 cryst.   s( 1) = (     1          0          0      )
                  (     0          1          0      )
                  (     0          0          1      )

 cart.    s( 1) = (  1.0000000  0.0000000  0.0000000 )
                  (  0.0000000  1.0000000  0.0000000 )
                  (  0.0000000  0.0000000  1.0000000 )


      isym =  2     180 deg rotation - cart. axis [0,0,1]        

 cryst.   s( 2) = (    -1          0          0      )
                  (     0         -1          0      )
                  (     0          0          1      )

 cart.    s( 2) = ( -1.0000000  0.0000000  0.0000000 )
                  (  0.0000000 -1.0000000  0.0000000 )
                  (  0.0000000  0.0000000  1.0000000 )


      isym =  3     180 deg rotation - cart. axis [0,1,0]        

 cryst.   s( 3) = (    -1          0          0      )    f =(  0.5000000 )
                  (     0          1          0      )       ( -0.5000000 )
                  (     0          0         -1      )       (  0.0000000 )

 cart.    s( 3) = ( -1.0000000  0.0000000  0.0000000 )    f =(  0.5000000 )
                  (  0.0000000  1.0000000  0.0000000 )       ( -0.4988315 )
                  (  0.0000000  0.0000000 -1.0000000 )       (  0.0000000 )


      isym =  4     180 deg rotation - cart. axis [1,0,0]        

 cryst.   s( 4) = (     1          0          0      )    f =( -0.5000000 )
                  (     0         -1          0      )       (  0.5000000 )
                  (     0          0         -1      )       (  0.0000000 )

 cart.    s( 4) = (  1.0000000  0.0000000  0.0000000 )    f =( -0.5000000 )
                  (  0.0000000 -1.0000000  0.0000000 )       (  0.4988315 )
                  (  0.0000000  0.0000000 -1.0000000 )       (  0.0000000 )


   Cartesian axes

     site n.     atom                  positions (alat units)
         1           Sr  tau(   1) = (   0.0000000   0.0000000   1.4291065  )
         2           Sr  tau(   2) = (   0.0000000   0.0000000   0.7113535  )
         3           Sr  tau(   3) = (   0.5000000   0.4988315   0.7187154  )
         4           Sr  tau(   4) = (   0.5000000   0.4988315   0.0009624  )
         5           Nb  tau(   5) = (   0.5000000   0.0000000   0.3574729  )
         6           Nb  tau(   6) = (   0.5000000   0.0000000   1.0728849  )
         7           Nb  tau(   7) = (   0.0000000   0.4988315   0.3571840  )
         8           Nb  tau(   8) = (   0.0000000   0.4988315   1.0725960  )
         9           O   tau(   9) = (   0.2812060   0.2812093   0.3570167  )
        10           O   tau(  10) = (   0.5000000   0.0000000   0.7152003  )
        11           O   tau(  11) = (   0.7183180   0.7165017   1.0726618  )
        12           O   tau(  12) = (   0.7812060   0.2176222   1.0730522  )
        13           O   tau(  13) = (   0.0000000   0.4988315   1.4298501  )
        14           O   tau(  14) = (   0.0000000   0.4988315   0.7148686  )
        15           O   tau(  15) = (   0.2183180   0.7799930   0.3574071  )
        16           O   tau(  16) = (   0.2816820   0.2811614   1.0726618  )
        17           O   tau(  17) = (   0.5000000   0.0000000   0.0002188  )
        18           O   tau(  18) = (   0.7187940   0.7164538   0.3570167  )
        19           O   tau(  19) = (   0.7816820   0.2176701   0.3574071  )
        20           O   tau(  20) = (   0.2187940   0.7800408   1.0730522  )

   Crystallographic axes

     site n.     atom                  positions (cryst. coord.)
         1           Sr  tau(   1) = (  0.0000000  0.0000000  0.9993270  )
         2           Sr  tau(   2) = (  0.0000000  0.0000000  0.4974260  )
         3           Sr  tau(   3) = (  0.5000000  0.5000000  0.5025740  )
         4           Sr  tau(   4) = (  0.5000000  0.5000000  0.0006730  )
         5           Nb  tau(   5) = (  0.5000000  0.0000000  0.2499690  )
         6           Nb  tau(   6) = (  0.5000000  0.0000000  0.7502330  )
         7           Nb  tau(   7) = (  0.0000000  0.5000000  0.2497670  )
         8           Nb  tau(   8) = (  0.0000000  0.5000000  0.7500310  )
         9           O   tau(   9) = (  0.2812060  0.2818680  0.2496500  )
        10           O   tau(  10) = (  0.5000000  0.0000000  0.5001160  )
        11           O   tau(  11) = (  0.7183180  0.7181800  0.7500770  )
        12           O   tau(  12) = (  0.7812060  0.2181320  0.7503500  )
        13           O   tau(  13) = (  0.0000000  0.5000000  0.9998470  )
        14           O   tau(  14) = (  0.0000000  0.5000000  0.4998840  )
        15           O   tau(  15) = (  0.2183180  0.7818200  0.2499230  )
        16           O   tau(  16) = (  0.2816820  0.2818200  0.7500770  )
        17           O   tau(  17) = (  0.5000000  0.0000000  0.0001530  )
        18           O   tau(  18) = (  0.7187940  0.7181320  0.2496500  )
        19           O   tau(  19) = (  0.7816820  0.2181800  0.2499230  )
        20           O   tau(  20) = (  0.2187940  0.7818680  0.7503500  )

     number of k points=     8  Gaussian smearing, width (Ry)=  0.0010
                       cart. coord. in units 2pi/alat
        k(    1) = (   0.0000000   0.0000000   0.0000000), wk =   0.0740741
        k(    2) = (   0.0000000   0.0000000   0.2330890), wk =   0.1481481
        k(    3) = (   0.0000000   0.3341141   0.0000000), wk =   0.1481481
        k(    4) = (   0.0000000   0.3341141   0.2330890), wk =   0.2962963
        k(    5) = (   0.3333333   0.0000000   0.0000000), wk =   0.1481481
        k(    6) = (   0.3333333   0.0000000   0.2330890), wk =   0.2962963
        k(    7) = (   0.3333333   0.3341141   0.0000000), wk =   0.2962963
        k(    8) = (   0.3333333   0.3341141   0.2330890), wk =   0.5925926

                       cryst. coord.
        k(    1) = (   0.0000000   0.0000000   0.0000000), wk =   0.0740741
        k(    2) = (   0.0000000   0.0000000   0.3333333), wk =   0.1481481
        k(    3) = (   0.0000000   0.3333333   0.0000000), wk =   0.1481481
        k(    4) = (   0.0000000   0.3333333   0.3333333), wk =   0.2962963
        k(    5) = (   0.3333333   0.0000000   0.0000000), wk =   0.1481481
        k(    6) = (   0.3333333   0.0000000   0.3333333), wk =   0.2962963
        k(    7) = (   0.3333333   0.3333333   0.0000000), wk =   0.2962963
        k(    8) = (   0.3333333   0.3333333   0.3333333), wk =   0.5925926

     Dense  grid:   115093 G-vectors     FFT dimensions: (  54,  54,  80)

     Smooth grid:    40683 G-vectors     FFT dimensions: (  40,  40,  60)

     Dynamical RAM for                 wfc:       1.90 MB

     Dynamical RAM for     wfc (w. buffer):       9.51 MB

     Dynamical RAM for           str. fact:       1.32 MB

     Dynamical RAM for           local pot:       0.00 MB

     Dynamical RAM for          nlocal pot:       4.66 MB

     Dynamical RAM for                qrad:       3.73 MB

     Dynamical RAM for          rho,v,vnew:       2.65 MB

     Dynamical RAM for               rhoin:       0.88 MB

     Dynamical RAM for            rho*nmix:       7.03 MB

     Dynamical RAM for           G-vectors:       1.72 MB

     Dynamical RAM for          h,s,v(r/c):       1.76 MB

     Dynamical RAM for          <psi|beta>:       0.36 MB

     Dynamical RAM for                 psi:       3.80 MB

     Dynamical RAM for                hpsi:       3.80 MB

     Dynamical RAM for                spsi:       3.80 MB

     Dynamical RAM for      wfcinit/wfcrot:       5.88 MB

     Dynamical RAM for           addusdens:      43.69 MB

     Estimated static dynamical RAM per process >      28.46 MB

     Estimated max dynamical RAM per process >      79.17 MB

     Estimated total dynamical RAM >     605.29 MB

     Check: negative core charge=   -0.000018

     Initial potential from superposition of free atoms

     starting charge     163.8569, renormalised to     164.0000

     negative rho (up, down):  2.460E-01 0.000E+00
     Starting wfcs are  140 randomized atomic wfcs
     Checking if some PAW data can be deallocated... 
       PAW data deallocated on    6 nodes for type:  2
       PAW data deallocated on    2 nodes for type:  3

     total cpu time spent up to now is        1.8 secs

     Self-consistent Calculation

     iteration #  1     ecut=    30.00 Ry     beta= 0.70
     Davidson diagonalization with overlap

---- Real-time Memory Report at c_bands before calling an iterative solver
           264 MiB given to the printing process from OS
             0 MiB allocation reported by mallinfo(arena+hblkhd)
        167936 MiB available memory on the node where the printing process lives
------------------
     ethr =  1.00E-02,  avg # of iterations =  2.0

     negative rho (up, down):  2.500E-01 0.000E+00

     total cpu time spent up to now is        3.9 secs

     total energy              =   -2115.39697065 Ry
     estimated scf accuracy    <       7.36664103 Ry

     iteration #  2     ecut=    30.00 Ry     beta= 0.70
     Davidson diagonalization with overlap

---- Real-time Memory Report at c_bands before calling an iterative solver
           290 MiB given to the printing process from OS
             0 MiB allocation reported by mallinfo(arena+hblkhd)
        167693 MiB available memory on the node where the printing process lives
------------------
     ethr =  4.49E-03,  avg # of iterations =  6.2

     negative rho (up, down):  2.528E-01 0.000E+00

     total cpu time spent up to now is        7.5 secs

     total energy              =   -2113.81324567 Ry
     estimated scf accuracy    <      25.93660405 Ry

     iteration #  3     ecut=    30.00 Ry     beta= 0.70
     Davidson diagonalization with overlap

---- Real-time Memory Report at c_bands before calling an iterative solver
           309 MiB given to the printing process from OS
             0 MiB allocation reported by mallinfo(arena+hblkhd)
        167508 MiB available memory on the node where the printing process lives
------------------
     ethr =  4.49E-03,  avg # of iterations =  3.4

     negative rho (up, down):  2.554E-01 0.000E+00

     total cpu time spent up to now is        9.9 secs

     total energy              =   -2119.29063643 Ry
     estimated scf accuracy    <       0.46584421 Ry

     iteration #  4     ecut=    30.00 Ry     beta= 0.70
     Davidson diagonalization with overlap

---- Real-time Memory Report at c_bands before calling an iterative solver
           309 MiB given to the printing process from OS
             0 MiB allocation reported by mallinfo(arena+hblkhd)
        168247 MiB available memory on the node where the printing process lives
------------------
     ethr =  2.84E-04,  avg # of iterations =  6.6

     negative rho (up, down):  2.589E-01 0.000E+00

     total cpu time spent up to now is       11.7 secs

     total energy              =   -2119.25374551 Ry
     estimated scf accuracy    <       0.20600591 Ry

     iteration #  5     ecut=    30.00 Ry     beta= 0.70
     Davidson diagonalization with overlap

---- Real-time Memory Report at c_bands before calling an iterative solver
           309 MiB given to the printing process from OS
             0 MiB allocation reported by mallinfo(arena+hblkhd)
        168209 MiB available memory on the node where the printing process lives
------------------
     ethr =  1.26E-04,  avg # of iterations =  5.8

     negative rho (up, down):  2.591E-01 0.000E+00

     total cpu time spent up to now is       13.0 secs

     total energy              =   -2119.29875163 Ry
     estimated scf accuracy    <       0.07793568 Ry

     iteration #  6     ecut=    30.00 Ry     beta= 0.70
     Davidson diagonalization with overlap

---- Real-time Memory Report at c_bands before calling an iterative solver
           309 MiB given to the printing process from OS
             0 MiB allocation reported by mallinfo(arena+hblkhd)
        168245 MiB available memory on the node where the printing process lives
------------------
     ethr =  4.75E-05,  avg # of iterations =  6.6

     negative rho (up, down):  2.590E-01 0.000E+00

     total cpu time spent up to now is       15.1 secs

     total energy              =   -2119.30581422 Ry
     estimated scf accuracy    <       0.01309398 Ry

     iteration #  7     ecut=    30.00 Ry     beta= 0.70
     Davidson diagonalization with overlap

---- Real-time Memory Report at c_bands before calling an iterative solver
           309 MiB given to the printing process from OS
             0 MiB allocation reported by mallinfo(arena+hblkhd)
        168195 MiB available memory on the node where the printing process lives
------------------
     ethr =  7.98E-06,  avg # of iterations =  9.5

     negative rho (up, down):  2.590E-01 0.000E+00

     total cpu time spent up to now is       17.6 secs

     total energy              =   -2119.30527523 Ry
     estimated scf accuracy    <       0.00359729 Ry

     iteration #  8     ecut=    30.00 Ry     beta= 0.70
     Davidson diagonalization with overlap

---- Real-time Memory Report at c_bands before calling an iterative solver
           310 MiB given to the printing process from OS
             0 MiB allocation reported by mallinfo(arena+hblkhd)
        168197 MiB available memory on the node where the printing process lives
------------------
     ethr =  2.19E-06,  avg # of iterations =  8.6

     negative rho (up, down):  2.590E-01 0.000E+00

     total cpu time spent up to now is       20.8 secs

     total energy              =   -2119.30604761 Ry
     estimated scf accuracy    <       0.00012513 Ry

     iteration #  9     ecut=    30.00 Ry     beta= 0.70
     Davidson diagonalization with overlap

---- Real-time Memory Report at c_bands before calling an iterative solver
           312 MiB given to the printing process from OS
             0 MiB allocation reported by mallinfo(arena+hblkhd)
        168200 MiB available memory on the node where the printing process lives
------------------
     ethr =  7.63E-08,  avg # of iterations =  4.9

     negative rho (up, down):  2.590E-01 0.000E+00

     total cpu time spent up to now is       23.1 secs

     total energy              =   -2119.30607492 Ry
     estimated scf accuracy    <       0.00037606 Ry

     iteration # 10     ecut=    30.00 Ry     beta= 0.70
     Davidson diagonalization with overlap

---- Real-time Memory Report at c_bands before calling an iterative solver
           312 MiB given to the printing process from OS
             0 MiB allocation reported by mallinfo(arena+hblkhd)
        168196 MiB available memory on the node where the printing process lives
------------------
     ethr =  7.63E-08,  avg # of iterations =  2.0

     negative rho (up, down):  2.591E-01 0.000E+00

     total cpu time spent up to now is       25.0 secs

     total energy              =   -2119.30603648 Ry
     estimated scf accuracy    <       0.00013277 Ry

     iteration # 11     ecut=    30.00 Ry     beta= 0.70
     Davidson diagonalization with overlap

---- Real-time Memory Report at c_bands before calling an iterative solver
           312 MiB given to the printing process from OS
             0 MiB allocation reported by mallinfo(arena+hblkhd)
        168195 MiB available memory on the node where the printing process lives
------------------
     ethr =  7.63E-08,  avg # of iterations =  2.4

     negative rho (up, down):  2.591E-01 0.000E+00

     total cpu time spent up to now is       27.3 secs

     total energy              =   -2119.30605893 Ry
     estimated scf accuracy    <       0.00000105 Ry

     iteration # 12     ecut=    30.00 Ry     beta= 0.70
     Davidson diagonalization with overlap

---- Real-time Memory Report at c_bands before calling an iterative solver
           312 MiB given to the printing process from OS
             0 MiB allocation reported by mallinfo(arena+hblkhd)
        168234 MiB available memory on the node where the printing process lives
------------------
     ethr =  6.38E-10,  avg # of iterations =  5.0

     negative rho (up, down):  2.591E-01 0.000E+00

     total cpu time spent up to now is       29.8 secs

     total energy              =   -2119.30606019 Ry
     estimated scf accuracy    <       0.00000126 Ry

     iteration # 13     ecut=    30.00 Ry     beta= 0.70
     Davidson diagonalization with overlap

---- Real-time Memory Report at c_bands before calling an iterative solver
           313 MiB given to the printing process from OS
             0 MiB allocation reported by mallinfo(arena+hblkhd)
        168340 MiB available memory on the node where the printing process lives
------------------
     ethr =  6.38E-10,  avg # of iterations =  2.0

     negative rho (up, down):  2.591E-01 0.000E+00

     total cpu time spent up to now is       31.9 secs

     End of self-consistent calculation

          k = 0.0000 0.0000 0.0000 (  5143 PWs)   bands (ev):

   -43.7958 -43.7936 -43.7910 -43.7902 -23.2456 -23.2350 -23.2225 -23.2109
   -20.1017 -20.0971 -20.0943 -20.0897 -19.9733 -19.9713 -19.9690 -19.9674
   -19.9661 -19.9621 -19.8559 -19.8462  -7.7061  -7.4347  -7.0712  -6.9862
    -6.9665  -6.8687  -6.5850  -6.5804  -6.2011  -6.1970  -6.1310  -6.1090
    -5.4115  -5.4109  -5.2697  -5.2694  -5.2207  -5.2202  -5.2094  -5.2089
    -5.1615  -4.8591  -4.8588  -4.7713   5.1394   5.1502   5.2434   5.2823
     5.3860   5.3928   5.5563   5.9094   6.0367   6.0457   6.8886   6.8977
     7.3364   7.4144   7.4241   7.4279   7.4301   7.4333   7.4418   7.4758
     7.9031   8.2112   8.2119   8.4272   8.5345   8.6151   8.6322   8.8730
     8.8842   9.1194   9.1250   9.1340   9.1742   9.3883   9.5343   9.5372
    11.9130  11.9175  12.0145  12.2334  14.3200  14.3204  14.3396  14.3468
    14.6842  14.7316  14.9333  14.9693  15.3556  15.4728  15.4765  15.8603
    16.0560  16.0997

     occupation numbers 
     1.0000   1.0000   1.0000   1.0000   1.0000   1.0000   1.0000   1.0000
     1.0000   1.0000   1.0000   1.0000   1.0000   1.0000   1.0000   1.0000
     1.0000   1.0000   1.0000   1.0000   1.0000   1.0000   1.0000   1.0000
     1.0000   1.0000   1.0000   1.0000   1.0000   1.0000   1.0000   1.0000
     1.0000   1.0000   1.0000   1.0000   1.0000   1.0000   1.0000   1.0000
     1.0000   1.0000   1.0000   1.0000   1.0000   1.0000   1.0000   1.0000
     1.0000   1.0000   1.0000   1.0000   1.0000   1.0000   1.0000   1.0000
     1.0000   1.0000   1.0000   1.0000   1.0000   1.0000   1.0000   1.0000
     1.0000   1.0000   1.0000   1.0000   1.0000   1.0000   1.0000   1.0000
     1.0000   1.0000   1.0000   1.0000   1.0000   1.0000   1.0000   1.0000
     1.0000   1.0000   1.0000   1.0000   0.0000   0.0000   0.0000   0.0000
     0.0000   0.0000   0.0000   0.0000   0.0000   0.0000   0.0000   0.0000
     0.0000   0.0000

          k = 0.0000 0.0000 0.2331 (  5095 PWs)   bands (ev):

   -43.7951 -43.7943 -43.7906 -43.7899 -23.2440 -23.2366 -23.2206 -23.2127
   -20.1004 -20.0980 -20.0930 -20.0905 -19.9721 -19.9700 -19.9652 -19.9631
   -19.9432 -19.9375 -19.8851 -19.8772  -7.6291  -7.4809  -7.0445  -6.9920
    -6.7827  -6.7361  -6.5127  -6.5084  -6.3545  -6.3452  -6.3297  -6.3257
    -5.3038  -5.3037  -5.2692  -5.2689  -5.2074  -5.1779  -5.1616  -5.1608
    -5.0934  -4.9589  -4.9584  -4.8712   5.1456   5.1565   5.3951   5.3983
     5.4122   5.7470   5.9521   6.1065   6.1852   6.1955   6.5749   6.5830
     7.0458   7.3661   7.3733   7.4132   7.4256   7.5582   7.5990   7.7570
     7.7615   8.0352   8.2732   8.2803   8.3654   8.4036   8.6530   8.6535
     8.9227   8.9330   9.0210   9.0314   9.2426   9.2803   9.2819   9.3544
    12.0663  12.1774  12.5523  12.5573  13.7126  13.7164  14.5547  14.5623
    14.8013  14.8994  15.0656  15.0747  15.1619  15.2846  15.7548  15.8891
    15.9304  16.1451

     occupation numbers 
     1.0000   1.0000   1.0000   1.0000   1.0000   1.0000   1.0000   1.0000
     1.0000   1.0000   1.0000   1.0000   1.0000   1.0000   1.0000   1.0000
     1.0000   1.0000   1.0000   1.0000   1.0000   1.0000   1.0000   1.0000
     1.0000   1.0000   1.0000   1.0000   1.0000   1.0000   1.0000   1.0000
     1.0000   1.0000   1.0000   1.0000   1.0000   1.0000   1.0000   1.0000
     1.0000   1.0000   1.0000   1.0000   1.0000   1.0000   1.0000   1.0000
     1.0000   1.0000   1.0000   1.0000   1.0000   1.0000   1.0000   1.0000
     1.0000   1.0000   1.0000   1.0000   1.0000   1.0000   1.0000   1.0000
     1.0000   1.0000   1.0000   1.0000   1.0000   1.0000   1.0000   1.0000
     1.0000   1.0000   1.0000   1.0000   1.0000   1.0000   1.0000   1.0000
     1.0000   1.0000   1.0000   1.0000   0.0000   0.0000   0.0000   0.0000
     0.0000   0.0000   0.0000   0.0000   0.0000   0.0000   0.0000   0.0000
     0.0000   0.0000

          k = 0.0000 0.3341 0.0000 (  5115 PWs)   bands (ev):

   -43.7945 -43.7930 -43.7921 -43.7906 -23.2406 -23.2291 -23.2285 -23.2164
   -20.0701 -20.0654 -20.0609 -20.0589 -20.0056 -20.0015 -19.9968 -19.9954
   -19.9717 -19.9696 -19.8534 -19.8487  -7.4087  -7.3741  -7.2087  -6.9365
    -6.8593  -6.8126  -6.6592  -6.6019  -6.5786  -6.4213  -6.2914  -6.2874
    -5.3614  -5.2627  -5.2229  -5.2076  -5.1828  -5.1758  -5.1230  -5.0416
    -5.0250  -4.8973  -4.8779  -4.8310   5.3643   5.3760   5.7311   5.7644
     5.7834   5.9273   6.0215   6.0439   6.1565   6.3018   6.3425   6.7135
     6.7919   6.8901   7.0235   7.0508   7.1054   7.1496   7.3993   7.6142
     7.8331   7.9879   7.9897   8.2360   8.3069   8.4508   8.5003   8.5502
     8.5536   8.7316   8.7590   8.8908   9.0710   9.0862   9.1965   9.3805
    12.5518  12.6693  13.0165  13.2027  13.7669  13.8333  14.3976  14.4469
    14.4872  14.5669  14.9770  15.0903  15.5728  15.7010  16.0984  16.2433
    16.3037  16.5110

     occupation numbers 
     1.0000   1.0000   1.0000   1.0000   1.0000   1.0000   1.0000   1.0000
     1.0000   1.0000   1.0000   1.0000   1.0000   1.0000   1.0000   1.0000
     1.0000   1.0000   1.0000   1.0000   1.0000   1.0000   1.0000   1.0000
     1.0000   1.0000   1.0000   1.0000   1.0000   1.0000   1.0000   1.0000
     1.0000   1.0000   1.0000   1.0000   1.0000   1.0000   1.0000   1.0000
     1.0000   1.0000   1.0000   1.0000   1.0000   1.0000   1.0000   1.0000
     1.0000   1.0000   1.0000   1.0000   1.0000   1.0000   1.0000   1.0000
     1.0000   1.0000   1.0000   1.0000   1.0000   1.0000   1.0000   1.0000
     1.0000   1.0000   1.0000   1.0000   1.0000   1.0000   1.0000   1.0000
     1.0000   1.0000   1.0000   1.0000   1.0000   1.0000   1.0000   1.0000
     1.0000   1.0000   0.9604   0.0000   0.0000   0.0000   0.0000   0.0000
     0.0000   0.0000   0.0000   0.0000   0.0000   0.0000   0.0000   0.0000
     0.0000   0.0000

          k = 0.0000 0.3341 0.2331 (  5089 PWs)   bands (ev):

   -43.7941 -43.7932 -43.7917 -43.7908 -23.2385 -23.2305 -23.2268 -23.2186
   -20.0688 -20.0665 -20.0603 -20.0593 -20.0046 -20.0024 -19.9964 -19.9956
   -19.9425 -19.9398 -19.8834 -19.8793  -7.3581  -7.3203  -7.0429  -6.9031
    -6.8590  -6.7605  -6.7365  -6.6121  -6.5508  -6.5328  -6.4363  -6.4006
    -5.2823  -5.2588  -5.2538  -5.2260  -5.1523  -5.1444  -5.0793  -5.0574
    -4.9846  -4.9516  -4.9174  -4.8928   5.7671   5.7765   5.7804   5.8527
     5.9053   5.9381   6.0853   6.2996   6.3418   6.3548   6.4750   6.6273
     6.6552   6.8225   6.8722   7.0175   7.0232   7.0338   7.1487   7.5118
     7.5460   7.5740   7.7892   7.9131   8.5217   8.5340   8.5812   8.6100
     8.6500   8.6659   8.8076   8.8212   9.0075   9.0262   9.1190   9.2723
    12.9795  13.0284  13.0721  13.1556  13.9228  13.9381  14.0126  14.0487
    14.4460  14.5237  14.6161  14.6362  15.9466  15.9636  16.3556  16.3682
    16.4922  16.6730

     occupation numbers 
     1.0000   1.0000   1.0000   1.0000   1.0000   1.0000   1.0000   1.0000
     1.0000   1.0000   1.0000   1.0000   1.0000   1.0000   1.0000   1.0000
     1.0000   1.0000   1.0000   1.0000   1.0000   1.0000   1.0000   1.0000
     1.0000   1.0000   1.0000   1.0000   1.0000   1.0000   1.0000   1.0000
     1.0000   1.0000   1.0000   1.0000   1.0000   1.0000   1.0000   1.0000
     1.0000   1.0000   1.0000   1.0000   1.0000   1.0000   1.0000   1.0000
     1.0000   1.0000   1.0000   1.0000   1.0000   1.0000   1.0000   1.0000
     1.0000   1.0000   1.0000   1.0000   1.0000   1.0000   1.0000   1.0000
     1.0000   1.0000   1.0000   1.0000   1.0000   1.0000   1.0000   1.0000
     1.0000   1.0000   1.0000   1.0000   1.0000   1.0000   1.0000   1.0000
     1.0000   0.6986   0.0000   0.0000   0.0000   0.0000   0.0000   0.0000
     0.0000   0.0000   0.0000   0.0000   0.0000   0.0000   0.0000   0.0000
     0.0000   0.0000

          k = 0.3333 0.0000 0.0000 (  5103 PWs)   bands (ev):

   -43.7945 -43.7929 -43.7920 -43.7906 -23.2406 -23.2291 -23.2285 -23.2164
   -20.0681 -20.0661 -20.0629 -20.0581 -20.0039 -20.0023 -19.9986 -19.9944
   -19.9716 -19.9696 -19.8534 -19.8487  -7.4089  -7.3730  -7.2066  -6.9340
    -6.8584  -6.8128  -6.6545  -6.6071  -6.5812  -6.4196  -6.2869  -6.2831
    -5.3611  -5.2630  -5.2240  -5.2076  -5.1845  -5.1767  -5.1292  -5.0465
    -5.0253  -4.8992  -4.8805  -4.8305   5.3660   5.3790   5.7230   5.7658
     5.7853   5.9234   6.0144   6.0478   6.1603   6.3117   6.3484   6.7245
     6.7815   6.8819   7.0286   7.0458   7.1143   7.1561   7.3976   7.6104
     7.8339   7.9901   7.9956   8.2402   8.3102   8.4583   8.4994   8.5490
     8.5846   8.7369   8.7732   8.8892   9.0859   9.0902   9.2019   9.3814
    12.5560  12.6621  13.0225  13.2072  13.7715  13.8264  14.4019  14.4495
    14.4860  14.5753  14.9808  15.0922  15.5769  15.6981  16.0913  16.2464
    16.3021  16.5004

     occupation numbers 
     1.0000   1.0000   1.0000   1.0000   1.0000   1.0000   1.0000   1.0000
     1.0000   1.0000   1.0000   1.0000   1.0000   1.0000   1.0000   1.0000
     1.0000   1.0000   1.0000   1.0000   1.0000   1.0000   1.0000   1.0000
     1.0000   1.0000   1.0000   1.0000   1.0000   1.0000   1.0000   1.0000
     1.0000   1.0000   1.0000   1.0000   1.0000   1.0000   1.0000   1.0000
     1.0000   1.0000   1.0000   1.0000   1.0000   1.0000   1.0000   1.0000
     1.0000   1.0000   1.0000   1.0000   1.0000   1.0000   1.0000   1.0000
     1.0000   1.0000   1.0000   1.0000   1.0000   1.0000   1.0000   1.0000
     1.0000   1.0000   1.0000   1.0000   1.0000   1.0000   1.0000   1.0000
     1.0000   1.0000   1.0000   1.0000   1.0000   1.0000   1.0000   1.0000
     1.0000   1.0000   0.8705   0.0000   0.0000   0.0000   0.0000   0.0000
     0.0000   0.0000   0.0000   0.0000   0.0000   0.0000   0.0000   0.0000
     0.0000   0.0000

          k = 0.3333 0.0000 0.2331 (  5096 PWs)   bands (ev):

   -43.7941 -43.7932 -43.7917 -43.7908 -23.2385 -23.2306 -23.2268 -23.2186
   -20.0676 -20.0666 -20.0615 -20.0592 -20.0035 -20.0027 -19.9976 -19.9954
   -19.9425 -19.9397 -19.8834 -19.8793  -7.3584  -7.3201  -7.0415  -6.9005
    -6.8571  -6.7584  -6.7386  -6.6093  -6.5530  -6.5301  -6.4339  -6.3995
    -5.2830  -5.2603  -5.2553  -5.2285  -5.1548  -5.1446  -5.0789  -5.0614
    -4.9861  -4.9540  -4.9200  -4.8927   5.7668   5.7684   5.7796   5.8438
     5.9053   5.9384   6.0848   6.3013   6.3388   6.3641   6.4734   6.6209
     6.6509   6.8236   6.8773   7.0133   7.0217   7.0291   7.1484   7.5140
     7.5428   7.5734   7.7844   7.9121   8.5256   8.5384   8.5954   8.6110
     8.6547   8.6653   8.8062   8.8266   9.0107   9.0294   9.1223   9.2722
    12.9811  13.0218  13.0766  13.1562  13.9186  13.9386  14.0163  14.0400
    14.4495  14.5293  14.6191  14.6287  15.9445  15.9678  16.3537  16.3603
    16.4991  16.6651

     occupation numbers 
     1.0000   1.0000   1.0000   1.0000   1.0000   1.0000   1.0000   1.0000
     1.0000   1.0000   1.0000   1.0000   1.0000   1.0000   1.0000   1.0000
     1.0000   1.0000   1.0000   1.0000   1.0000   1.0000   1.0000   1.0000
     1.0000   1.0000   1.0000   1.0000   1.0000   1.0000   1.0000   1.0000
     1.0000   1.0000   1.0000   1.0000   1.0000   1.0000   1.0000   1.0000
     1.0000   1.0000   1.0000   1.0000   1.0000   1.0000   1.0000   1.0000
     1.0000   1.0000   1.0000   1.0000   1.0000   1.0000   1.0000   1.0000
     1.0000   1.0000   1.0000   1.0000   1.0000   1.0000   1.0000   1.0000
     1.0000   1.0000   1.0000   1.0000   1.0000   1.0000   1.0000   1.0000
     1.0000   1.0000   1.0000   1.0000   1.0000   1.0000   1.0000   1.0000
     1.0000   0.8859   0.0000   0.0000   0.0000   0.0000   0.0000   0.0000
     0.0000   0.0000   0.0000   0.0000   0.0000   0.0000   0.0000   0.0000
     0.0000   0.0000

          k = 0.3333 0.3341 0.0000 (  5076 PWs)   bands (ev):

   -43.7938 -43.7930 -43.7919 -43.7909 -23.2385 -23.2328 -23.2249 -23.2188
   -20.0976 -20.0973 -20.0665 -20.0655 -19.9987 -19.9945 -19.9723 -19.9712
   -19.9660 -19.9621 -19.8520 -19.8498  -7.5496  -7.4621  -7.2781  -6.9015
    -6.8797  -6.7990  -6.7762  -6.5352  -6.4629  -6.4270  -6.4214  -6.3243
    -5.2365  -5.2157  -5.2037  -5.1887  -5.1852  -5.1640  -5.0072  -4.9699
    -4.8855  -4.8551  -4.8408  -4.8071   5.1937   5.2445   5.3664   5.4029
     5.5114   5.6171   5.8252   5.8360   6.3084   6.5966   6.6637   7.0851
     7.1149   7.1385   7.1710   7.2795   7.3515   7.3563   7.4934   7.5465
     7.6908   7.7491   7.8283   8.0573   8.0764   8.1352   8.4152   8.4191
     8.5972   8.6096   8.6653   8.7101   8.9309   8.9500   9.2634   9.4791
    12.1263  12.7757  13.7321  13.7382  13.7847  14.2939  14.3418  14.3523
    14.4038  14.5717  14.8797  15.3010  15.7638  16.0519  16.1675  16.2956
    16.4769  16.4971

     occupation numbers 
     1.0000   1.0000   1.0000   1.0000   1.0000   1.0000   1.0000   1.0000
     1.0000   1.0000   1.0000   1.0000   1.0000   1.0000   1.0000   1.0000
     1.0000   1.0000   1.0000   1.0000   1.0000   1.0000   1.0000   1.0000
     1.0000   1.0000   1.0000   1.0000   1.0000   1.0000   1.0000   1.0000
     1.0000   1.0000   1.0000   1.0000   1.0000   1.0000   1.0000   1.0000
     1.0000   1.0000   1.0000   1.0000   1.0000   1.0000   1.0000   1.0000
     1.0000   1.0000   1.0000   1.0000   1.0000   1.0000   1.0000   1.0000
     1.0000   1.0000   1.0000   1.0000   1.0000   1.0000   1.0000   1.0000
     1.0000   1.0000   1.0000   1.0000   1.0000   1.0000   1.0000   1.0000
     1.0000   1.0000   1.0000   1.0000   1.0000   1.0000   1.0000   1.0000
     1.0000   1.0000   0.0000   0.0000   0.0000   0.0000   0.0000   0.0000
     0.0000   0.0000   0.0000   0.0000   0.0000   0.0000   0.0000   0.0000
     0.0000   0.0000

          k = 0.3333 0.3341 0.2331 (  5093 PWs)   bands (ev):

   -43.7935 -43.7929 -43.7921 -43.7914 -23.2360 -23.2302 -23.2274 -23.2214
   -20.0975 -20.0973 -20.0663 -20.0658 -19.9977 -19.9956 -19.9651 -19.9632
   -19.9429 -19.9414 -19.8825 -19.8807  -7.4482  -7.3222  -7.3092  -7.0467
    -6.7861  -6.7190  -6.7063  -6.5826  -6.5656  -6.5101  -6.4736  -6.3943
    -5.2422  -5.2382  -5.2069  -5.1891  -5.0958  -5.0371  -4.9921  -4.9814
    -4.9222  -4.8996  -4.8958  -4.8811   5.2173   5.2347   5.7275   5.7678
     5.8164   5.8486   5.9917   6.0737   6.2211   6.5787   6.5981   6.6518
     6.7848   6.9255   7.1139   7.1280   7.1803   7.2968   7.3035   7.5577
     7.6044   7.8371   7.9115   7.9349   8.1841   8.2945   8.4643   8.4685
     8.5199   8.5446   8.6033   8.6697   8.7080   8.7950   9.1693   9.2908
    12.7173  13.1988  13.7444  13.7567  13.8230  13.8876  14.0820  14.3292
    14.3591  14.4810  14.4876  14.9405  16.1777  16.2968  16.3524  16.7511
    16.7762  16.8168

     occupation numbers 
     1.0000   1.0000   1.0000   1.0000   1.0000   1.0000   1.0000   1.0000
     1.0000   1.0000   1.0000   1.0000   1.0000   1.0000   1.0000   1.0000
     1.0000   1.0000   1.0000   1.0000   1.0000   1.0000   1.0000   1.0000
     1.0000   1.0000   1.0000   1.0000   1.0000   1.0000   1.0000   1.0000
     1.0000   1.0000   1.0000   1.0000   1.0000   1.0000   1.0000   1.0000
     1.0000   1.0000   1.0000   1.0000   1.0000   1.0000   1.0000   1.0000
     1.0000   1.0000   1.0000   1.0000   1.0000   1.0000   1.0000   1.0000
     1.0000   1.0000   1.0000   1.0000   1.0000   1.0000   1.0000   1.0000
     1.0000   1.0000   1.0000   1.0000   1.0000   1.0000   1.0000   1.0000
     1.0000   1.0000   1.0000   1.0000   1.0000   1.0000   1.0000   1.0000
     1.0000   0.0000   0.0000   0.0000   0.0000   0.0000   0.0000   0.0000
     0.0000   0.0000   0.0000   0.0000   0.0000   0.0000   0.0000   0.0000
     0.0000   0.0000

     the Fermi energy is    13.0334 ev

!    total energy              =   -2119.30606016 Ry
     estimated scf accuracy    <       0.00000019 Ry
     smearing contrib. (-TS)   =      -0.00014452 Ry
     internal energy E=F+TS    =   -2119.30591564 Ry

     The total energy is F=E-TS. E is the sum of the following terms:
     one-electron contribution =    -255.47335081 Ry
     hartree contribution      =     225.32534446 Ry
     xc contribution           =    -278.39227255 Ry
     ewald contribution        =    -862.54483467 Ry
     one-center paw contrib.   =    -948.22080208 Ry
      -> PAW hartree energy AE =       0.00000000 Ry
      -> PAW hartree energy PS =       0.00000000 Ry
      -> PAW xc energy AE      =       0.00000000 Ry
      -> PAW xc energy PS      =       0.00000000 Ry
      -> total E_H with PAW    =     225.32534446 Ry
      -> total E_XC with PAW   =    -278.39227255 Ry

     convergence has been achieved in  13 iterations

     Writing all to output data dir energy_m/myprefix.save/
 
     init_run     :      5.00s CPU      1.47s WALL (       1 calls)
     electrons    :    110.24s CPU     30.16s WALL (       1 calls)

     Called by init_run:
     wfcinit      :      2.49s CPU      0.65s WALL (       1 calls)
     wfcinit:atom :      0.02s CPU      0.00s WALL (       4 calls)
     wfcinit:wfcr :      2.39s CPU      0.62s WALL (       4 calls)
     potinit      :      0.90s CPU      0.24s WALL (       1 calls)
     hinit0       :      1.17s CPU      0.45s WALL (       1 calls)

     Called by electrons:
     c_bands      :     82.79s CPU     22.60s WALL (      13 calls)
     sum_band     :     15.02s CPU      4.13s WALL (      13 calls)
     v_of_rho     :      1.14s CPU      0.30s WALL (      14 calls)
     v_h          :      0.07s CPU      0.02s WALL (      14 calls)
     v_xc         :      1.08s CPU      0.28s WALL (      14 calls)
     newd         :      3.73s CPU      1.04s WALL (      14 calls)
     PAW_pot      :      7.33s CPU      2.00s WALL (      14 calls)
     mix_rho      :      0.29s CPU      0.08s WALL (      13 calls)

     Called by c_bands:
     init_us_2    :      0.28s CPU      0.07s WALL (     108 calls)
     init_us_2:cp :      0.27s CPU      0.07s WALL (     108 calls)
     cegterg      :     66.26s CPU     17.20s WALL (      52 calls)

     Called by sum_band:
     sum_band:wei :      0.02s CPU      0.01s WALL (      13 calls)
     sum_band:loo :      7.62s CPU      1.98s WALL (      13 calls)
     sum_band:buf :      0.10s CPU      0.02s WALL (      52 calls)
     sum_band:ini :      0.13s CPU      0.04s WALL (      52 calls)
     sum_band:cal :      1.97s CPU      0.50s WALL (      52 calls)
     sum_band:bec :      0.03s CPU      0.02s WALL (      52 calls)
     addusdens    :      1.95s CPU      0.60s WALL (      13 calls)
     addusd:skk   :      0.01s CPU      0.00s WALL (      39 calls)
     addusd:dgemm :      0.35s CPU      0.19s WALL (      39 calls)
     addusd:qvan2 :      1.30s CPU      0.33s WALL (      39 calls)

     Called by *egterg:
     cdiaghg      :     11.27s CPU      3.01s WALL (     298 calls)
     cegterg:over :      7.15s CPU      1.80s WALL (     246 calls)
     cegterg:upda :      1.61s CPU      0.44s WALL (     246 calls)
     cegterg:last :      4.20s CPU      1.07s WALL (     112 calls)
     h_psi        :     33.99s CPU      8.82s WALL (     302 calls)
     s_psi        :      3.18s CPU      0.83s WALL (     302 calls)
     g_psi        :      0.04s CPU      0.01s WALL (     246 calls)

     Called by h_psi:
     h_psi:calbec :      5.24s CPU      1.34s WALL (     302 calls)
     vloc_psi     :     25.44s CPU      6.61s WALL (     302 calls)
     add_vuspsi   :      3.24s CPU      0.85s WALL (     302 calls)

     General routines
     calbec       :      7.21s CPU      1.84s WALL (     354 calls)
     fft          :      0.91s CPU      0.26s WALL (     180 calls)
     ffts         :      0.11s CPU      0.03s WALL (      27 calls)
     fftw         :     29.94s CPU      7.34s WALL (   32154 calls)
     interpolate  :      0.14s CPU      0.04s WALL (      14 calls)
 
     Parallel routines

     PAW routines
     PAW_pot      :      7.33s CPU      2.00s WALL (      14 calls)
     PAW_symme    :      0.20s CPU      0.06s WALL (      27 calls)
 
     PWSCF        :   1m56.39s CPU     32.26s WALL

 
   This run was terminated on:  16:54:24  16Jul2023            

=------------------------------------------------------------------------------=
   JOB DONE.
=------------------------------------------------------------------------------=
