
     Program PWSCF v.7.0 starts on 20May2023 at  3:21:13 

     This program is part of the open-source Quantum ESPRESSO suite
     for quantum simulation of materials; please cite
         "P. Giannozzi et al., J. Phys.:Condens. Matter 21 395502 (2009);
         "P. Giannozzi et al., J. Phys.:Condens. Matter 29 465901 (2017);
         "P. Giannozzi et al., J. Chem. Phys. 152 154105 (2020);
          URL http://www.quantum-espresso.org", 
     in publications or presentations arising from this work. More details at
     http://www.quantum-espresso.org/quote

     Parallel version (MPI & OpenMP), running on      32 processor cores
     Number of MPI processes:                 1
     Threads/MPI process:                    32

     MPI processes distributed on     1 nodes
     165469 MiB available memory on the printing compute node when the environment starts
 
     Reading input from espresso_15017.pwi
Warning: card &CELL ignored
Warning: card / ignored

     Current dimensions of program PWSCF are:
     Max number of different atomic species (ntypx) = 10
     Max number of k-points (npk) =  40000
     Max angular momentum in pseudopotentials (lmaxx) =  4
     file Al.pbe-n-kjpaw_psl.1.0.0.UPF: wavefunction(s)  3S 3P renormalized
     file C.pbe-n-kjpaw_psl.1.0.0.UPF: wavefunction(s)  2S 2P renormalized

     gamma-point specific algorithms are used
     Message from routine setup:
     using ibrav=0 with symmetry is DISCOURAGED, use correct ibrav instead

     Subspace diagonalization in iterative solution of the eigenvalue problem:
     a serial algorithm will be used

 
     G-vector sticks info
     --------------------
     sticks:   dense  smooth     PW     G-vecs:    dense   smooth      PW
     Sum        1373     681    177                38911    13613    1743
 
     Using Slab Decomposition
 


     bravais-lattice index     =            0
     lattice parameter (alat)  =       8.5268  a.u.
     unit-cell volume          =     619.9422 (a.u.)^3
     number of atoms/cell      =            5
     number of atomic types    =            3
     number of electrons       =        40.00
     number of Kohn-Sham states=           24
     kinetic-energy cutoff     =      30.0000  Ry
     charge density cutoff     =     240.0000  Ry
     scf convergence threshold =      1.0E-06
     mixing beta               =       0.7000
     number of iterations used =            8  plain     mixing
     Exchange-correlation= SLA  PW   PBX  PBC
                           (   1   4   3   4   0   0   0)

     celldm(1)=   8.526754  celldm(2)=   0.000000  celldm(3)=   0.000000
     celldm(4)=   0.000000  celldm(5)=   0.000000  celldm(6)=   0.000000

     crystal axes: (cart. coord. in units of alat)
               a(1) = (   1.000000   0.000000   0.000000 )  
               a(2) = (   0.000000   1.000000   0.000000 )  
               a(3) = (   0.000000   0.000000   1.000000 )  

     reciprocal axes: (cart. coord. in units 2 pi/alat)
               b(1) = (  1.000000  0.000000  0.000000 )  
               b(2) = (  0.000000  1.000000  0.000000 )  
               b(3) = (  0.000000  0.000000  1.000000 )  


     PseudoPot. # 1 for Sc read from file:
     /home/pragov/projects/rrg-bengioy-ad/pragov/crystal_structure_design/SSSP/Sc_ONCV_PBE-1.0.oncvpsp.upf
     MD5 check sum: e21af8023abb52e52cb7cd3133e4a229
     Pseudo is Norm-conserving, Zval = 11.0
     Generated using ONCVPSP code by D. R. Hamann
     Using radial grid of 1662 points,  6 beta functions with: 
                l(1) =   0
                l(2) =   0
                l(3) =   1
                l(4) =   1
                l(5) =   2
                l(6) =   2

     PseudoPot. # 2 for Al read from file:
     /home/pragov/projects/rrg-bengioy-ad/pragov/crystal_structure_design/SSSP/Al.pbe-n-kjpaw_psl.1.0.0.UPF
     MD5 check sum: cfc449ca30b5f3223ec38ddd88ac046d
     Pseudo is Projector augmented-wave + core cor, Zval =  3.0
     Generated using "atomic" code by A. Dal Corso  v.5.1
     Shape of augmentation charge: PSQ
     Using radial grid of 1135 points,  6 beta functions with: 
                l(1) =   0
                l(2) =   0
                l(3) =   1
                l(4) =   1
                l(5) =   2
                l(6) =   2
     Q(r) pseudized with 0 coefficients 


     PseudoPot. # 3 for C  read from file:
     /home/pragov/projects/rrg-bengioy-ad/pragov/crystal_structure_design/SSSP/C.pbe-n-kjpaw_psl.1.0.0.UPF
     MD5 check sum: 5d2aebdfa2cae82b50a7e79e9516da0f
     Pseudo is Projector augmented-wave + core cor, Zval =  4.0
     Generated using "atomic" code by A. Dal Corso  v.5.1
     Shape of augmentation charge: PSQ
     Using radial grid of 1073 points,  4 beta functions with: 
                l(1) =   0
                l(2) =   0
                l(3) =   1
                l(4) =   1
     Q(r) pseudized with 0 coefficients 


     atomic species   valence    mass     pseudopotential
        Sc            11.00    44.95591     Sc( 1.00)
        Al             3.00    26.98154     Al( 1.00)
        C              4.00    12.01100     C ( 1.00)

     48 Sym. Ops., with inversion, found


                                    s                        frac. trans.

      isym =  1     identity                                     

 cryst.   s( 1) = (     1          0          0      )
                  (     0          1          0      )
                  (     0          0          1      )

 cart.    s( 1) = (  1.0000000  0.0000000  0.0000000 )
                  (  0.0000000  1.0000000  0.0000000 )
                  (  0.0000000  0.0000000  1.0000000 )


      isym =  2     180 deg rotation - cart. axis [0,0,1]        

 cryst.   s( 2) = (    -1          0          0      )
                  (     0         -1          0      )
                  (     0          0          1      )

 cart.    s( 2) = ( -1.0000000  0.0000000  0.0000000 )
                  (  0.0000000 -1.0000000  0.0000000 )
                  (  0.0000000  0.0000000  1.0000000 )


      isym =  3     180 deg rotation - cart. axis [0,1,0]        

 cryst.   s( 3) = (    -1          0          0      )
                  (     0          1          0      )
                  (     0          0         -1      )

 cart.    s( 3) = ( -1.0000000  0.0000000  0.0000000 )
                  (  0.0000000  1.0000000  0.0000000 )
                  (  0.0000000  0.0000000 -1.0000000 )


      isym =  4     180 deg rotation - cart. axis [1,0,0]        

 cryst.   s( 4) = (     1          0          0      )
                  (     0         -1          0      )
                  (     0          0         -1      )

 cart.    s( 4) = (  1.0000000  0.0000000  0.0000000 )
                  (  0.0000000 -1.0000000  0.0000000 )
                  (  0.0000000  0.0000000 -1.0000000 )


      isym =  5     180 deg rotation - cart. axis [1,1,0]        

 cryst.   s( 5) = (     0          1          0      )
                  (     1          0          0      )
                  (     0          0         -1      )

 cart.    s( 5) = (  0.0000000  1.0000000  0.0000000 )
                  (  1.0000000  0.0000000  0.0000000 )
                  (  0.0000000  0.0000000 -1.0000000 )


      isym =  6     180 deg rotation - cart. axis [1,-1,0]       

 cryst.   s( 6) = (     0         -1          0      )
                  (    -1          0          0      )
                  (     0          0         -1      )

 cart.    s( 6) = (  0.0000000 -1.0000000  0.0000000 )
                  ( -1.0000000  0.0000000  0.0000000 )
                  (  0.0000000  0.0000000 -1.0000000 )


      isym =  7      90 deg rotation - cart. axis [0,0,-1]       

 cryst.   s( 7) = (     0         -1          0      )
                  (     1          0          0      )
                  (     0          0          1      )

 cart.    s( 7) = (  0.0000000  1.0000000  0.0000000 )
                  ( -1.0000000  0.0000000  0.0000000 )
                  (  0.0000000  0.0000000  1.0000000 )


      isym =  8      90 deg rotation - cart. axis [0,0,1]        

 cryst.   s( 8) = (     0          1          0      )
                  (    -1          0          0      )
                  (     0          0          1      )

 cart.    s( 8) = (  0.0000000 -1.0000000  0.0000000 )
                  (  1.0000000  0.0000000  0.0000000 )
                  (  0.0000000  0.0000000  1.0000000 )


      isym =  9     180 deg rotation - cart. axis [1,0,1]        

 cryst.   s( 9) = (     0          0          1      )
                  (     0         -1          0      )
                  (     1          0          0      )

 cart.    s( 9) = (  0.0000000  0.0000000  1.0000000 )
                  (  0.0000000 -1.0000000  0.0000000 )
                  (  1.0000000  0.0000000  0.0000000 )


      isym = 10     180 deg rotation - cart. axis [-1,0,1]       

 cryst.   s(10) = (     0          0         -1      )
                  (     0         -1          0      )
                  (    -1          0          0      )

 cart.    s(10) = (  0.0000000  0.0000000 -1.0000000 )
                  (  0.0000000 -1.0000000  0.0000000 )
                  ( -1.0000000  0.0000000  0.0000000 )


      isym = 11      90 deg rotation - cart. axis [0,1,0]        

 cryst.   s(11) = (     0          0         -1      )
                  (     0          1          0      )
                  (     1          0          0      )

 cart.    s(11) = (  0.0000000  0.0000000  1.0000000 )
                  (  0.0000000  1.0000000  0.0000000 )
                  ( -1.0000000  0.0000000  0.0000000 )


      isym = 12      90 deg rotation - cart. axis [0,-1,0]       

 cryst.   s(12) = (     0          0          1      )
                  (     0          1          0      )
                  (    -1          0          0      )

 cart.    s(12) = (  0.0000000  0.0000000 -1.0000000 )
                  (  0.0000000  1.0000000  0.0000000 )
                  (  1.0000000  0.0000000  0.0000000 )


      isym = 13     180 deg rotation - cart. axis [0,1,1]        

 cryst.   s(13) = (    -1          0          0      )
                  (     0          0          1      )
                  (     0          1          0      )

 cart.    s(13) = ( -1.0000000  0.0000000  0.0000000 )
                  (  0.0000000  0.0000000  1.0000000 )
                  (  0.0000000  1.0000000  0.0000000 )


      isym = 14     180 deg rotation - cart. axis [0,1,-1]       

 cryst.   s(14) = (    -1          0          0      )
                  (     0          0         -1      )
                  (     0         -1          0      )

 cart.    s(14) = ( -1.0000000  0.0000000  0.0000000 )
                  (  0.0000000  0.0000000 -1.0000000 )
                  (  0.0000000 -1.0000000  0.0000000 )


      isym = 15      90 deg rotation - cart. axis [-1,0,0]       

 cryst.   s(15) = (     1          0          0      )
                  (     0          0         -1      )
                  (     0          1          0      )

 cart.    s(15) = (  1.0000000  0.0000000  0.0000000 )
                  (  0.0000000  0.0000000  1.0000000 )
                  (  0.0000000 -1.0000000  0.0000000 )


      isym = 16      90 deg rotation - cart. axis [1,0,0]        

 cryst.   s(16) = (     1          0          0      )
                  (     0          0          1      )
                  (     0         -1          0      )

 cart.    s(16) = (  1.0000000  0.0000000  0.0000000 )
                  (  0.0000000  0.0000000 -1.0000000 )
                  (  0.0000000  1.0000000  0.0000000 )


      isym = 17     120 deg rotation - cart. axis [-1,-1,-1]     

 cryst.   s(17) = (     0          0          1      )
                  (     1          0          0      )
                  (     0          1          0      )

 cart.    s(17) = (  0.0000000  1.0000000  0.0000000 )
                  (  0.0000000  0.0000000  1.0000000 )
                  (  1.0000000  0.0000000  0.0000000 )


      isym = 18     120 deg rotation - cart. axis [-1,1,1]       

 cryst.   s(18) = (     0          0         -1      )
                  (    -1          0          0      )
                  (     0          1          0      )

 cart.    s(18) = (  0.0000000 -1.0000000  0.0000000 )
                  (  0.0000000  0.0000000  1.0000000 )
                  ( -1.0000000  0.0000000  0.0000000 )


      isym = 19     120 deg rotation - cart. axis [1,1,-1]       

 cryst.   s(19) = (     0          0         -1      )
                  (     1          0          0      )
                  (     0         -1          0      )

 cart.    s(19) = (  0.0000000  1.0000000  0.0000000 )
                  (  0.0000000  0.0000000 -1.0000000 )
                  ( -1.0000000  0.0000000  0.0000000 )


      isym = 20     120 deg rotation - cart. axis [1,-1,1]       

 cryst.   s(20) = (     0          0          1      )
                  (    -1          0          0      )
                  (     0         -1          0      )

 cart.    s(20) = (  0.0000000 -1.0000000  0.0000000 )
                  (  0.0000000  0.0000000 -1.0000000 )
                  (  1.0000000  0.0000000  0.0000000 )


      isym = 21     120 deg rotation - cart. axis [1,1,1]        

 cryst.   s(21) = (     0          1          0      )
                  (     0          0          1      )
                  (     1          0          0      )

 cart.    s(21) = (  0.0000000  0.0000000  1.0000000 )
                  (  1.0000000  0.0000000  0.0000000 )
                  (  0.0000000  1.0000000  0.0000000 )


      isym = 22     120 deg rotation - cart. axis [-1,1,-1]      

 cryst.   s(22) = (     0         -1          0      )
                  (     0          0         -1      )
                  (     1          0          0      )

 cart.    s(22) = (  0.0000000  0.0000000  1.0000000 )
                  ( -1.0000000  0.0000000  0.0000000 )
                  (  0.0000000 -1.0000000  0.0000000 )


      isym = 23     120 deg rotation - cart. axis [1,-1,-1]      

 cryst.   s(23) = (     0         -1          0      )
                  (     0          0          1      )
                  (    -1          0          0      )

 cart.    s(23) = (  0.0000000  0.0000000 -1.0000000 )
                  ( -1.0000000  0.0000000  0.0000000 )
                  (  0.0000000  1.0000000  0.0000000 )


      isym = 24     120 deg rotation - cart. axis [-1,-1,1]      

 cryst.   s(24) = (     0          1          0      )
                  (     0          0         -1      )
                  (    -1          0          0      )

 cart.    s(24) = (  0.0000000  0.0000000 -1.0000000 )
                  (  1.0000000  0.0000000  0.0000000 )
                  (  0.0000000 -1.0000000  0.0000000 )


      isym = 25     inversion                                    

 cryst.   s(25) = (    -1          0          0      )
                  (     0         -1          0      )
                  (     0          0         -1      )

 cart.    s(25) = ( -1.0000000  0.0000000  0.0000000 )
                  (  0.0000000 -1.0000000  0.0000000 )
                  (  0.0000000  0.0000000 -1.0000000 )


      isym = 26     inv. 180 deg rotation - cart. axis [0,0,1]   

 cryst.   s(26) = (     1          0          0      )
                  (     0          1          0      )
                  (     0          0         -1      )

 cart.    s(26) = (  1.0000000  0.0000000  0.0000000 )
                  (  0.0000000  1.0000000  0.0000000 )
                  (  0.0000000  0.0000000 -1.0000000 )


      isym = 27     inv. 180 deg rotation - cart. axis [0,1,0]   

 cryst.   s(27) = (     1          0          0      )
                  (     0         -1          0      )
                  (     0          0          1      )

 cart.    s(27) = (  1.0000000  0.0000000  0.0000000 )
                  (  0.0000000 -1.0000000  0.0000000 )
                  (  0.0000000  0.0000000  1.0000000 )


      isym = 28     inv. 180 deg rotation - cart. axis [1,0,0]   

 cryst.   s(28) = (    -1          0          0      )
                  (     0          1          0      )
                  (     0          0          1      )

 cart.    s(28) = ( -1.0000000  0.0000000  0.0000000 )
                  (  0.0000000  1.0000000  0.0000000 )
                  (  0.0000000  0.0000000  1.0000000 )


      isym = 29     inv. 180 deg rotation - cart. axis [1,1,0]   

 cryst.   s(29) = (     0         -1          0      )
                  (    -1          0          0      )
                  (     0          0          1      )

 cart.    s(29) = (  0.0000000 -1.0000000  0.0000000 )
                  ( -1.0000000  0.0000000  0.0000000 )
                  (  0.0000000  0.0000000  1.0000000 )


      isym = 30     inv. 180 deg rotation - cart. axis [1,-1,0]  

 cryst.   s(30) = (     0          1          0      )
                  (     1          0          0      )
                  (     0          0          1      )

 cart.    s(30) = (  0.0000000  1.0000000  0.0000000 )
                  (  1.0000000  0.0000000  0.0000000 )
                  (  0.0000000  0.0000000  1.0000000 )


      isym = 31     inv.  90 deg rotation - cart. axis [0,0,-1]  

 cryst.   s(31) = (     0          1          0      )
                  (    -1          0          0      )
                  (     0          0         -1      )

 cart.    s(31) = (  0.0000000 -1.0000000  0.0000000 )
                  (  1.0000000  0.0000000  0.0000000 )
                  (  0.0000000  0.0000000 -1.0000000 )


      isym = 32     inv.  90 deg rotation - cart. axis [0,0,1]   

 cryst.   s(32) = (     0         -1          0      )
                  (     1          0          0      )
                  (     0          0         -1      )

 cart.    s(32) = (  0.0000000  1.0000000  0.0000000 )
                  ( -1.0000000  0.0000000  0.0000000 )
                  (  0.0000000  0.0000000 -1.0000000 )


      isym = 33     inv. 180 deg rotation - cart. axis [1,0,1]   

 cryst.   s(33) = (     0          0         -1      )
                  (     0          1          0      )
                  (    -1          0          0      )

 cart.    s(33) = (  0.0000000  0.0000000 -1.0000000 )
                  (  0.0000000  1.0000000  0.0000000 )
                  ( -1.0000000  0.0000000  0.0000000 )


      isym = 34     inv. 180 deg rotation - cart. axis [-1,0,1]  

 cryst.   s(34) = (     0          0          1      )
                  (     0          1          0      )
                  (     1          0          0      )

 cart.    s(34) = (  0.0000000  0.0000000  1.0000000 )
                  (  0.0000000  1.0000000  0.0000000 )
                  (  1.0000000  0.0000000  0.0000000 )


      isym = 35     inv.  90 deg rotation - cart. axis [0,1,0]   

 cryst.   s(35) = (     0          0          1      )
                  (     0         -1          0      )
                  (    -1          0          0      )

 cart.    s(35) = (  0.0000000  0.0000000 -1.0000000 )
                  (  0.0000000 -1.0000000  0.0000000 )
                  (  1.0000000  0.0000000  0.0000000 )


      isym = 36     inv.  90 deg rotation - cart. axis [0,-1,0]  

 cryst.   s(36) = (     0          0         -1      )
                  (     0         -1          0      )
                  (     1          0          0      )

 cart.    s(36) = (  0.0000000  0.0000000  1.0000000 )
                  (  0.0000000 -1.0000000  0.0000000 )
                  ( -1.0000000  0.0000000  0.0000000 )


      isym = 37     inv. 180 deg rotation - cart. axis [0,1,1]   

 cryst.   s(37) = (     1          0          0      )
                  (     0          0         -1      )
                  (     0         -1          0      )

 cart.    s(37) = (  1.0000000  0.0000000  0.0000000 )
                  (  0.0000000  0.0000000 -1.0000000 )
                  (  0.0000000 -1.0000000  0.0000000 )


      isym = 38     inv. 180 deg rotation - cart. axis [0,1,-1]  

 cryst.   s(38) = (     1          0          0      )
                  (     0          0          1      )
                  (     0          1          0      )

 cart.    s(38) = (  1.0000000  0.0000000  0.0000000 )
                  (  0.0000000  0.0000000  1.0000000 )
                  (  0.0000000  1.0000000  0.0000000 )


      isym = 39     inv.  90 deg rotation - cart. axis [-1,0,0]  

 cryst.   s(39) = (    -1          0          0      )
                  (     0          0          1      )
                  (     0         -1          0      )

 cart.    s(39) = ( -1.0000000  0.0000000  0.0000000 )
                  (  0.0000000  0.0000000 -1.0000000 )
                  (  0.0000000  1.0000000  0.0000000 )


      isym = 40     inv.  90 deg rotation - cart. axis [1,0,0]   

 cryst.   s(40) = (    -1          0          0      )
                  (     0          0         -1      )
                  (     0          1          0      )

 cart.    s(40) = ( -1.0000000  0.0000000  0.0000000 )
                  (  0.0000000  0.0000000  1.0000000 )
                  (  0.0000000 -1.0000000  0.0000000 )


      isym = 41     inv. 120 deg rotation - cart. axis [-1,-1,-1]

 cryst.   s(41) = (     0          0         -1      )
                  (    -1          0          0      )
                  (     0         -1          0      )

 cart.    s(41) = (  0.0000000 -1.0000000  0.0000000 )
                  (  0.0000000  0.0000000 -1.0000000 )
                  ( -1.0000000  0.0000000  0.0000000 )


      isym = 42     inv. 120 deg rotation - cart. axis [-1,1,1]  

 cryst.   s(42) = (     0          0          1      )
                  (     1          0          0      )
                  (     0         -1          0      )

 cart.    s(42) = (  0.0000000  1.0000000  0.0000000 )
                  (  0.0000000  0.0000000 -1.0000000 )
                  (  1.0000000  0.0000000  0.0000000 )


      isym = 43     inv. 120 deg rotation - cart. axis [1,1,-1]  

 cryst.   s(43) = (     0          0          1      )
                  (    -1          0          0      )
                  (     0          1          0      )

 cart.    s(43) = (  0.0000000 -1.0000000  0.0000000 )
                  (  0.0000000  0.0000000  1.0000000 )
                  (  1.0000000  0.0000000  0.0000000 )


      isym = 44     inv. 120 deg rotation - cart. axis [1,-1,1]  

 cryst.   s(44) = (     0          0         -1      )
                  (     1          0          0      )
                  (     0          1          0      )

 cart.    s(44) = (  0.0000000  1.0000000  0.0000000 )
                  (  0.0000000  0.0000000  1.0000000 )
                  ( -1.0000000  0.0000000  0.0000000 )


      isym = 45     inv. 120 deg rotation - cart. axis [1,1,1]   

 cryst.   s(45) = (     0         -1          0      )
                  (     0          0         -1      )
                  (    -1          0          0      )

 cart.    s(45) = (  0.0000000  0.0000000 -1.0000000 )
                  ( -1.0000000  0.0000000  0.0000000 )
                  (  0.0000000 -1.0000000  0.0000000 )


      isym = 46     inv. 120 deg rotation - cart. axis [-1,1,-1] 

 cryst.   s(46) = (     0          1          0      )
                  (     0          0          1      )
                  (    -1          0          0      )

 cart.    s(46) = (  0.0000000  0.0000000 -1.0000000 )
                  (  1.0000000  0.0000000  0.0000000 )
                  (  0.0000000  1.0000000  0.0000000 )


      isym = 47     inv. 120 deg rotation - cart. axis [1,-1,-1] 

 cryst.   s(47) = (     0          1          0      )
                  (     0          0         -1      )
                  (     1          0          0      )

 cart.    s(47) = (  0.0000000  0.0000000  1.0000000 )
                  (  1.0000000  0.0000000  0.0000000 )
                  (  0.0000000 -1.0000000  0.0000000 )


      isym = 48     inv. 120 deg rotation - cart. axis [-1,-1,1] 

 cryst.   s(48) = (     0         -1          0      )
                  (     0          0          1      )
                  (     1          0          0      )

 cart.    s(48) = (  0.0000000  0.0000000  1.0000000 )
                  ( -1.0000000  0.0000000  0.0000000 )
                  (  0.0000000  1.0000000  0.0000000 )


   Cartesian axes

     site n.     atom                  positions (alat units)
         1           Sc  tau(   1) = (   0.0000000   0.5000000   0.5000000  )
         2           Sc  tau(   2) = (   0.5000000   0.5000000   0.0000000  )
         3           Sc  tau(   3) = (   0.5000000   0.0000000   0.5000000  )
         4           Al  tau(   4) = (   0.0000000   0.0000000   0.0000000  )
         5           C   tau(   5) = (   0.5000000   0.5000000   0.5000000  )

   Crystallographic axes

     site n.     atom                  positions (cryst. coord.)
         1           Sc  tau(   1) = (  0.0000000  0.5000000  0.5000000  )
         2           Sc  tau(   2) = (  0.5000000  0.5000000  0.0000000  )
         3           Sc  tau(   3) = (  0.5000000  0.0000000  0.5000000  )
         4           Al  tau(   4) = (  0.0000000  0.0000000  0.0000000  )
         5           C   tau(   5) = (  0.5000000  0.5000000  0.5000000  )

     number of k points=     1  Methfessel-Paxton smearing, width (Ry)=  0.0010
                       cart. coord. in units 2pi/alat
        k(    1) = (   0.0000000   0.0000000   0.0000000), wk =   2.0000000

                       cryst. coord.
        k(    1) = (   0.0000000   0.0000000   0.0000000), wk =   2.0000000

     Dense  grid:    19456 G-vectors     FFT dimensions: (  45,  45,  45)

     Smooth grid:     6807 G-vectors     FFT dimensions: (  30,  30,  30)

     Dynamical RAM for                 wfc:       0.31 MB

     Dynamical RAM for     wfc (w. buffer):       0.31 MB

     Dynamical RAM for           str. fact:       0.89 MB

     Dynamical RAM for           local pot:       0.00 MB

     Dynamical RAM for          nlocal pot:       1.05 MB

     Dynamical RAM for                qrad:       3.73 MB

     Dynamical RAM for          rho,v,vnew:       2.98 MB

     Dynamical RAM for               rhoin:       0.99 MB

     Dynamical RAM for            rho*nmix:       4.75 MB

     Dynamical RAM for           G-vectors:       1.17 MB

     Dynamical RAM for          h,s,v(r/c):       0.05 MB

     Dynamical RAM for          <psi|beta>:       0.01 MB

     Dynamical RAM for                 psi:       0.63 MB

     Dynamical RAM for                hpsi:       0.63 MB

     Dynamical RAM for                spsi:       0.63 MB

     Dynamical RAM for      wfcinit/wfcrot:       1.03 MB

     Dynamical RAM for           addusdens:      55.52 MB

     Dynamical RAM for          addusforce:      55.67 MB

     Dynamical RAM for         addusstress:      59.67 MB

     Estimated static dynamical RAM per process >      15.78 MB

     Estimated max dynamical RAM per process >      80.21 MB

     Check: negative core charge=   -0.000010

     Initial potential from superposition of free atoms

     starting charge      39.9898, renormalised to      40.0000
     Starting wfcs are   38 randomized atomic wfcs
     Checking if some PAW data can be deallocated... 

     total cpu time spent up to now is        2.3 secs

     Self-consistent Calculation

     iteration #  1     ecut=    30.00 Ry     beta= 0.70
     Davidson diagonalization with overlap

---- Real-time Memory Report at c_bands before calling an iterative solver
           382 MiB given to the printing process from OS
             0 MiB allocation reported by mallinfo(arena+hblkhd)
        165304 MiB available memory on the node where the printing process lives
------------------
     ethr =  1.00E-02,  avg # of iterations =  2.0

     total cpu time spent up to now is        2.6 secs

     total energy              =    -331.55073155 Ry
     estimated scf accuracy    <       2.49970600 Ry

     iteration #  2     ecut=    30.00 Ry     beta= 0.70
     Davidson diagonalization with overlap

---- Real-time Memory Report at c_bands before calling an iterative solver
           411 MiB given to the printing process from OS
             0 MiB allocation reported by mallinfo(arena+hblkhd)
        165285 MiB available memory on the node where the printing process lives
------------------
     ethr =  6.25E-03,  avg # of iterations =  6.0

     total cpu time spent up to now is        2.9 secs

     total energy              =    -331.92988741 Ry
     estimated scf accuracy    <      13.54133988 Ry

     iteration #  3     ecut=    30.00 Ry     beta= 0.70
     Davidson diagonalization with overlap

---- Real-time Memory Report at c_bands before calling an iterative solver
           412 MiB given to the printing process from OS
             0 MiB allocation reported by mallinfo(arena+hblkhd)
        165285 MiB available memory on the node where the printing process lives
------------------
     ethr =  6.25E-03,  avg # of iterations =  5.0

     total cpu time spent up to now is        3.2 secs

     total energy              =    -333.04669190 Ry
     estimated scf accuracy    <       0.35734276 Ry

     iteration #  4     ecut=    30.00 Ry     beta= 0.70
     Davidson diagonalization with overlap

---- Real-time Memory Report at c_bands before calling an iterative solver
           412 MiB given to the printing process from OS
             0 MiB allocation reported by mallinfo(arena+hblkhd)
        165285 MiB available memory on the node where the printing process lives
------------------
     ethr =  8.93E-04,  avg # of iterations =  2.0

     total cpu time spent up to now is        3.5 secs

     total energy              =    -333.06880058 Ry
     estimated scf accuracy    <       0.12393062 Ry

     iteration #  5     ecut=    30.00 Ry     beta= 0.70
     Davidson diagonalization with overlap

---- Real-time Memory Report at c_bands before calling an iterative solver
           412 MiB given to the printing process from OS
             0 MiB allocation reported by mallinfo(arena+hblkhd)
        165289 MiB available memory on the node where the printing process lives
------------------
     ethr =  3.10E-04,  avg # of iterations =  2.0

     total cpu time spent up to now is        3.7 secs

     total energy              =    -333.06970457 Ry
     estimated scf accuracy    <       0.12163582 Ry

     iteration #  6     ecut=    30.00 Ry     beta= 0.70
     Davidson diagonalization with overlap

---- Real-time Memory Report at c_bands before calling an iterative solver
           412 MiB given to the printing process from OS
             0 MiB allocation reported by mallinfo(arena+hblkhd)
        165288 MiB available memory on the node where the printing process lives
------------------
     ethr =  3.04E-04,  avg # of iterations =  1.0

     total cpu time spent up to now is        4.0 secs

     total energy              =    -333.06445244 Ry
     estimated scf accuracy    <       0.06612006 Ry

     iteration #  7     ecut=    30.00 Ry     beta= 0.70
     Davidson diagonalization with overlap

---- Real-time Memory Report at c_bands before calling an iterative solver
           413 MiB given to the printing process from OS
             0 MiB allocation reported by mallinfo(arena+hblkhd)
        165294 MiB available memory on the node where the printing process lives
------------------
     ethr =  1.65E-04,  avg # of iterations =  2.0

     total cpu time spent up to now is        4.2 secs

     total energy              =    -333.06211442 Ry
     estimated scf accuracy    <       0.08928028 Ry

     iteration #  8     ecut=    30.00 Ry     beta= 0.70
     Davidson diagonalization with overlap

---- Real-time Memory Report at c_bands before calling an iterative solver
           415 MiB given to the printing process from OS
             0 MiB allocation reported by mallinfo(arena+hblkhd)
        165292 MiB available memory on the node where the printing process lives
------------------
     ethr =  1.65E-04,  avg # of iterations =  2.0

     total cpu time spent up to now is        4.4 secs

     total energy              =    -333.06286065 Ry
     estimated scf accuracy    <       0.06838937 Ry

     iteration #  9     ecut=    30.00 Ry     beta= 0.70
     Davidson diagonalization with overlap

---- Real-time Memory Report at c_bands before calling an iterative solver
           415 MiB given to the printing process from OS
             0 MiB allocation reported by mallinfo(arena+hblkhd)
        165293 MiB available memory on the node where the printing process lives
------------------
     ethr =  1.65E-04,  avg # of iterations =  1.0

     total cpu time spent up to now is        4.6 secs

     total energy              =    -333.06307213 Ry
     estimated scf accuracy    <       0.05429821 Ry

     iteration # 10     ecut=    30.00 Ry     beta= 0.70
     Davidson diagonalization with overlap

---- Real-time Memory Report at c_bands before calling an iterative solver
           415 MiB given to the printing process from OS
             0 MiB allocation reported by mallinfo(arena+hblkhd)
        165293 MiB available memory on the node where the printing process lives
------------------
     ethr =  1.36E-04,  avg # of iterations =  1.0

     total cpu time spent up to now is        4.9 secs

     total energy              =    -333.06520633 Ry
     estimated scf accuracy    <       0.05531980 Ry

     iteration # 11     ecut=    30.00 Ry     beta= 0.70
     Davidson diagonalization with overlap

---- Real-time Memory Report at c_bands before calling an iterative solver
           415 MiB given to the printing process from OS
             0 MiB allocation reported by mallinfo(arena+hblkhd)
        165293 MiB available memory on the node where the printing process lives
------------------
     ethr =  1.36E-04,  avg # of iterations =  1.0

     total cpu time spent up to now is        5.1 secs

     total energy              =    -333.06577450 Ry
     estimated scf accuracy    <       0.03887298 Ry

     iteration # 12     ecut=    30.00 Ry     beta= 0.70
     Davidson diagonalization with overlap

---- Real-time Memory Report at c_bands before calling an iterative solver
           415 MiB given to the printing process from OS
             0 MiB allocation reported by mallinfo(arena+hblkhd)
        165293 MiB available memory on the node where the printing process lives
------------------
     ethr =  9.72E-05,  avg # of iterations =  1.0

     total cpu time spent up to now is        5.3 secs

     total energy              =    -333.06464474 Ry
     estimated scf accuracy    <       0.02722225 Ry

     iteration # 13     ecut=    30.00 Ry     beta= 0.70
     Davidson diagonalization with overlap

---- Real-time Memory Report at c_bands before calling an iterative solver
           415 MiB given to the printing process from OS
             0 MiB allocation reported by mallinfo(arena+hblkhd)
        165293 MiB available memory on the node where the printing process lives
------------------
     ethr =  6.81E-05,  avg # of iterations =  1.0

     total cpu time spent up to now is        5.6 secs

     total energy              =    -333.06513460 Ry
     estimated scf accuracy    <       0.00979754 Ry

     iteration # 14     ecut=    30.00 Ry     beta= 0.70
     Davidson diagonalization with overlap

---- Real-time Memory Report at c_bands before calling an iterative solver
           415 MiB given to the printing process from OS
             0 MiB allocation reported by mallinfo(arena+hblkhd)
        165293 MiB available memory on the node where the printing process lives
------------------
     ethr =  2.45E-05,  avg # of iterations =  1.0

     total cpu time spent up to now is        5.8 secs

     total energy              =    -333.06528456 Ry
     estimated scf accuracy    <       0.00942800 Ry

     iteration # 15     ecut=    30.00 Ry     beta= 0.70
     Davidson diagonalization with overlap

---- Real-time Memory Report at c_bands before calling an iterative solver
           415 MiB given to the printing process from OS
             0 MiB allocation reported by mallinfo(arena+hblkhd)
        165293 MiB available memory on the node where the printing process lives
------------------
     ethr =  2.36E-05,  avg # of iterations =  1.0

     total cpu time spent up to now is        6.0 secs

     total energy              =    -333.06510334 Ry
     estimated scf accuracy    <       0.00446965 Ry

     iteration # 16     ecut=    30.00 Ry     beta= 0.70
     Davidson diagonalization with overlap

---- Real-time Memory Report at c_bands before calling an iterative solver
           415 MiB given to the printing process from OS
             0 MiB allocation reported by mallinfo(arena+hblkhd)
        165294 MiB available memory on the node where the printing process lives
------------------
     ethr =  1.12E-05,  avg # of iterations =  1.0

     total cpu time spent up to now is        6.3 secs

     total energy              =    -333.06537349 Ry
     estimated scf accuracy    <       0.00437331 Ry

     iteration # 17     ecut=    30.00 Ry     beta= 0.70
     Davidson diagonalization with overlap

---- Real-time Memory Report at c_bands before calling an iterative solver
           415 MiB given to the printing process from OS
             0 MiB allocation reported by mallinfo(arena+hblkhd)
        165294 MiB available memory on the node where the printing process lives
------------------
     ethr =  1.09E-05,  avg # of iterations =  1.0

     total cpu time spent up to now is        7.3 secs

     total energy              =    -333.06524575 Ry
     estimated scf accuracy    <       0.00454859 Ry

     iteration # 18     ecut=    30.00 Ry     beta= 0.70
     Davidson diagonalization with overlap

---- Real-time Memory Report at c_bands before calling an iterative solver
           415 MiB given to the printing process from OS
             0 MiB allocation reported by mallinfo(arena+hblkhd)
        165293 MiB available memory on the node where the printing process lives
------------------
     ethr =  1.09E-05,  avg # of iterations =  1.0

     total cpu time spent up to now is        8.0 secs

     total energy              =    -333.06535125 Ry
     estimated scf accuracy    <       0.00018712 Ry

     iteration # 19     ecut=    30.00 Ry     beta= 0.70
     Davidson diagonalization with overlap

---- Real-time Memory Report at c_bands before calling an iterative solver
           415 MiB given to the printing process from OS
             0 MiB allocation reported by mallinfo(arena+hblkhd)
        165293 MiB available memory on the node where the printing process lives
------------------
     ethr =  4.68E-07,  avg # of iterations =  5.0

     total cpu time spent up to now is        8.3 secs

     total energy              =    -333.06540228 Ry
     estimated scf accuracy    <       0.00019711 Ry

     iteration # 20     ecut=    30.00 Ry     beta= 0.70
     Davidson diagonalization with overlap

---- Real-time Memory Report at c_bands before calling an iterative solver
           415 MiB given to the printing process from OS
             0 MiB allocation reported by mallinfo(arena+hblkhd)
        165293 MiB available memory on the node where the printing process lives
------------------
     ethr =  4.68E-07,  avg # of iterations =  1.0

     total cpu time spent up to now is        8.5 secs

     total energy              =    -333.06540518 Ry
     estimated scf accuracy    <       0.00011351 Ry

     iteration # 21     ecut=    30.00 Ry     beta= 0.70
     Davidson diagonalization with overlap

---- Real-time Memory Report at c_bands before calling an iterative solver
           415 MiB given to the printing process from OS
             0 MiB allocation reported by mallinfo(arena+hblkhd)
        165293 MiB available memory on the node where the printing process lives
------------------
     ethr =  2.84E-07,  avg # of iterations =  1.0

     total cpu time spent up to now is        8.8 secs

     total energy              =    -333.06540880 Ry
     estimated scf accuracy    <       0.00021520 Ry

     iteration # 22     ecut=    30.00 Ry     beta= 0.70
     Davidson diagonalization with overlap

---- Real-time Memory Report at c_bands before calling an iterative solver
           415 MiB given to the printing process from OS
             0 MiB allocation reported by mallinfo(arena+hblkhd)
        165293 MiB available memory on the node where the printing process lives
------------------
     ethr =  2.84E-07,  avg # of iterations =  2.0

     total cpu time spent up to now is        9.0 secs

     total energy              =    -333.06540963 Ry
     estimated scf accuracy    <       0.00055295 Ry

     iteration # 23     ecut=    30.00 Ry     beta= 0.70
     Davidson diagonalization with overlap

---- Real-time Memory Report at c_bands before calling an iterative solver
           415 MiB given to the printing process from OS
             0 MiB allocation reported by mallinfo(arena+hblkhd)
        165293 MiB available memory on the node where the printing process lives
------------------
     ethr =  2.84E-07,  avg # of iterations =  2.0

     total cpu time spent up to now is        9.2 secs

     total energy              =    -333.06541725 Ry
     estimated scf accuracy    <       0.00016691 Ry

     iteration # 24     ecut=    30.00 Ry     beta= 0.70
     Davidson diagonalization with overlap

---- Real-time Memory Report at c_bands before calling an iterative solver
           415 MiB given to the printing process from OS
             0 MiB allocation reported by mallinfo(arena+hblkhd)
        165293 MiB available memory on the node where the printing process lives
------------------
     ethr =  2.84E-07,  avg # of iterations =  1.0

     total cpu time spent up to now is        9.5 secs

     total energy              =    -333.06540261 Ry
     estimated scf accuracy    <       0.00013072 Ry

     iteration # 25     ecut=    30.00 Ry     beta= 0.70
     Davidson diagonalization with overlap

---- Real-time Memory Report at c_bands before calling an iterative solver
           415 MiB given to the printing process from OS
             0 MiB allocation reported by mallinfo(arena+hblkhd)
        165293 MiB available memory on the node where the printing process lives
------------------
     ethr =  2.84E-07,  avg # of iterations =  2.0

     total cpu time spent up to now is        9.7 secs

     total energy              =    -333.06539056 Ry
     estimated scf accuracy    <       0.00036265 Ry

     iteration # 26     ecut=    30.00 Ry     beta= 0.70
     Davidson diagonalization with overlap

---- Real-time Memory Report at c_bands before calling an iterative solver
           415 MiB given to the printing process from OS
             0 MiB allocation reported by mallinfo(arena+hblkhd)
        165293 MiB available memory on the node where the printing process lives
------------------
     ethr =  2.84E-07,  avg # of iterations =  2.0

     total cpu time spent up to now is       10.0 secs

     total energy              =    -333.06540000 Ry
     estimated scf accuracy    <       0.00000282 Ry

     iteration # 27     ecut=    30.00 Ry     beta= 0.70
     Davidson diagonalization with overlap

---- Real-time Memory Report at c_bands before calling an iterative solver
           415 MiB given to the printing process from OS
             0 MiB allocation reported by mallinfo(arena+hblkhd)
        165292 MiB available memory on the node where the printing process lives
------------------
     ethr =  7.06E-09,  avg # of iterations =  6.0

     total cpu time spent up to now is       12.1 secs

     total energy              =    -333.06540114 Ry
     estimated scf accuracy    <       0.00001089 Ry

     iteration # 28     ecut=    30.00 Ry     beta= 0.70
     Davidson diagonalization with overlap

---- Real-time Memory Report at c_bands before calling an iterative solver
           415 MiB given to the printing process from OS
             0 MiB allocation reported by mallinfo(arena+hblkhd)
        165293 MiB available memory on the node where the printing process lives
------------------
     ethr =  7.06E-09,  avg # of iterations =  1.0

     total cpu time spent up to now is       13.4 secs

     total energy              =    -333.06540096 Ry
     estimated scf accuracy    <       0.00000407 Ry

     iteration # 29     ecut=    30.00 Ry     beta= 0.70
     Davidson diagonalization with overlap

---- Real-time Memory Report at c_bands before calling an iterative solver
           415 MiB given to the printing process from OS
             0 MiB allocation reported by mallinfo(arena+hblkhd)
        165293 MiB available memory on the node where the printing process lives
------------------
     ethr =  7.06E-09,  avg # of iterations =  1.0

     total cpu time spent up to now is       13.7 secs

     total energy              =    -333.06540102 Ry
     estimated scf accuracy    <       0.00000285 Ry

     iteration # 30     ecut=    30.00 Ry     beta= 0.70
     Davidson diagonalization with overlap

---- Real-time Memory Report at c_bands before calling an iterative solver
           415 MiB given to the printing process from OS
             0 MiB allocation reported by mallinfo(arena+hblkhd)
        165294 MiB available memory on the node where the printing process lives
------------------
     ethr =  7.06E-09,  avg # of iterations =  1.0

     total cpu time spent up to now is       14.6 secs

     total energy              =    -333.06540094 Ry
     estimated scf accuracy    <       0.00000231 Ry

     iteration # 31     ecut=    30.00 Ry     beta= 0.70
     Davidson diagonalization with overlap

---- Real-time Memory Report at c_bands before calling an iterative solver
           415 MiB given to the printing process from OS
             0 MiB allocation reported by mallinfo(arena+hblkhd)
        165294 MiB available memory on the node where the printing process lives
------------------
     ethr =  5.77E-09,  avg # of iterations =  2.0

     total cpu time spent up to now is       15.1 secs

     total energy              =    -333.06540101 Ry
     estimated scf accuracy    <       0.00000121 Ry

     iteration # 32     ecut=    30.00 Ry     beta= 0.70
     Davidson diagonalization with overlap

---- Real-time Memory Report at c_bands before calling an iterative solver
           415 MiB given to the printing process from OS
             0 MiB allocation reported by mallinfo(arena+hblkhd)
        165294 MiB available memory on the node where the printing process lives
------------------
     ethr =  3.04E-09,  avg # of iterations =  1.0

     total cpu time spent up to now is       15.3 secs

     total energy              =    -333.06540096 Ry
     estimated scf accuracy    <       0.00000250 Ry

     iteration # 33     ecut=    30.00 Ry     beta= 0.70
     Davidson diagonalization with overlap

---- Real-time Memory Report at c_bands before calling an iterative solver
           415 MiB given to the printing process from OS
             0 MiB allocation reported by mallinfo(arena+hblkhd)
        165293 MiB available memory on the node where the printing process lives
------------------
     ethr =  3.04E-09,  avg # of iterations =  2.0

     total cpu time spent up to now is       15.6 secs

     total energy              =    -333.06540077 Ry
     estimated scf accuracy    <       0.00001059 Ry

     iteration # 34     ecut=    30.00 Ry     beta= 0.70
     Davidson diagonalization with overlap

---- Real-time Memory Report at c_bands before calling an iterative solver
           415 MiB given to the printing process from OS
             0 MiB allocation reported by mallinfo(arena+hblkhd)
        165294 MiB available memory on the node where the printing process lives
------------------
     ethr =  3.04E-09,  avg # of iterations =  3.0

     total cpu time spent up to now is       15.8 secs

     End of self-consistent calculation

          k = 0.0000 0.0000 0.0000 (   872 PWs)   bands (ev):

   -38.9446 -38.8582 -38.8579 -17.8225 -17.8225 -17.8224 -17.4700 -17.4697
   -17.4696 -17.4184 -17.4183 -17.4183  -1.0018   3.1095   8.1963   8.1963
     8.1964   9.2513   9.2513   9.8041   9.8041   9.8042  11.1248  11.1248

     occupation numbers 
     1.0000   1.0000   1.0000   1.0000   1.0000   1.0000   1.0000   1.0000
     1.0000   1.0000   1.0000   1.0000   1.0000   1.0000   1.0000   1.0000
     1.0000   1.0000   1.0000   0.3342   0.3333   0.3325  -0.0000  -0.0000

     the Fermi energy is     9.8014 ev

!    total energy              =    -333.06540090 Ry
     estimated scf accuracy    <       0.00000021 Ry
     smearing contrib. (-TS)   =      -0.00074672 Ry
     internal energy E=F+TS    =    -333.06465419 Ry

     The total energy is F=E-TS. E is the sum of the following terms:
     one-electron contribution =    -125.05633226 Ry
     hartree contribution      =      73.20404877 Ry
     xc contribution           =     -42.95560880 Ry
     ewald contribution        =    -197.46012043 Ry
     one-center paw contrib.   =     -40.79664147 Ry
      -> PAW hartree energy AE =       8.07496403 Ry
      -> PAW hartree energy PS =      -8.06402914 Ry
      -> PAW xc energy AE      =     -46.35936603 Ry
      -> PAW xc energy PS      =       5.55178968 Ry
      -> total E_H with PAW    =      73.21498365 Ry
      -> total E_XC with PAW   =     -83.76318515 Ry

     convergence has been achieved in  34 iterations

     Forces acting on atoms (cartesian axes, Ry/au):

     atom    1 type  1   force =     0.00000000    0.00000000    0.00000000
     atom    2 type  1   force =     0.00000000    0.00000000    0.00000000
     atom    3 type  1   force =     0.00000000    0.00000000    0.00000000
     atom    4 type  2   force =     0.00000000    0.00000000    0.00000000
     atom    5 type  3   force =     0.00000000    0.00000000    0.00000000
     The non-local contrib.  to forces
     atom    1 type  1   force =     0.00000000    0.00000000    0.00000000
     atom    2 type  1   force =     0.00000000    0.00000000    0.00000000
     atom    3 type  1   force =     0.00000000    0.00000000    0.00000000
     atom    4 type  2   force =     0.00000000    0.00000000    0.00000000
     atom    5 type  3   force =     0.00000000    0.00000000    0.00000000
     The ionic contribution  to forces
     atom    1 type  1   force =    -0.00000000    0.00000000    0.00000000
     atom    2 type  1   force =     0.00000000    0.00000000   -0.00000000
     atom    3 type  1   force =     0.00000000   -0.00000000    0.00000000
     atom    4 type  2   force =    -0.00000000   -0.00000000   -0.00000000
     atom    5 type  3   force =     0.00000000    0.00000000    0.00000000
     The local contribution  to forces
     atom    1 type  1   force =    -0.00015030    0.00003893    0.00003147
     atom    2 type  1   force =    -0.00003353    0.00000952   -0.00001127
     atom    3 type  1   force =    -0.00002410    0.00001099    0.00005307
     atom    4 type  2   force =    -0.00000140   -0.00000351   -0.00001122
     atom    5 type  3   force =     0.00006019   -0.00000270    0.00001108
     The core correction contribution to forces
     atom    1 type  1   force =     0.00000000    0.00000000    0.00000000
     atom    2 type  1   force =     0.00000000    0.00000000    0.00000000
     atom    3 type  1   force =     0.00000000    0.00000000    0.00000000
     atom    4 type  2   force =     0.00000021   -0.00000022   -0.00000058
     atom    5 type  3   force =    -0.00000001    0.00000008    0.00000013
     The Hubbard contrib.    to forces
     atom    1 type  1   force =     0.00000000    0.00000000    0.00000000
     atom    2 type  1   force =     0.00000000    0.00000000    0.00000000
     atom    3 type  1   force =     0.00000000    0.00000000    0.00000000
     atom    4 type  2   force =     0.00000000    0.00000000    0.00000000
     atom    5 type  3   force =     0.00000000    0.00000000    0.00000000
     The SCF correction term to forces
     atom    1 type  1   force =     0.00027193   -0.00004835   -0.00002647
     atom    2 type  1   force =     0.00002629   -0.00001918   -0.00003770
     atom    3 type  1   force =    -0.00002938   -0.00003222   -0.00004535
     atom    4 type  2   force =     0.00000403    0.00000168    0.00000495
     atom    5 type  3   force =    -0.00004955    0.00000349   -0.00000572

     Total force =     0.000000     Total SCF correction =     0.000293


     Computing stress (Cartesian axis) and pressure

          total   stress  (Ry/bohr**3)                   (kbar)     P=       36.46
   0.00024785   0.00000000   0.00000000           36.46        0.00        0.00
   0.00000000   0.00024785   0.00000000            0.00       36.46        0.00
   0.00000000   0.00000000   0.00024785            0.00        0.00       36.46

     kinetic stress (kbar)  16733.18      0.00      0.00
                                0.00  16733.18      0.00
                                0.00      0.00  16733.18

     local   stress (kbar)    659.30      0.07      0.03
                                0.07    659.82      0.09
                                0.03      0.09    657.55

     nonloc. stress (kbar)  -4435.16      0.00      0.00
                                0.00  -4435.16      0.00
                                0.00      0.00  -4435.16

     hartree stress (kbar)   5789.92     -0.05     -0.03
                               -0.05   5789.66     -0.06
                               -0.03     -0.06   5790.89

     exc-cor stress (kbar)  -2601.95     -0.00      0.00
                               -0.00  -2601.96     -0.00
                                0.00     -0.00  -2601.94

     corecor stress (kbar)   -490.33     -0.00     -0.00
                               -0.00   -490.33     -0.00
                               -0.00     -0.00   -490.33

     ewald   stress (kbar) -15618.33     -0.00     -0.00
                               -0.00 -15618.33     -0.00
                               -0.00     -0.00 -15618.33

     hubbard stress (kbar)      0.00      0.00      0.00
                                0.00      0.00      0.00
                                0.00      0.00      0.00

     DFT-D   stress (kbar)      0.00      0.00      0.00
                                0.00      0.00      0.00
                                0.00      0.00      0.00

     XDM     stress (kbar)      0.00      0.00      0.00
                                0.00      0.00      0.00
                                0.00      0.00      0.00

     dft-nl  stress (kbar)      0.00      0.00      0.00
                                0.00      0.00      0.00
                                0.00      0.00      0.00

     TS-vdW  stress (kbar)      0.00      0.00      0.00
                                0.00      0.00      0.00
                                0.00      0.00      0.00


                                0.00      0.00      0.00
                                0.00      0.00      0.00


                                0.00      0.00      0.00


     Writing all to output data dir new_calculations/myprefix.save/
 
     init_run     :     57.53s CPU      2.08s WALL (       1 calls)
     electrons    :    408.05s CPU     13.50s WALL (       1 calls)
     forces       :      1.29s CPU      0.04s WALL (       1 calls)
     stress       :      3.25s CPU      0.11s WALL (       1 calls)

     Called by init_run:
     wfcinit      :     14.89s CPU      0.49s WALL (       1 calls)
     wfcinit:atom :      0.01s CPU      0.00s WALL (       1 calls)
     wfcinit:wfcr :     14.79s CPU      0.48s WALL (       1 calls)
     potinit      :     15.18s CPU      0.50s WALL (       1 calls)
     hinit0       :     24.96s CPU      1.01s WALL (       1 calls)

     Called by electrons:
     c_bands      :    201.96s CPU      6.64s WALL (      34 calls)
     sum_band     :     82.05s CPU      2.71s WALL (      34 calls)
     v_of_rho     :     10.61s CPU      0.35s WALL (      35 calls)
     v_h          :      1.08s CPU      0.04s WALL (      35 calls)
     v_xc         :      9.88s CPU      0.33s WALL (      37 calls)
     newd         :     31.53s CPU      1.05s WALL (      35 calls)
     PAW_pot      :     77.52s CPU      2.60s WALL (      35 calls)
     mix_rho      :      3.83s CPU      0.13s WALL (      34 calls)

     Called by c_bands:
     init_us_2    :      0.70s CPU      0.02s WALL (      69 calls)
     init_us_2:cp :      0.60s CPU      0.02s WALL (      69 calls)
     regterg      :    199.39s CPU      6.56s WALL (      34 calls)

     Called by sum_band:
     sum_band:wei :      0.11s CPU      0.00s WALL (      34 calls)
     sum_band:loo :     45.47s CPU      1.50s WALL (      34 calls)
     sum_band:buf :      0.02s CPU      0.00s WALL (      34 calls)
     sum_band:ini :      0.38s CPU      0.01s WALL (      34 calls)
     sum_band:cal :      1.15s CPU      0.04s WALL (      34 calls)
     sum_band:bec :      0.08s CPU      0.00s WALL (      34 calls)
     addusdens    :     34.31s CPU      1.14s WALL (      34 calls)
     addusd:skk   :      0.15s CPU      0.00s WALL (      68 calls)
     addusd:dgemm :      7.39s CPU      0.26s WALL (      68 calls)
     addusd:qvan2 :     25.29s CPU      0.82s WALL (      68 calls)

     Called by *egterg:
     rdiaghg      :      2.30s CPU      0.08s WALL (      99 calls)
     regterg:over :      3.09s CPU      0.11s WALL (      65 calls)
     regterg:upda :      0.35s CPU      0.01s WALL (      65 calls)
     regterg:last :      0.50s CPU      0.02s WALL (      53 calls)
     h_psi        :    203.72s CPU      6.68s WALL (     100 calls)
     s_psi        :      0.16s CPU      0.00s WALL (     100 calls)
     g_psi        :      0.10s CPU      0.00s WALL (      65 calls)

     Called by h_psi:
     h_psi:calbec :      2.09s CPU      0.07s WALL (     100 calls)
     vloc_psi     :    200.77s CPU      6.59s WALL (     100 calls)
     add_vuspsi   :      0.30s CPU      0.01s WALL (     100 calls)

     General routines
     calbec       :      3.08s CPU      0.10s WALL (     139 calls)
     fft          :     17.53s CPU      0.58s WALL (     403 calls)
     ffts         :     12.66s CPU      0.41s WALL (      69 calls)
     fftw         :    236.44s CPU      7.76s WALL (    2218 calls)
     interpolate  :     13.62s CPU      0.45s WALL (      35 calls)
 
     Parallel routines

     PAW routines
     PAW_pot      :     77.52s CPU      2.60s WALL (      35 calls)
     PAW_symme    :      0.94s CPU      0.03s WALL (      69 calls)
 
     PWSCF        :   7m55.65s CPU     16.12s WALL

 
   This run was terminated on:   3:21:30  20May2023            

=------------------------------------------------------------------------------=
   JOB DONE.
=------------------------------------------------------------------------------=
