
     Program PWSCF v.7.0 starts on 21May2023 at  9:25: 6 

     This program is part of the open-source Quantum ESPRESSO suite
     for quantum simulation of materials; please cite
         "P. Giannozzi et al., J. Phys.:Condens. Matter 21 395502 (2009);
         "P. Giannozzi et al., J. Phys.:Condens. Matter 29 465901 (2017);
         "P. Giannozzi et al., J. Chem. Phys. 152 154105 (2020);
          URL http://www.quantum-espresso.org", 
     in publications or presentations arising from this work. More details at
     http://www.quantum-espresso.org/quote

     Parallel version (MPI & OpenMP), running on      32 processor cores
     Number of MPI processes:                 1
     Threads/MPI process:                    32

     MPI processes distributed on     1 nodes
     78302 MiB available memory on the printing compute node when the environment starts
 
     Reading input from espresso_21789.pwi
Warning: card &CELL ignored
Warning: card / ignored

     Current dimensions of program PWSCF are:
     Max number of different atomic species (ntypx) = 10
     Max number of k-points (npk) =  40000
     Max angular momentum in pseudopotentials (lmaxx) =  4
     file O.pbe-n-kjpaw_psl.0.1.UPF: wavefunction(s)  2P renormalized

     gamma-point specific algorithms are used
     Message from routine setup:
     using ibrav=0 with symmetry is DISCOURAGED, use correct ibrav instead

     Subspace diagonalization in iterative solution of the eigenvalue problem:
     a serial algorithm will be used

 
     G-vector sticks info
     --------------------
     sticks:   dense  smooth     PW     G-vecs:    dense   smooth      PW
     Sum        2617    1313    333                71465    25265    3159
 
     Using Slab Decomposition
 


     bravais-lattice index     =            0
     lattice parameter (alat)  =      11.7243  a.u.
     unit-cell volume          =    1137.5678 (a.u.)^3
     number of atoms/cell      =           14
     number of atomic types    =            3
     number of electrons       =       144.00
     number of Kohn-Sham states=           86
     kinetic-energy cutoff     =      30.0000  Ry
     charge density cutoff     =     240.0000  Ry
     scf convergence threshold =      1.0E-06
     mixing beta               =       0.7000
     number of iterations used =            8  plain     mixing
     Exchange-correlation= SLA  PW   PBX  PBC
                           (   1   4   3   4   0   0   0)

     celldm(1)=  11.724269  celldm(2)=   0.000000  celldm(3)=   0.000000
     celldm(4)=   0.000000  celldm(5)=   0.000000  celldm(6)=   0.000000

     crystal axes: (cart. coord. in units of alat)
               a(1) = (   1.000000   0.000000   0.000000 )  
               a(2) = (   0.002278   0.999997   0.000000 )  
               a(3) = (  -0.483602  -0.517576   0.705864 )  

     reciprocal axes: (cart. coord. in units 2 pi/alat)
               b(1) = (  1.000000 -0.002278  0.683449 )  
               b(2) = (  0.000000  1.000003  0.733254 )  
               b(3) = (  0.000000  0.000000  1.416703 )  


     PseudoPot. # 1 for Co read from file:
     /home/pragov/projects/rrg-bengioy-ad/pragov/crystal_structure_design/SSSP/Co_pbe_v1.2.uspp.F.UPF
     MD5 check sum: 5f91765df6ddd3222702df6e7b74a16d
     Pseudo is Ultrasoft + core correction, Zval = 17.0
     Generated by new atomic code, or converted to UPF format
     Using radial grid of  863 points,  6 beta functions with: 
                l(1) =   0
                l(2) =   0
                l(3) =   1
                l(4) =   1
                l(5) =   2
                l(6) =   2
     Q(r) pseudized with  8 coefficients,  rinner =    1.200   1.200   1.200
                                                       1.200   1.200

     PseudoPot. # 2 for Sn read from file:
     /home/pragov/projects/rrg-bengioy-ad/pragov/crystal_structure_design/SSSP/Sn_pbe_v1.uspp.F.UPF
     MD5 check sum: 4cf58ce39ec5d5d420df3dd08604eb00
     Pseudo is Ultrasoft + core correction, Zval = 14.0
     Generated by new atomic code, or converted to UPF format
     Using radial grid of  891 points,  6 beta functions with: 
                l(1) =   0
                l(2) =   0
                l(3) =   1
                l(4) =   1
                l(5) =   2
                l(6) =   2
     Q(r) pseudized with  6 coefficients,  rinner =    1.200   1.200   1.200
                                                       1.200   1.200

     PseudoPot. # 3 for O  read from file:
     /home/pragov/projects/rrg-bengioy-ad/pragov/crystal_structure_design/SSSP/O.pbe-n-kjpaw_psl.0.1.UPF
     MD5 check sum: 0234752ac141de4415c5fc33072bef88
     Pseudo is Projector augmented-wave + core cor, Zval =  6.0
     Generated using "atomic" code by A. Dal Corso  v.5.0.99 svn rev. 10869
     Shape of augmentation charge: BESSEL
     Using radial grid of 1095 points,  4 beta functions with: 
                l(1) =   0
                l(2) =   0
                l(3) =   1
                l(4) =   1
     Q(r) pseudized with 0 coefficients 


     atomic species   valence    mass     pseudopotential
        Co            17.00    58.93319     Co( 1.00)
        Sn            14.00   118.71000     Sn( 1.00)
        O              6.00    15.99900     O ( 1.00)

      2 Sym. Ops., with inversion, found


                                    s                        frac. trans.

      isym =  1     identity                                     

 cryst.   s( 1) = (     1          0          0      )
                  (     0          1          0      )
                  (     0          0          1      )

 cart.    s( 1) = (  1.0000000 -0.0000000  0.0000000 )
                  (  0.0000000  1.0000000 -0.0000000 )
                  (  0.0000000  0.0000000  1.0000000 )


      isym =  2     inversion                                    

 cryst.   s( 2) = (    -1          0          0      )
                  (     0         -1          0      )
                  (     0          0         -1      )

 cart.    s( 2) = ( -1.0000000  0.0000000 -0.0000000 )
                  (  0.0000000 -1.0000000  0.0000000 )
                  (  0.0000000  0.0000000 -1.0000000 )


   Cartesian axes

     site n.     atom                  positions (alat units)
         1           Co  tau(   1) = (  -0.0071308   0.7324097   0.1764660  )
         2           Co  tau(   2) = (   0.5258076  -0.2499886   0.5293981  )
         3           Co  tau(   3) = (   0.5000000   0.0000000   0.0000000  )
         4           Co  tau(   4) = (   0.2593384   0.2412106   0.3529321  )
         5           Sn  tau(   5) = (  -0.2406616   0.2412106   0.3529321  )
         6           Sn  tau(   6) = (   0.5011392   0.4999987   0.0000000  )
         7           O   tau(   7) = (   0.7407528   0.2563466   0.0118359  )
         8           O   tau(   8) = (   0.5162329   0.4813787   0.3410962  )
         9           O   tau(   9) = (   0.5141940   0.0153229   0.3401524  )
        10           O   tau(  10) = (   0.2746936   0.2553696   0.0127797  )
        11           O   tau(  11) = (   0.2439832   0.2270515   0.6930845  )
        12           O   tau(  12) = (   0.0044828   0.4670982   0.3657118  )
        13           O   tau(  13) = (   0.0024439   0.0010424   0.3647680  )
        14           O   tau(  14) = (  -0.2220760   0.2260745   0.6940282  )

   Crystallographic axes

     site n.     atom                  positions (cryst. coord.)
         1           Co  tau(   1) = (  0.1118060  0.8618060  0.2500000  )
         2           Co  tau(   2) = (  0.8881940  0.1381940  0.7500000  )
         3           Co  tau(   3) = (  0.5000000  0.0000000  0.0000000  )
         4           Co  tau(   4) = (  0.5000000  0.5000000  0.5000000  )
         5           Sn  tau(   5) = ( -0.0000000  0.5000000  0.5000000  )
         6           Sn  tau(   6) = (  0.5000000  0.5000000  0.0000000  )
         7           O   tau(   7) = (  0.7482580  0.2650260  0.0167680  )
         8           O   tau(   8) = (  0.7482580  0.7314900  0.4832320  )
         9           O   tau(   9) = (  0.7466360  0.2647410  0.4818950  )
        10           O   tau(  10) = (  0.2828460  0.2647410  0.0181050  )
        11           O   tau(  11) = (  0.7171540  0.7352590  0.9818950  )
        12           O   tau(  12) = (  0.2533640  0.7352590  0.5181050  )
        13           O   tau(  13) = (  0.2517420  0.2685100  0.5167680  )
        14           O   tau(  14) = (  0.2517420  0.7349740  0.9832320  )

     number of k points=     1  Methfessel-Paxton smearing, width (Ry)=  0.0010
                       cart. coord. in units 2pi/alat
        k(    1) = (   0.0000000   0.0000000   0.0000000), wk =   2.0000000

                       cryst. coord.
        k(    1) = (   0.0000000   0.0000000   0.0000000), wk =   2.0000000

     Dense  grid:    35733 G-vectors     FFT dimensions: (  60,  60,  60)

     Smooth grid:    12633 G-vectors     FFT dimensions: (  45,  45,  45)

     Dynamical RAM for                 wfc:       2.07 MB

     Dynamical RAM for     wfc (w. buffer):       2.07 MB

     Dynamical RAM for           str. fact:       1.64 MB

     Dynamical RAM for           local pot:       0.00 MB

     Dynamical RAM for          nlocal pot:       4.14 MB

     Dynamical RAM for                qrad:       3.73 MB

     Dynamical RAM for          rho,v,vnew:       6.58 MB

     Dynamical RAM for               rhoin:       2.19 MB

     Dynamical RAM for            rho*nmix:       8.72 MB

     Dynamical RAM for           G-vectors:       2.14 MB

     Dynamical RAM for          h,s,v(r/c):       0.68 MB

     Dynamical RAM for          <psi|beta>:       0.11 MB

     Dynamical RAM for                 psi:       4.14 MB

     Dynamical RAM for                hpsi:       4.14 MB

     Dynamical RAM for                spsi:       4.14 MB

     Dynamical RAM for      wfcinit/wfcrot:       5.15 MB

     Dynamical RAM for           addusdens:     105.78 MB

     Dynamical RAM for          addusforce:     113.71 MB

     Dynamical RAM for         addusstress:     109.59 MB

     Estimated static dynamical RAM per process >      32.91 MB

     Estimated max dynamical RAM per process >     155.35 MB

     Check: negative core charge=   -0.000019

     Initial potential from superposition of free atoms

     starting charge     137.9999, renormalised to     144.0000
     Starting wfcs are  102 randomized atomic wfcs
     Checking if some PAW data can be deallocated... 

     total cpu time spent up to now is        5.4 secs

     Self-consistent Calculation

     iteration #  1     ecut=    30.00 Ry     beta= 0.70
     Davidson diagonalization with overlap

---- Real-time Memory Report at c_bands before calling an iterative solver
           561 MiB given to the printing process from OS
             0 MiB allocation reported by mallinfo(arena+hblkhd)
         78008 MiB available memory on the node where the printing process lives
------------------
     ethr =  1.00E-02,  avg # of iterations =  3.0

     total cpu time spent up to now is        6.6 secs

     total energy              =   -1798.38686289 Ry
     estimated scf accuracy    <      70.43473090 Ry

     iteration #  2     ecut=    30.00 Ry     beta= 0.70
     Davidson diagonalization with overlap

---- Real-time Memory Report at c_bands before calling an iterative solver
           589 MiB given to the printing process from OS
             0 MiB allocation reported by mallinfo(arena+hblkhd)
         77990 MiB available memory on the node where the printing process lives
------------------
     ethr =  1.00E-02,  avg # of iterations =  3.0

     total cpu time spent up to now is        8.0 secs

     total energy              =   -1834.70148925 Ry
     estimated scf accuracy    <     324.27020887 Ry

     iteration #  3     ecut=    30.00 Ry     beta= 0.70
     Davidson diagonalization with overlap

---- Real-time Memory Report at c_bands before calling an iterative solver
           602 MiB given to the printing process from OS
             0 MiB allocation reported by mallinfo(arena+hblkhd)
         77974 MiB available memory on the node where the printing process lives
------------------
     ethr =  1.00E-02,  avg # of iterations =  4.0

     total cpu time spent up to now is        9.4 secs

     total energy              =   -1853.65524947 Ry
     estimated scf accuracy    <      63.00611820 Ry

     iteration #  4     ecut=    30.00 Ry     beta= 0.70
     Davidson diagonalization with overlap

---- Real-time Memory Report at c_bands before calling an iterative solver
           602 MiB given to the printing process from OS
             0 MiB allocation reported by mallinfo(arena+hblkhd)
         77973 MiB available memory on the node where the printing process lives
------------------
     ethr =  1.00E-02,  avg # of iterations =  2.0

     total cpu time spent up to now is       10.4 secs

     total energy              =   -1851.31499081 Ry
     estimated scf accuracy    <      39.94184712 Ry

     iteration #  5     ecut=    30.00 Ry     beta= 0.70
     Davidson diagonalization with overlap

---- Real-time Memory Report at c_bands before calling an iterative solver
           603 MiB given to the printing process from OS
             0 MiB allocation reported by mallinfo(arena+hblkhd)
         77973 MiB available memory on the node where the printing process lives
------------------
     ethr =  1.00E-02,  avg # of iterations =  2.0

     total cpu time spent up to now is       11.5 secs

     total energy              =   -1853.13100363 Ry
     estimated scf accuracy    <       8.12549318 Ry

     iteration #  6     ecut=    30.00 Ry     beta= 0.70
     Davidson diagonalization with overlap

---- Real-time Memory Report at c_bands before calling an iterative solver
           603 MiB given to the printing process from OS
             0 MiB allocation reported by mallinfo(arena+hblkhd)
         77971 MiB available memory on the node where the printing process lives
------------------
     ethr =  5.64E-03,  avg # of iterations =  1.0

     total cpu time spent up to now is       12.4 secs

     total energy              =   -1852.86531574 Ry
     estimated scf accuracy    <       7.12315106 Ry

     iteration #  7     ecut=    30.00 Ry     beta= 0.70
     Davidson diagonalization with overlap

---- Real-time Memory Report at c_bands before calling an iterative solver
           603 MiB given to the printing process from OS
             0 MiB allocation reported by mallinfo(arena+hblkhd)
         77973 MiB available memory on the node where the printing process lives
------------------
     ethr =  4.95E-03,  avg # of iterations =  1.0

     total cpu time spent up to now is       13.4 secs

     total energy              =   -1852.62488699 Ry
     estimated scf accuracy    <      30.16611609 Ry

     iteration #  8     ecut=    30.00 Ry     beta= 0.70
     Davidson diagonalization with overlap

---- Real-time Memory Report at c_bands before calling an iterative solver
           603 MiB given to the printing process from OS
             0 MiB allocation reported by mallinfo(arena+hblkhd)
         77973 MiB available memory on the node where the printing process lives
------------------
     ethr =  4.95E-03,  avg # of iterations =  1.0

     total cpu time spent up to now is       14.4 secs

     total energy              =   -1852.60129448 Ry
     estimated scf accuracy    <       9.93176305 Ry

     iteration #  9     ecut=    30.00 Ry     beta= 0.70
     Davidson diagonalization with overlap

---- Real-time Memory Report at c_bands before calling an iterative solver
           603 MiB given to the printing process from OS
             0 MiB allocation reported by mallinfo(arena+hblkhd)
         77971 MiB available memory on the node where the printing process lives
------------------
     ethr =  4.95E-03,  avg # of iterations =  1.0

     total cpu time spent up to now is       15.4 secs

     total energy              =   -1852.56449388 Ry
     estimated scf accuracy    <       3.03957274 Ry

     iteration # 10     ecut=    30.00 Ry     beta= 0.70
     Davidson diagonalization with overlap

---- Real-time Memory Report at c_bands before calling an iterative solver
           603 MiB given to the printing process from OS
             0 MiB allocation reported by mallinfo(arena+hblkhd)
         77971 MiB available memory on the node where the printing process lives
------------------
     ethr =  2.11E-03,  avg # of iterations =  1.0

     total cpu time spent up to now is       16.4 secs

     total energy              =   -1852.20577748 Ry
     estimated scf accuracy    <       3.43152455 Ry

     iteration # 11     ecut=    30.00 Ry     beta= 0.70
     Davidson diagonalization with overlap

---- Real-time Memory Report at c_bands before calling an iterative solver
           603 MiB given to the printing process from OS
             0 MiB allocation reported by mallinfo(arena+hblkhd)
         77969 MiB available memory on the node where the printing process lives
------------------
     ethr =  2.11E-03,  avg # of iterations =  1.0

     total cpu time spent up to now is       17.4 secs

     total energy              =   -1852.16425304 Ry
     estimated scf accuracy    <      21.40748145 Ry

     iteration # 12     ecut=    30.00 Ry     beta= 0.70
     Davidson diagonalization with overlap

---- Real-time Memory Report at c_bands before calling an iterative solver
           603 MiB given to the printing process from OS
             0 MiB allocation reported by mallinfo(arena+hblkhd)
         77970 MiB available memory on the node where the printing process lives
------------------
     ethr =  2.11E-03,  avg # of iterations =  1.0

     total cpu time spent up to now is       18.4 secs

     total energy              =   -1852.47737119 Ry
     estimated scf accuracy    <       0.64816635 Ry

     iteration # 13     ecut=    30.00 Ry     beta= 0.70
     Davidson diagonalization with overlap

---- Real-time Memory Report at c_bands before calling an iterative solver
           603 MiB given to the printing process from OS
             0 MiB allocation reported by mallinfo(arena+hblkhd)
         78000 MiB available memory on the node where the printing process lives
------------------
     ethr =  4.50E-04,  avg # of iterations =  1.0

     total cpu time spent up to now is       19.3 secs

     total energy              =   -1852.52590007 Ry
     estimated scf accuracy    <       0.36191192 Ry

     iteration # 14     ecut=    30.00 Ry     beta= 0.70
     Davidson diagonalization with overlap

---- Real-time Memory Report at c_bands before calling an iterative solver
           603 MiB given to the printing process from OS
             0 MiB allocation reported by mallinfo(arena+hblkhd)
         77995 MiB available memory on the node where the printing process lives
------------------
     ethr =  2.51E-04,  avg # of iterations =  1.0

     total cpu time spent up to now is       20.3 secs

     total energy              =   -1852.51538588 Ry
     estimated scf accuracy    <       0.37666022 Ry

     iteration # 15     ecut=    30.00 Ry     beta= 0.70
     Davidson diagonalization with overlap

---- Real-time Memory Report at c_bands before calling an iterative solver
           603 MiB given to the printing process from OS
             0 MiB allocation reported by mallinfo(arena+hblkhd)
         77996 MiB available memory on the node where the printing process lives
------------------
     ethr =  2.51E-04,  avg # of iterations =  1.0

     total cpu time spent up to now is       21.3 secs

     total energy              =   -1852.51320634 Ry
     estimated scf accuracy    <       0.17714549 Ry

     iteration # 16     ecut=    30.00 Ry     beta= 0.70
     Davidson diagonalization with overlap

---- Real-time Memory Report at c_bands before calling an iterative solver
           603 MiB given to the printing process from OS
             0 MiB allocation reported by mallinfo(arena+hblkhd)
         77995 MiB available memory on the node where the printing process lives
------------------
     ethr =  1.23E-04,  avg # of iterations =  1.0

     total cpu time spent up to now is       22.3 secs

     total energy              =   -1852.50594787 Ry
     estimated scf accuracy    <       0.20176457 Ry

     iteration # 17     ecut=    30.00 Ry     beta= 0.70
     Davidson diagonalization with overlap

---- Real-time Memory Report at c_bands before calling an iterative solver
           603 MiB given to the printing process from OS
             0 MiB allocation reported by mallinfo(arena+hblkhd)
         77994 MiB available memory on the node where the printing process lives
------------------
     ethr =  1.23E-04,  avg # of iterations =  1.0

     total cpu time spent up to now is       23.3 secs

     total energy              =   -1852.45711307 Ry
     estimated scf accuracy    <       3.60397326 Ry

     iteration # 18     ecut=    30.00 Ry     beta= 0.70
     Davidson diagonalization with overlap

---- Real-time Memory Report at c_bands before calling an iterative solver
           603 MiB given to the printing process from OS
             0 MiB allocation reported by mallinfo(arena+hblkhd)
         77997 MiB available memory on the node where the printing process lives
------------------
     ethr =  1.23E-04,  avg # of iterations =  2.0

     total cpu time spent up to now is       24.3 secs

     total energy              =   -1852.44959334 Ry
     estimated scf accuracy    <       4.97411107 Ry

     iteration # 19     ecut=    30.00 Ry     beta= 0.70
     Davidson diagonalization with overlap

---- Real-time Memory Report at c_bands before calling an iterative solver
           603 MiB given to the printing process from OS
             0 MiB allocation reported by mallinfo(arena+hblkhd)
         77997 MiB available memory on the node where the printing process lives
------------------
     ethr =  1.23E-04,  avg # of iterations =  2.0

     total cpu time spent up to now is       25.3 secs

     total energy              =   -1852.48417882 Ry
     estimated scf accuracy    <       0.74724039 Ry

     iteration # 20     ecut=    30.00 Ry     beta= 0.70
     Davidson diagonalization with overlap

---- Real-time Memory Report at c_bands before calling an iterative solver
           603 MiB given to the printing process from OS
             0 MiB allocation reported by mallinfo(arena+hblkhd)
         77997 MiB available memory on the node where the printing process lives
------------------
     ethr =  1.23E-04,  avg # of iterations =  1.0

     total cpu time spent up to now is       26.3 secs

     total energy              =   -1852.50640467 Ry
     estimated scf accuracy    <       0.09453802 Ry

     iteration # 21     ecut=    30.00 Ry     beta= 0.70
     Davidson diagonalization with overlap

---- Real-time Memory Report at c_bands before calling an iterative solver
           603 MiB given to the printing process from OS
             0 MiB allocation reported by mallinfo(arena+hblkhd)
         77998 MiB available memory on the node where the printing process lives
------------------
     ethr =  6.57E-05,  avg # of iterations =  2.0

     total cpu time spent up to now is       27.3 secs

     total energy              =   -1852.02426189 Ry
     estimated scf accuracy    <      29.59934215 Ry

     iteration # 22     ecut=    30.00 Ry     beta= 0.70
     Davidson diagonalization with overlap

---- Real-time Memory Report at c_bands before calling an iterative solver
           603 MiB given to the printing process from OS
             0 MiB allocation reported by mallinfo(arena+hblkhd)
         77998 MiB available memory on the node where the printing process lives
------------------
     ethr =  6.57E-05,  avg # of iterations =  2.0

     total cpu time spent up to now is       28.4 secs

     total energy              =   -1852.51450754 Ry
     estimated scf accuracy    <       0.30250402 Ry

     iteration # 23     ecut=    30.00 Ry     beta= 0.70
     Davidson diagonalization with overlap

---- Real-time Memory Report at c_bands before calling an iterative solver
           603 MiB given to the printing process from OS
             0 MiB allocation reported by mallinfo(arena+hblkhd)
         77999 MiB available memory on the node where the printing process lives
------------------
     ethr =  6.57E-05,  avg # of iterations =  1.0

     total cpu time spent up to now is       29.4 secs

     total energy              =   -1852.51471518 Ry
     estimated scf accuracy    <       0.10235326 Ry

     iteration # 24     ecut=    30.00 Ry     beta= 0.70
     Davidson diagonalization with overlap

---- Real-time Memory Report at c_bands before calling an iterative solver
           604 MiB given to the printing process from OS
             0 MiB allocation reported by mallinfo(arena+hblkhd)
         78000 MiB available memory on the node where the printing process lives
------------------
     ethr =  6.57E-05,  avg # of iterations =  1.0

     total cpu time spent up to now is       30.3 secs

     total energy              =   -1852.51613743 Ry
     estimated scf accuracy    <       0.04328283 Ry

     iteration # 25     ecut=    30.00 Ry     beta= 0.70
     Davidson diagonalization with overlap

---- Real-time Memory Report at c_bands before calling an iterative solver
           604 MiB given to the printing process from OS
             0 MiB allocation reported by mallinfo(arena+hblkhd)
         77999 MiB available memory on the node where the printing process lives
------------------
     ethr =  3.01E-05,  avg # of iterations =  1.0

     total cpu time spent up to now is       31.3 secs

     total energy              =   -1852.51509204 Ry
     estimated scf accuracy    <       0.06735668 Ry

     iteration # 26     ecut=    30.00 Ry     beta= 0.70
     Davidson diagonalization with overlap

---- Real-time Memory Report at c_bands before calling an iterative solver
           604 MiB given to the printing process from OS
             0 MiB allocation reported by mallinfo(arena+hblkhd)
         78000 MiB available memory on the node where the printing process lives
------------------
     ethr =  3.01E-05,  avg # of iterations =  1.0

     total cpu time spent up to now is       32.3 secs

     total energy              =   -1852.51610351 Ry
     estimated scf accuracy    <       0.02397678 Ry

     iteration # 27     ecut=    30.00 Ry     beta= 0.70
     Davidson diagonalization with overlap

---- Real-time Memory Report at c_bands before calling an iterative solver
           604 MiB given to the printing process from OS
             0 MiB allocation reported by mallinfo(arena+hblkhd)
         77999 MiB available memory on the node where the printing process lives
------------------
     ethr =  1.67E-05,  avg # of iterations =  1.0

     total cpu time spent up to now is       33.3 secs

     total energy              =   -1852.51616231 Ry
     estimated scf accuracy    <       0.02837504 Ry

     iteration # 28     ecut=    30.00 Ry     beta= 0.70
     Davidson diagonalization with overlap

---- Real-time Memory Report at c_bands before calling an iterative solver
           604 MiB given to the printing process from OS
             0 MiB allocation reported by mallinfo(arena+hblkhd)
         77999 MiB available memory on the node where the printing process lives
------------------
     ethr =  1.67E-05,  avg # of iterations =  1.0

     total cpu time spent up to now is       34.3 secs

     total energy              =   -1852.51471930 Ry
     estimated scf accuracy    <       0.13995182 Ry

     iteration # 29     ecut=    30.00 Ry     beta= 0.70
     Davidson diagonalization with overlap

---- Real-time Memory Report at c_bands before calling an iterative solver
           604 MiB given to the printing process from OS
             0 MiB allocation reported by mallinfo(arena+hblkhd)
         77999 MiB available memory on the node where the printing process lives
------------------
     ethr =  1.67E-05,  avg # of iterations =  1.0

     total cpu time spent up to now is       35.3 secs

     total energy              =   -1852.51255896 Ry
     estimated scf accuracy    <       0.18406864 Ry

     iteration # 30     ecut=    30.00 Ry     beta= 0.70
     Davidson diagonalization with overlap

---- Real-time Memory Report at c_bands before calling an iterative solver
           604 MiB given to the printing process from OS
             0 MiB allocation reported by mallinfo(arena+hblkhd)
         77998 MiB available memory on the node where the printing process lives
------------------
     ethr =  1.67E-05,  avg # of iterations =  1.0

     total cpu time spent up to now is       36.2 secs

     total energy              =   -1852.51012128 Ry
     estimated scf accuracy    <       0.04880139 Ry

     iteration # 31     ecut=    30.00 Ry     beta= 0.70
     Davidson diagonalization with overlap

---- Real-time Memory Report at c_bands before calling an iterative solver
           604 MiB given to the printing process from OS
             0 MiB allocation reported by mallinfo(arena+hblkhd)
         78000 MiB available memory on the node where the printing process lives
------------------
     ethr =  1.67E-05,  avg # of iterations =  3.0

     total cpu time spent up to now is       38.2 secs

     total energy              =   -1852.45739708 Ry
     estimated scf accuracy    <       1.93541862 Ry

     iteration # 32     ecut=    30.00 Ry     beta= 0.70
     Davidson diagonalization with overlap

---- Real-time Memory Report at c_bands before calling an iterative solver
           604 MiB given to the printing process from OS
             0 MiB allocation reported by mallinfo(arena+hblkhd)
         78000 MiB available memory on the node where the printing process lives
------------------
     ethr =  1.67E-05,  avg # of iterations =  2.0

     total cpu time spent up to now is       42.1 secs

     total energy              =   -1852.51266301 Ry
     estimated scf accuracy    <       0.58466320 Ry

     iteration # 33     ecut=    30.00 Ry     beta= 0.70
     Davidson diagonalization with overlap

---- Real-time Memory Report at c_bands before calling an iterative solver
           604 MiB given to the printing process from OS
             0 MiB allocation reported by mallinfo(arena+hblkhd)
         78001 MiB available memory on the node where the printing process lives
------------------
     ethr =  1.67E-05,  avg # of iterations =  1.0

     total cpu time spent up to now is       43.1 secs

     total energy              =   -1852.51561486 Ry
     estimated scf accuracy    <       0.02785589 Ry

     iteration # 34     ecut=    30.00 Ry     beta= 0.70
     Davidson diagonalization with overlap

---- Real-time Memory Report at c_bands before calling an iterative solver
           604 MiB given to the printing process from OS
             0 MiB allocation reported by mallinfo(arena+hblkhd)
         78001 MiB available memory on the node where the printing process lives
------------------
     ethr =  1.67E-05,  avg # of iterations =  1.0

     total cpu time spent up to now is       44.1 secs

     total energy              =   -1852.51531187 Ry
     estimated scf accuracy    <       0.01635207 Ry

     iteration # 35     ecut=    30.00 Ry     beta= 0.70
     Davidson diagonalization with overlap

---- Real-time Memory Report at c_bands before calling an iterative solver
           604 MiB given to the printing process from OS
             0 MiB allocation reported by mallinfo(arena+hblkhd)
         78002 MiB available memory on the node where the printing process lives
------------------
     ethr =  1.14E-05,  avg # of iterations =  1.0

     total cpu time spent up to now is       45.1 secs

     total energy              =   -1852.51492100 Ry
     estimated scf accuracy    <       0.05387906 Ry

     iteration # 36     ecut=    30.00 Ry     beta= 0.70
     Davidson diagonalization with overlap

---- Real-time Memory Report at c_bands before calling an iterative solver
           604 MiB given to the printing process from OS
             0 MiB allocation reported by mallinfo(arena+hblkhd)
         78002 MiB available memory on the node where the printing process lives
------------------
     ethr =  1.14E-05,  avg # of iterations =  1.0

     total cpu time spent up to now is       46.1 secs

     total energy              =   -1852.51490957 Ry
     estimated scf accuracy    <       0.03275091 Ry

     iteration # 37     ecut=    30.00 Ry     beta= 0.70
     Davidson diagonalization with overlap

---- Real-time Memory Report at c_bands before calling an iterative solver
           604 MiB given to the printing process from OS
             0 MiB allocation reported by mallinfo(arena+hblkhd)
         78002 MiB available memory on the node where the printing process lives
------------------
     ethr =  1.14E-05,  avg # of iterations =  1.0

     total cpu time spent up to now is       47.1 secs

     total energy              =   -1852.50970172 Ry
     estimated scf accuracy    <       0.50090370 Ry

     iteration # 38     ecut=    30.00 Ry     beta= 0.70
     Davidson diagonalization with overlap

---- Real-time Memory Report at c_bands before calling an iterative solver
           604 MiB given to the printing process from OS
             0 MiB allocation reported by mallinfo(arena+hblkhd)
         77999 MiB available memory on the node where the printing process lives
------------------
     ethr =  1.14E-05,  avg # of iterations =  1.0

     total cpu time spent up to now is       48.0 secs

     total energy              =   -1852.51346625 Ry
     estimated scf accuracy    <       0.16477820 Ry

     iteration # 39     ecut=    30.00 Ry     beta= 0.70
     Davidson diagonalization with overlap

---- Real-time Memory Report at c_bands before calling an iterative solver
           605 MiB given to the printing process from OS
             0 MiB allocation reported by mallinfo(arena+hblkhd)
         78001 MiB available memory on the node where the printing process lives
------------------
     ethr =  1.14E-05,  avg # of iterations =  2.0

     total cpu time spent up to now is       49.0 secs

     total energy              =   -1852.51406681 Ry
     estimated scf accuracy    <       0.15590503 Ry

     iteration # 40     ecut=    30.00 Ry     beta= 0.70
     Davidson diagonalization with overlap

---- Real-time Memory Report at c_bands before calling an iterative solver
           605 MiB given to the printing process from OS
             0 MiB allocation reported by mallinfo(arena+hblkhd)
         77980 MiB available memory on the node where the printing process lives
------------------
     ethr =  1.14E-05,  avg # of iterations =  1.0

     total cpu time spent up to now is       50.0 secs

     total energy              =   -1852.51306906 Ry
     estimated scf accuracy    <       0.12654075 Ry

     iteration # 41     ecut=    30.00 Ry     beta= 0.70
     Davidson diagonalization with overlap

---- Real-time Memory Report at c_bands before calling an iterative solver
           605 MiB given to the printing process from OS
             0 MiB allocation reported by mallinfo(arena+hblkhd)
         77980 MiB available memory on the node where the printing process lives
------------------
     ethr =  1.14E-05,  avg # of iterations =  2.0

     total cpu time spent up to now is       51.0 secs

     total energy              =   -1852.51459745 Ry
     estimated scf accuracy    <       0.05363528 Ry

     iteration # 42     ecut=    30.00 Ry     beta= 0.70
     Davidson diagonalization with overlap

---- Real-time Memory Report at c_bands before calling an iterative solver
           605 MiB given to the printing process from OS
             0 MiB allocation reported by mallinfo(arena+hblkhd)
         77979 MiB available memory on the node where the printing process lives
------------------
     ethr =  1.14E-05,  avg # of iterations =  2.0

     total cpu time spent up to now is       52.1 secs

     total energy              =   -1852.51003207 Ry
     estimated scf accuracy    <       0.93500456 Ry

     iteration # 43     ecut=    30.00 Ry     beta= 0.70
     Davidson diagonalization with overlap

---- Real-time Memory Report at c_bands before calling an iterative solver
           605 MiB given to the printing process from OS
             0 MiB allocation reported by mallinfo(arena+hblkhd)
         77977 MiB available memory on the node where the printing process lives
------------------
     ethr =  1.14E-05,  avg # of iterations =  2.0

     total cpu time spent up to now is       53.1 secs

     total energy              =   -1852.51352262 Ry
     estimated scf accuracy    <       0.10850198 Ry

     iteration # 44     ecut=    30.00 Ry     beta= 0.70
     Davidson diagonalization with overlap

---- Real-time Memory Report at c_bands before calling an iterative solver
           605 MiB given to the printing process from OS
             0 MiB allocation reported by mallinfo(arena+hblkhd)
         77976 MiB available memory on the node where the printing process lives
------------------
     ethr =  1.14E-05,  avg # of iterations =  2.0

     total cpu time spent up to now is       54.1 secs

     WARNING: integrated charge=   143.99972624, expected=   144.00000000

     total energy              =   -1852.51659674 Ry
     estimated scf accuracy    <       0.13433385 Ry

     iteration # 45     ecut=    30.00 Ry     beta= 0.70
     Davidson diagonalization with overlap

---- Real-time Memory Report at c_bands before calling an iterative solver
           605 MiB given to the printing process from OS
             0 MiB allocation reported by mallinfo(arena+hblkhd)
         77977 MiB available memory on the node where the printing process lives
------------------
     ethr =  1.14E-05,  avg # of iterations =  1.0

     total cpu time spent up to now is       55.1 secs

     WARNING: integrated charge=   143.99965276, expected=   144.00000000

     total energy              =   -1852.51326004 Ry
     estimated scf accuracy    <       0.12595727 Ry

     iteration # 46     ecut=    30.00 Ry     beta= 0.70
     Davidson diagonalization with overlap

---- Real-time Memory Report at c_bands before calling an iterative solver
           605 MiB given to the printing process from OS
             0 MiB allocation reported by mallinfo(arena+hblkhd)
         77978 MiB available memory on the node where the printing process lives
------------------
     ethr =  1.14E-05,  avg # of iterations =  1.0

     total cpu time spent up to now is       56.0 secs

     WARNING: integrated charge=   143.99963684, expected=   144.00000000

     total energy              =   -1852.51376928 Ry
     estimated scf accuracy    <       0.07753836 Ry

     iteration # 47     ecut=    30.00 Ry     beta= 0.70
     Davidson diagonalization with overlap

---- Real-time Memory Report at c_bands before calling an iterative solver
           605 MiB given to the printing process from OS
             0 MiB allocation reported by mallinfo(arena+hblkhd)
         77978 MiB available memory on the node where the printing process lives
------------------
     ethr =  1.14E-05,  avg # of iterations =  1.0

     total cpu time spent up to now is       57.0 secs

     WARNING: integrated charge=   143.99958825, expected=   144.00000000

     total energy              =   -1852.51336883 Ry
     estimated scf accuracy    <       0.15106193 Ry

     iteration # 48     ecut=    30.00 Ry     beta= 0.70
     Davidson diagonalization with overlap

---- Real-time Memory Report at c_bands before calling an iterative solver
           605 MiB given to the printing process from OS
             0 MiB allocation reported by mallinfo(arena+hblkhd)
         77979 MiB available memory on the node where the printing process lives
------------------
     ethr =  1.14E-05,  avg # of iterations =  1.0

     total cpu time spent up to now is       58.0 secs

     WARNING: integrated charge=   143.99961813, expected=   144.00000000

     total energy              =   -1852.51286858 Ry
     estimated scf accuracy    <       0.25755432 Ry

     iteration # 49     ecut=    30.00 Ry     beta= 0.70
     Davidson diagonalization with overlap

---- Real-time Memory Report at c_bands before calling an iterative solver
           605 MiB given to the printing process from OS
             0 MiB allocation reported by mallinfo(arena+hblkhd)
         77979 MiB available memory on the node where the printing process lives
------------------
     ethr =  1.14E-05,  avg # of iterations =  1.0

     total cpu time spent up to now is       59.0 secs

     WARNING: integrated charge=   143.99957253, expected=   144.00000000

     total energy              =   -1852.51575884 Ry
     estimated scf accuracy    <       0.04241003 Ry

     iteration # 50     ecut=    30.00 Ry     beta= 0.70
     Davidson diagonalization with overlap

---- Real-time Memory Report at c_bands before calling an iterative solver
           605 MiB given to the printing process from OS
             0 MiB allocation reported by mallinfo(arena+hblkhd)
         77979 MiB available memory on the node where the printing process lives
------------------
     ethr =  1.14E-05,  avg # of iterations =  1.0
     Minimization algorithm failed to find Fermi energy: reverting to bisection
     Possible cause: smearing is larger than the electronic band-gap.

     total cpu time spent up to now is       60.0 secs

     WARNING: integrated charge=   143.99963990, expected=   144.00000000

     total energy              =   -1852.51100433 Ry
     estimated scf accuracy    <       0.21449997 Ry

     iteration # 51     ecut=    30.00 Ry     beta= 0.70
     Davidson diagonalization with overlap

---- Real-time Memory Report at c_bands before calling an iterative solver
           605 MiB given to the printing process from OS
             0 MiB allocation reported by mallinfo(arena+hblkhd)
         77979 MiB available memory on the node where the printing process lives
------------------
     ethr =  1.14E-05,  avg # of iterations =  2.0

     total cpu time spent up to now is       61.0 secs

     WARNING: integrated charge=   143.99966191, expected=   144.00000000

     total energy              =   -1852.51361281 Ry
     estimated scf accuracy    <       0.23122193 Ry

     iteration # 52     ecut=    30.00 Ry     beta= 0.70
     Davidson diagonalization with overlap

---- Real-time Memory Report at c_bands before calling an iterative solver
           605 MiB given to the printing process from OS
             0 MiB allocation reported by mallinfo(arena+hblkhd)
         77980 MiB available memory on the node where the printing process lives
------------------
     ethr =  1.14E-05,  avg # of iterations =  1.0

     total cpu time spent up to now is       61.9 secs

     WARNING: integrated charge=   143.99966577, expected=   144.00000000

     total energy              =   -1852.51404872 Ry
     estimated scf accuracy    <       0.12414362 Ry

     iteration # 53     ecut=    30.00 Ry     beta= 0.70
     Davidson diagonalization with overlap

---- Real-time Memory Report at c_bands before calling an iterative solver
           605 MiB given to the printing process from OS
             0 MiB allocation reported by mallinfo(arena+hblkhd)
         77981 MiB available memory on the node where the printing process lives
------------------
     ethr =  1.14E-05,  avg # of iterations =  2.0

     total cpu time spent up to now is       63.0 secs

     WARNING: integrated charge=   143.99989069, expected=   144.00000000

     total energy              =   -1852.51236806 Ry
     estimated scf accuracy    <       0.43529402 Ry

     iteration # 54     ecut=    30.00 Ry     beta= 0.70
     Davidson diagonalization with overlap

---- Real-time Memory Report at c_bands before calling an iterative solver
           605 MiB given to the printing process from OS
             0 MiB allocation reported by mallinfo(arena+hblkhd)
         77981 MiB available memory on the node where the printing process lives
------------------
     ethr =  1.14E-05,  avg # of iterations =  1.0
     Minimization algorithm failed to find Fermi energy: reverting to bisection
     Possible cause: smearing is larger than the electronic band-gap.

     total cpu time spent up to now is       63.9 secs

     WARNING: integrated charge=   143.99989356, expected=   144.00000000

     total energy              =   -1852.51354286 Ry
     estimated scf accuracy    <       0.13706584 Ry

     iteration # 55     ecut=    30.00 Ry     beta= 0.70
     Davidson diagonalization with overlap

---- Real-time Memory Report at c_bands before calling an iterative solver
           605 MiB given to the printing process from OS
             0 MiB allocation reported by mallinfo(arena+hblkhd)
         77982 MiB available memory on the node where the printing process lives
------------------
     ethr =  1.14E-05,  avg # of iterations =  1.0

     total cpu time spent up to now is       65.0 secs

     WARNING: integrated charge=   143.99990006, expected=   144.00000000

     total energy              =   -1852.51369620 Ry
     estimated scf accuracy    <       0.07207780 Ry

     iteration # 56     ecut=    30.00 Ry     beta= 0.70
     Davidson diagonalization with overlap

---- Real-time Memory Report at c_bands before calling an iterative solver
           605 MiB given to the printing process from OS
             0 MiB allocation reported by mallinfo(arena+hblkhd)
         77981 MiB available memory on the node where the printing process lives
------------------
     ethr =  1.14E-05,  avg # of iterations =  1.0

     total cpu time spent up to now is       65.9 secs

     WARNING: integrated charge=   143.99990470, expected=   144.00000000

     total energy              =   -1852.51297969 Ry
     estimated scf accuracy    <       0.09236245 Ry

     iteration # 57     ecut=    30.00 Ry     beta= 0.70
     Davidson diagonalization with overlap

---- Real-time Memory Report at c_bands before calling an iterative solver
           605 MiB given to the printing process from OS
             0 MiB allocation reported by mallinfo(arena+hblkhd)
         77981 MiB available memory on the node where the printing process lives
------------------
     ethr =  1.14E-05,  avg # of iterations =  2.0

     total cpu time spent up to now is       67.0 secs

     WARNING: integrated charge=   143.99991253, expected=   144.00000000

     total energy              =   -1852.51272103 Ry
     estimated scf accuracy    <       0.13750266 Ry

     iteration # 58     ecut=    30.00 Ry     beta= 0.70
     Davidson diagonalization with overlap

---- Real-time Memory Report at c_bands before calling an iterative solver
           605 MiB given to the printing process from OS
             0 MiB allocation reported by mallinfo(arena+hblkhd)
         77982 MiB available memory on the node where the printing process lives
------------------
     ethr =  1.14E-05,  avg # of iterations =  1.0

     total cpu time spent up to now is       67.9 secs

     WARNING: integrated charge=   143.99992870, expected=   144.00000000

     total energy              =   -1852.50227156 Ry
     estimated scf accuracy    <       0.11230358 Ry

     iteration # 59     ecut=    30.00 Ry     beta= 0.70
     Davidson diagonalization with overlap

---- Real-time Memory Report at c_bands before calling an iterative solver
           605 MiB given to the printing process from OS
             0 MiB allocation reported by mallinfo(arena+hblkhd)
         77982 MiB available memory on the node where the printing process lives
------------------
     ethr =  1.14E-05,  avg # of iterations =  3.0

     total cpu time spent up to now is       69.1 secs

     WARNING: integrated charge=   143.99993662, expected=   144.00000000

     total energy              =   -1852.46196331 Ry
     estimated scf accuracy    <       5.50270455 Ry

     iteration # 60     ecut=    30.00 Ry     beta= 0.70
     Davidson diagonalization with overlap

---- Real-time Memory Report at c_bands before calling an iterative solver
           605 MiB given to the printing process from OS
             0 MiB allocation reported by mallinfo(arena+hblkhd)
         77982 MiB available memory on the node where the printing process lives
------------------
     ethr =  1.14E-05,  avg # of iterations =  2.0

     total cpu time spent up to now is       70.1 secs

     WARNING: integrated charge=   143.99994694, expected=   144.00000000

     total energy              =   -1852.51497029 Ry
     estimated scf accuracy    <       0.36563141 Ry

     iteration # 61     ecut=    30.00 Ry     beta= 0.70
     Davidson diagonalization with overlap

---- Real-time Memory Report at c_bands before calling an iterative solver
           605 MiB given to the printing process from OS
             0 MiB allocation reported by mallinfo(arena+hblkhd)
         77983 MiB available memory on the node where the printing process lives
------------------
     ethr =  1.14E-05,  avg # of iterations =  1.0

     total cpu time spent up to now is       71.1 secs

     WARNING: integrated charge=   143.99996783, expected=   144.00000000

     total energy              =   -1852.51198587 Ry
     estimated scf accuracy    <       0.23209775 Ry

     iteration # 62     ecut=    30.00 Ry     beta= 0.70
     Davidson diagonalization with overlap

---- Real-time Memory Report at c_bands before calling an iterative solver
           605 MiB given to the printing process from OS
             0 MiB allocation reported by mallinfo(arena+hblkhd)
         77982 MiB available memory on the node where the printing process lives
------------------
     ethr =  1.14E-05,  avg # of iterations =  2.0

     total cpu time spent up to now is       72.1 secs

     WARNING: integrated charge=   143.99997463, expected=   144.00000000

     total energy              =   -1852.49492809 Ry
     estimated scf accuracy    <       0.70091045 Ry

     iteration # 63     ecut=    30.00 Ry     beta= 0.70
     Davidson diagonalization with overlap

---- Real-time Memory Report at c_bands before calling an iterative solver
           605 MiB given to the printing process from OS
             0 MiB allocation reported by mallinfo(arena+hblkhd)
         77983 MiB available memory on the node where the printing process lives
------------------
     ethr =  1.14E-05,  avg # of iterations =  2.0

     total cpu time spent up to now is       73.2 secs

     WARNING: integrated charge=   143.99997647, expected=   144.00000000

     total energy              =   -1852.49261364 Ry
     estimated scf accuracy    <       1.56109726 Ry

     iteration # 64     ecut=    30.00 Ry     beta= 0.70
     Davidson diagonalization with overlap

---- Real-time Memory Report at c_bands before calling an iterative solver
           605 MiB given to the printing process from OS
             0 MiB allocation reported by mallinfo(arena+hblkhd)
         77982 MiB available memory on the node where the printing process lives
------------------
     ethr =  1.14E-05,  avg # of iterations =  2.0

     total cpu time spent up to now is       74.3 secs

     WARNING: integrated charge=   143.99997939, expected=   144.00000000

     total energy              =   -1852.51177541 Ry
     estimated scf accuracy    <       0.17716052 Ry

     iteration # 65     ecut=    30.00 Ry     beta= 0.70
     Davidson diagonalization with overlap

---- Real-time Memory Report at c_bands before calling an iterative solver
           605 MiB given to the printing process from OS
             0 MiB allocation reported by mallinfo(arena+hblkhd)
         77983 MiB available memory on the node where the printing process lives
------------------
     ethr =  1.14E-05,  avg # of iterations =  2.0

     total cpu time spent up to now is       75.3 secs

     WARNING: integrated charge=   143.99998283, expected=   144.00000000

     total energy              =   -1852.51146813 Ry
     estimated scf accuracy    <       0.16402702 Ry

     iteration # 66     ecut=    30.00 Ry     beta= 0.70
     Davidson diagonalization with overlap

---- Real-time Memory Report at c_bands before calling an iterative solver
           605 MiB given to the printing process from OS
             0 MiB allocation reported by mallinfo(arena+hblkhd)
         77982 MiB available memory on the node where the printing process lives
------------------
     ethr =  1.14E-05,  avg # of iterations =  2.0

     total cpu time spent up to now is       76.3 secs

     WARNING: integrated charge=   143.99998558, expected=   144.00000000

     total energy              =   -1852.51289843 Ry
     estimated scf accuracy    <       0.10604255 Ry

     iteration # 67     ecut=    30.00 Ry     beta= 0.70
     Davidson diagonalization with overlap

---- Real-time Memory Report at c_bands before calling an iterative solver
           605 MiB given to the printing process from OS
             0 MiB allocation reported by mallinfo(arena+hblkhd)
         77982 MiB available memory on the node where the printing process lives
------------------
     ethr =  1.14E-05,  avg # of iterations =  1.0

     total cpu time spent up to now is       78.0 secs

     total energy              =   -1852.51257944 Ry
     estimated scf accuracy    <       0.14079092 Ry

     iteration # 68     ecut=    30.00 Ry     beta= 0.70
     Davidson diagonalization with overlap

---- Real-time Memory Report at c_bands before calling an iterative solver
           605 MiB given to the printing process from OS
             0 MiB allocation reported by mallinfo(arena+hblkhd)
         77971 MiB available memory on the node where the printing process lives
------------------
     ethr =  1.14E-05,  avg # of iterations =  2.0

     total cpu time spent up to now is       79.3 secs

     total energy              =   -1852.51239701 Ry
     estimated scf accuracy    <       0.19384609 Ry

     iteration # 69     ecut=    30.00 Ry     beta= 0.70
     Davidson diagonalization with overlap

---- Real-time Memory Report at c_bands before calling an iterative solver
           605 MiB given to the printing process from OS
             0 MiB allocation reported by mallinfo(arena+hblkhd)
         77973 MiB available memory on the node where the printing process lives
------------------
     ethr =  1.14E-05,  avg # of iterations =  1.0

     total cpu time spent up to now is       80.2 secs

     total energy              =   -1852.51383544 Ry
     estimated scf accuracy    <       0.05532104 Ry

     iteration # 70     ecut=    30.00 Ry     beta= 0.70
     Davidson diagonalization with overlap

---- Real-time Memory Report at c_bands before calling an iterative solver
           605 MiB given to the printing process from OS
             0 MiB allocation reported by mallinfo(arena+hblkhd)
         77974 MiB available memory on the node where the printing process lives
------------------
     ethr =  1.14E-05,  avg # of iterations =  1.0

     total cpu time spent up to now is       81.2 secs

     total energy              =   -1852.50952461 Ry
     estimated scf accuracy    <       0.85110810 Ry

     iteration # 71     ecut=    30.00 Ry     beta= 0.70
     Davidson diagonalization with overlap

---- Real-time Memory Report at c_bands before calling an iterative solver
           605 MiB given to the printing process from OS
             0 MiB allocation reported by mallinfo(arena+hblkhd)
         77973 MiB available memory on the node where the printing process lives
------------------
     ethr =  1.14E-05,  avg # of iterations =  2.0

     total cpu time spent up to now is       82.3 secs

     total energy              =   -1852.50568703 Ry
     estimated scf accuracy    <       0.82156999 Ry

     iteration # 72     ecut=    30.00 Ry     beta= 0.70
     Davidson diagonalization with overlap

---- Real-time Memory Report at c_bands before calling an iterative solver
           605 MiB given to the printing process from OS
             0 MiB allocation reported by mallinfo(arena+hblkhd)
         77974 MiB available memory on the node where the printing process lives
------------------
     ethr =  1.14E-05,  avg # of iterations =  2.0

     total cpu time spent up to now is       83.3 secs

     total energy              =   -1852.51277121 Ry
     estimated scf accuracy    <       0.21072941 Ry

     iteration # 73     ecut=    30.00 Ry     beta= 0.70
     Davidson diagonalization with overlap

---- Real-time Memory Report at c_bands before calling an iterative solver
           605 MiB given to the printing process from OS
             0 MiB allocation reported by mallinfo(arena+hblkhd)
         78031 MiB available memory on the node where the printing process lives
------------------
     ethr =  1.14E-05,  avg # of iterations =  2.0

     total cpu time spent up to now is       84.3 secs

     total energy              =   -1852.50312653 Ry
     estimated scf accuracy    <       1.03897832 Ry

     iteration # 74     ecut=    30.00 Ry     beta= 0.70
     Davidson diagonalization with overlap

---- Real-time Memory Report at c_bands before calling an iterative solver
           605 MiB given to the printing process from OS
             0 MiB allocation reported by mallinfo(arena+hblkhd)
         77998 MiB available memory on the node where the printing process lives
------------------
     ethr =  1.14E-05,  avg # of iterations =  2.0
     Minimization algorithm failed to find Fermi energy: reverting to bisection
     Possible cause: smearing is larger than the electronic band-gap.

     total cpu time spent up to now is       85.3 secs

     total energy              =   -1852.51259998 Ry
     estimated scf accuracy    <       0.14366909 Ry

     iteration # 75     ecut=    30.00 Ry     beta= 0.70
     Davidson diagonalization with overlap

---- Real-time Memory Report at c_bands before calling an iterative solver
           605 MiB given to the printing process from OS
             0 MiB allocation reported by mallinfo(arena+hblkhd)
         77998 MiB available memory on the node where the printing process lives
------------------
     ethr =  1.14E-05,  avg # of iterations =  1.0

     total cpu time spent up to now is       86.3 secs

     total energy              =   -1852.51495686 Ry
     estimated scf accuracy    <       0.02788111 Ry

     iteration # 76     ecut=    30.00 Ry     beta= 0.70
     Davidson diagonalization with overlap

---- Real-time Memory Report at c_bands before calling an iterative solver
           605 MiB given to the printing process from OS
             0 MiB allocation reported by mallinfo(arena+hblkhd)
         77999 MiB available memory on the node where the printing process lives
------------------
     ethr =  1.14E-05,  avg # of iterations =  1.0

     total cpu time spent up to now is       87.2 secs

     total energy              =   -1852.51184662 Ry
     estimated scf accuracy    <       0.15945403 Ry

     iteration # 77     ecut=    30.00 Ry     beta= 0.70
     Davidson diagonalization with overlap

---- Real-time Memory Report at c_bands before calling an iterative solver
           605 MiB given to the printing process from OS
             0 MiB allocation reported by mallinfo(arena+hblkhd)
         77998 MiB available memory on the node where the printing process lives
------------------
     ethr =  1.14E-05,  avg # of iterations =  1.0

     total cpu time spent up to now is       88.2 secs

     total energy              =   -1852.51431041 Ry
     estimated scf accuracy    <       0.08001199 Ry

     iteration # 78     ecut=    30.00 Ry     beta= 0.70
     Davidson diagonalization with overlap

---- Real-time Memory Report at c_bands before calling an iterative solver
           605 MiB given to the printing process from OS
             0 MiB allocation reported by mallinfo(arena+hblkhd)
         77998 MiB available memory on the node where the printing process lives
------------------
     ethr =  1.14E-05,  avg # of iterations =  1.0

     total cpu time spent up to now is       89.2 secs

     total energy              =   -1852.51331676 Ry
     estimated scf accuracy    <       0.08570904 Ry

     iteration # 79     ecut=    30.00 Ry     beta= 0.70
     Davidson diagonalization with overlap

---- Real-time Memory Report at c_bands before calling an iterative solver
           605 MiB given to the printing process from OS
             0 MiB allocation reported by mallinfo(arena+hblkhd)
         77997 MiB available memory on the node where the printing process lives
------------------
     ethr =  1.14E-05,  avg # of iterations =  1.0

     total cpu time spent up to now is       90.2 secs

     total energy              =   -1852.51114430 Ry
     estimated scf accuracy    <       0.16913358 Ry

     iteration # 80     ecut=    30.00 Ry     beta= 0.70
     Davidson diagonalization with overlap

---- Real-time Memory Report at c_bands before calling an iterative solver
           605 MiB given to the printing process from OS
             0 MiB allocation reported by mallinfo(arena+hblkhd)
         77997 MiB available memory on the node where the printing process lives
------------------
     ethr =  1.14E-05,  avg # of iterations =  1.0

     total cpu time spent up to now is       91.2 secs

     total energy              =   -1852.51083806 Ry
     estimated scf accuracy    <       0.97877966 Ry

     iteration # 81     ecut=    30.00 Ry     beta= 0.70
     Davidson diagonalization with overlap

---- Real-time Memory Report at c_bands before calling an iterative solver
           605 MiB given to the printing process from OS
             0 MiB allocation reported by mallinfo(arena+hblkhd)
         77996 MiB available memory on the node where the printing process lives
------------------
     ethr =  1.14E-05,  avg # of iterations =  2.0

     total cpu time spent up to now is       92.2 secs

     total energy              =   -1852.51187870 Ry
     estimated scf accuracy    <       0.59372447 Ry

     iteration # 82     ecut=    30.00 Ry     beta= 0.70
     Davidson diagonalization with overlap

---- Real-time Memory Report at c_bands before calling an iterative solver
           605 MiB given to the printing process from OS
             0 MiB allocation reported by mallinfo(arena+hblkhd)
         77996 MiB available memory on the node where the printing process lives
------------------
     ethr =  1.14E-05,  avg # of iterations =  2.0

     total cpu time spent up to now is       93.2 secs

     total energy              =   -1852.51595457 Ry
     estimated scf accuracy    <       0.00768422 Ry

     iteration # 83     ecut=    30.00 Ry     beta= 0.70
     Davidson diagonalization with overlap

---- Real-time Memory Report at c_bands before calling an iterative solver
           605 MiB given to the printing process from OS
             0 MiB allocation reported by mallinfo(arena+hblkhd)
         77995 MiB available memory on the node where the printing process lives
------------------
     ethr =  5.34E-06,  avg # of iterations =  2.0

     total cpu time spent up to now is       94.2 secs

     total energy              =   -1852.51224767 Ry
     estimated scf accuracy    <       0.48771668 Ry

     iteration # 84     ecut=    30.00 Ry     beta= 0.70
     Davidson diagonalization with overlap

---- Real-time Memory Report at c_bands before calling an iterative solver
           605 MiB given to the printing process from OS
             0 MiB allocation reported by mallinfo(arena+hblkhd)
         77996 MiB available memory on the node where the printing process lives
------------------
     ethr =  5.34E-06,  avg # of iterations =  2.0

     total cpu time spent up to now is       95.2 secs

     total energy              =   -1852.51143201 Ry
     estimated scf accuracy    <       0.15835862 Ry

     iteration # 85     ecut=    30.00 Ry     beta= 0.70
     Davidson diagonalization with overlap

---- Real-time Memory Report at c_bands before calling an iterative solver
           605 MiB given to the printing process from OS
             0 MiB allocation reported by mallinfo(arena+hblkhd)
         77996 MiB available memory on the node where the printing process lives
------------------
     ethr =  5.34E-06,  avg # of iterations =  2.0

     total cpu time spent up to now is       96.2 secs

     total energy              =   -1852.50667416 Ry
     estimated scf accuracy    <       0.29065084 Ry

     iteration # 86     ecut=    30.00 Ry     beta= 0.70
     Davidson diagonalization with overlap

---- Real-time Memory Report at c_bands before calling an iterative solver
           605 MiB given to the printing process from OS
             0 MiB allocation reported by mallinfo(arena+hblkhd)
         77995 MiB available memory on the node where the printing process lives
------------------
     ethr =  5.34E-06,  avg # of iterations =  2.0
     Minimization algorithm failed to find Fermi energy: reverting to bisection
     Possible cause: smearing is larger than the electronic band-gap.

     total cpu time spent up to now is       97.3 secs

     total energy              =   -1852.51312577 Ry
     estimated scf accuracy    <       0.12208951 Ry

     iteration # 87     ecut=    30.00 Ry     beta= 0.70
     Davidson diagonalization with overlap

---- Real-time Memory Report at c_bands before calling an iterative solver
           605 MiB given to the printing process from OS
             0 MiB allocation reported by mallinfo(arena+hblkhd)
         77997 MiB available memory on the node where the printing process lives
------------------
     ethr =  5.34E-06,  avg # of iterations =  1.0

     total cpu time spent up to now is       98.3 secs

     total energy              =   -1852.51482862 Ry
     estimated scf accuracy    <       0.04650706 Ry

     iteration # 88     ecut=    30.00 Ry     beta= 0.70
     Davidson diagonalization with overlap

---- Real-time Memory Report at c_bands before calling an iterative solver
           605 MiB given to the printing process from OS
             0 MiB allocation reported by mallinfo(arena+hblkhd)
         77997 MiB available memory on the node where the printing process lives
------------------
     ethr =  5.34E-06,  avg # of iterations =  1.0
     Minimization algorithm failed to find Fermi energy: reverting to bisection
     Possible cause: smearing is larger than the electronic band-gap.

     total cpu time spent up to now is       99.3 secs

     total energy              =   -1852.51251058 Ry
     estimated scf accuracy    <       0.14620157 Ry

     iteration # 89     ecut=    30.00 Ry     beta= 0.70
     Davidson diagonalization with overlap

---- Real-time Memory Report at c_bands before calling an iterative solver
           605 MiB given to the printing process from OS
             0 MiB allocation reported by mallinfo(arena+hblkhd)
         77996 MiB available memory on the node where the printing process lives
------------------
     ethr =  5.34E-06,  avg # of iterations =  1.0

     total cpu time spent up to now is      100.2 secs

     total energy              =   -1852.51504891 Ry
     estimated scf accuracy    <       0.04910875 Ry

     iteration # 90     ecut=    30.00 Ry     beta= 0.70
     Davidson diagonalization with overlap

---- Real-time Memory Report at c_bands before calling an iterative solver
           605 MiB given to the printing process from OS
             0 MiB allocation reported by mallinfo(arena+hblkhd)
         77998 MiB available memory on the node where the printing process lives
------------------
     ethr =  5.34E-06,  avg # of iterations =  1.0

     total cpu time spent up to now is      101.2 secs

     total energy              =   -1852.51494567 Ry
     estimated scf accuracy    <       0.42073280 Ry

     iteration # 91     ecut=    30.00 Ry     beta= 0.70
     Davidson diagonalization with overlap

---- Real-time Memory Report at c_bands before calling an iterative solver
           605 MiB given to the printing process from OS
             0 MiB allocation reported by mallinfo(arena+hblkhd)
         77999 MiB available memory on the node where the printing process lives
------------------
     ethr =  5.34E-06,  avg # of iterations =  1.0

     total cpu time spent up to now is      102.2 secs

     total energy              =   -1852.51183850 Ry
     estimated scf accuracy    <       0.12065820 Ry

     iteration # 92     ecut=    30.00 Ry     beta= 0.70
     Davidson diagonalization with overlap

---- Real-time Memory Report at c_bands before calling an iterative solver
           605 MiB given to the printing process from OS
             0 MiB allocation reported by mallinfo(arena+hblkhd)
         77998 MiB available memory on the node where the printing process lives
------------------
     ethr =  5.34E-06,  avg # of iterations =  2.0

     total cpu time spent up to now is      103.2 secs

     total energy              =   -1852.51047390 Ry
     estimated scf accuracy    <       0.42609743 Ry

     iteration # 93     ecut=    30.00 Ry     beta= 0.70
     Davidson diagonalization with overlap

---- Real-time Memory Report at c_bands before calling an iterative solver
           605 MiB given to the printing process from OS
             0 MiB allocation reported by mallinfo(arena+hblkhd)
         77999 MiB available memory on the node where the printing process lives
------------------
     ethr =  5.34E-06,  avg # of iterations =  2.0

     total cpu time spent up to now is      104.3 secs

     total energy              =   -1852.51075079 Ry
     estimated scf accuracy    <       0.30046797 Ry

     iteration # 94     ecut=    30.00 Ry     beta= 0.70
     Davidson diagonalization with overlap

---- Real-time Memory Report at c_bands before calling an iterative solver
           605 MiB given to the printing process from OS
             0 MiB allocation reported by mallinfo(arena+hblkhd)
         78000 MiB available memory on the node where the printing process lives
------------------
     ethr =  5.34E-06,  avg # of iterations =  2.0

     total cpu time spent up to now is      105.3 secs

     total energy              =   -1852.51287662 Ry
     estimated scf accuracy    <       0.16581252 Ry

     iteration # 95     ecut=    30.00 Ry     beta= 0.70
     Davidson diagonalization with overlap

---- Real-time Memory Report at c_bands before calling an iterative solver
           605 MiB given to the printing process from OS
             0 MiB allocation reported by mallinfo(arena+hblkhd)
         78001 MiB available memory on the node where the printing process lives
------------------
     ethr =  5.34E-06,  avg # of iterations =  1.0

     total cpu time spent up to now is      106.2 secs

     total energy              =   -1852.51542099 Ry
     estimated scf accuracy    <       0.01785910 Ry

     iteration # 96     ecut=    30.00 Ry     beta= 0.70
     Davidson diagonalization with overlap

---- Real-time Memory Report at c_bands before calling an iterative solver
           605 MiB given to the printing process from OS
             0 MiB allocation reported by mallinfo(arena+hblkhd)
         78001 MiB available memory on the node where the printing process lives
------------------
     ethr =  5.34E-06,  avg # of iterations =  1.0

     total cpu time spent up to now is      107.2 secs

     total energy              =   -1852.51379524 Ry
     estimated scf accuracy    <       0.13254561 Ry

     iteration # 97     ecut=    30.00 Ry     beta= 0.70
     Davidson diagonalization with overlap

---- Real-time Memory Report at c_bands before calling an iterative solver
           605 MiB given to the printing process from OS
             0 MiB allocation reported by mallinfo(arena+hblkhd)
         78001 MiB available memory on the node where the printing process lives
------------------
     ethr =  5.34E-06,  avg # of iterations =  2.0

     total cpu time spent up to now is      108.2 secs

     WARNING: integrated charge=   143.99986833, expected=   144.00000000

     total energy              =   -1852.51376963 Ry
     estimated scf accuracy    <       0.23154902 Ry

     iteration # 98     ecut=    30.00 Ry     beta= 0.70
     Davidson diagonalization with overlap

---- Real-time Memory Report at c_bands before calling an iterative solver
           605 MiB given to the printing process from OS
             0 MiB allocation reported by mallinfo(arena+hblkhd)
         78001 MiB available memory on the node where the printing process lives
------------------
     ethr =  5.34E-06,  avg # of iterations =  2.0

     total cpu time spent up to now is      109.2 secs

     WARNING: integrated charge=   143.99988012, expected=   144.00000000

     total energy              =   -1852.51248575 Ry
     estimated scf accuracy    <       0.16044014 Ry

     iteration # 99     ecut=    30.00 Ry     beta= 0.70
     Davidson diagonalization with overlap

---- Real-time Memory Report at c_bands before calling an iterative solver
           605 MiB given to the printing process from OS
             0 MiB allocation reported by mallinfo(arena+hblkhd)
         78003 MiB available memory on the node where the printing process lives
------------------
     ethr =  5.34E-06,  avg # of iterations =  2.0

     total cpu time spent up to now is      110.2 secs

     WARNING: integrated charge=   143.99989026, expected=   144.00000000

     total energy              =   -1852.51298250 Ry
     estimated scf accuracy    <       0.16845319 Ry

     iteration #100     ecut=    30.00 Ry     beta= 0.70
     Davidson diagonalization with overlap

---- Real-time Memory Report at c_bands before calling an iterative solver
           605 MiB given to the printing process from OS
             0 MiB allocation reported by mallinfo(arena+hblkhd)
         78004 MiB available memory on the node where the printing process lives
------------------
     ethr =  5.34E-06,  avg # of iterations =  2.0

     total cpu time spent up to now is      111.2 secs

     WARNING: integrated charge=   143.99997825, expected=   144.00000000

     total energy              =   -1852.50767339 Ry
     estimated scf accuracy    <       1.00528609 Ry

     End of self-consistent calculation

     convergence NOT achieved after 100 iterations: stopping

     Writing config to output data dir new_calculations/myprefix.save/
     Message from routine punch:
     wavefunctions written to file
 
     init_run     :    124.43s CPU      5.21s WALL (       1 calls)
     electrons    :   3163.35s CPU    105.96s WALL (       1 calls)

     Called by init_run:
     wfcinit      :     24.37s CPU      0.78s WALL (       1 calls)
     wfcinit:atom :      0.02s CPU      0.00s WALL (       1 calls)
     wfcinit:wfcr :     24.11s CPU      0.77s WALL (       1 calls)
     potinit      :     17.63s CPU      0.58s WALL (       1 calls)
     hinit0       :     79.54s CPU      3.74s WALL (       1 calls)

     Called by electrons:
     c_bands      :   1953.64s CPU     62.17s WALL (     100 calls)
     sum_band     :    642.15s CPU     24.98s WALL (     100 calls)
     v_of_rho     :     61.76s CPU      2.05s WALL (     101 calls)
     v_h          :      5.70s CPU      0.19s WALL (     101 calls)
     v_xc         :     55.81s CPU      1.85s WALL (     101 calls)
     newd         :    229.72s CPU      7.70s WALL (     101 calls)
     PAW_pot      :    239.78s CPU      7.87s WALL (     101 calls)
     mix_rho      :     19.63s CPU      0.64s WALL (     100 calls)

     Called by c_bands:
     init_us_2    :      2.60s CPU      0.09s WALL (     201 calls)
     init_us_2:cp :      2.27s CPU      0.08s WALL (     201 calls)
     regterg      :   1941.44s CPU     61.76s WALL (     100 calls)

     Called by sum_band:
     sum_band:wei :      0.50s CPU      0.02s WALL (     100 calls)
     sum_band:loo :    430.91s CPU     13.66s WALL (     100 calls)
     sum_band:buf :      0.09s CPU      0.00s WALL (     100 calls)
     sum_band:ini :      1.45s CPU      0.05s WALL (     100 calls)
     sum_band:cal :      2.21s CPU      0.07s WALL (     100 calls)
     sum_band:bec :      0.55s CPU      0.02s WALL (     100 calls)
     addusdens    :    199.63s CPU     10.93s WALL (     100 calls)
     addusd:skk   :      1.89s CPU      0.14s WALL (     300 calls)
     addusd:dgemm :     18.59s CPU      5.00s WALL (     300 calls)
     addusd:qvan2 :    167.84s CPU      5.41s WALL (     300 calls)

     Called by *egterg:
     rdiaghg      :     53.66s CPU      1.76s WALL (     250 calls)
     regterg:over :      2.20s CPU      0.07s WALL (     150 calls)
     regterg:upda :      3.00s CPU      0.10s WALL (     150 calls)
     regterg:last :      6.17s CPU      0.21s WALL (     146 calls)
     h_psi        :   1868.44s CPU     59.29s WALL (     251 calls)
     s_psi        :      1.17s CPU      0.04s WALL (     251 calls)
     g_psi        :      0.25s CPU      0.01s WALL (     150 calls)

     Called by h_psi:
     h_psi:calbec :      4.09s CPU      0.14s WALL (     251 calls)
     vloc_psi     :   1860.39s CPU     59.00s WALL (     251 calls)
     add_vuspsi   :      1.73s CPU      0.07s WALL (     251 calls)

     General routines
     calbec       :      5.77s CPU      0.20s WALL (     351 calls)
     fft          :     78.07s CPU      2.73s WALL (    1111 calls)
     ffts         :     15.32s CPU      0.50s WALL (     201 calls)
     fftw         :   2091.47s CPU     66.13s WALL (   22352 calls)
     interpolate  :     19.71s CPU      0.65s WALL (     101 calls)
     davcio       :      2.59s CPU      0.21s WALL (      19 calls)
 
     Parallel routines

     PAW routines
     PAW_pot      :    239.78s CPU      7.87s WALL (     101 calls)
     PAW_symme    :      0.31s CPU      0.01s WALL (     201 calls)
 
     PWSCF        :  54m48.34s CPU   1m51.62s WALL

 
   This run was terminated on:   9:26:57  21May2023            

=------------------------------------------------------------------------------=
   JOB DONE.
=------------------------------------------------------------------------------=
