
     Program PWSCF v.7.1 starts on 16Jul2023 at 16:53:14 

     This program is part of the open-source Quantum ESPRESSO suite
     for quantum simulation of materials; please cite
         "P. Giannozzi et al., J. Phys.:Condens. Matter 21 395502 (2009);
         "P. Giannozzi et al., J. Phys.:Condens. Matter 29 465901 (2017);
         "P. Giannozzi et al., J. Chem. Phys. 152 154105 (2020);
          URL http://www.quantum-espresso.org", 
     in publications or presentations arising from this work. More details at
     http://www.quantum-espresso.org/quote

     Parallel version (MPI & OpenMP), running on      32 processor cores
     Number of MPI processes:                 8
     Threads/MPI process:                     4

     MPI processes distributed on     1 nodes
     133460 MiB available memory on the printing compute node when the environment starts
 
     Reading input from espresso_12877.pwi
Warning: card &CELL ignored
Warning: card / ignored

     Current dimensions of program PWSCF are:
     Max number of different atomic species (ntypx) = 10
     Max number of k-points (npk) =  40000
     Max angular momentum in pseudopotentials (lmaxx) =  4
     Message from routine setup:
     using ibrav=0 with symmetry is DISCOURAGED, use correct ibrav instead
 
     K-points division:     npool     =       2
     R & G space division:  proc/nbgrp/npool/nimage =       4
     Subspace diagonalization in iterative solution of the eigenvalue problem:
     a serial algorithm will be used

 
     Parallelization info
     --------------------
     sticks:   dense  smooth     PW     G-vecs:    dense   smooth      PW
     Min         569     284     87                10898     3857     646
     Max         571     285     88                10899     3859     648
     Sum        2279    1139    349                43595    15431    2587
 
     Using Slab Decomposition
 


     bravais-lattice index     =            0
     lattice parameter (alat)  =      11.8006  a.u.
     unit-cell volume          =     694.2187 (a.u.)^3
     number of atoms/cell      =            4
     number of atomic types    =            2
     number of electrons       =        29.00
     number of Kohn-Sham states=           19
     kinetic-energy cutoff     =      30.0000  Ry
     charge density cutoff     =     240.0000  Ry
     scf convergence threshold =      1.0E-06
     mixing beta               =       0.7000
     number of iterations used =            8  plain     mixing
     Exchange-correlation= SLA  PW   PBE  PBE
                           (   1   4   3   4   0   0   0)

     celldm(1)=  11.800627  celldm(2)=   0.000000  celldm(3)=   0.000000
     celldm(4)=   0.000000  celldm(5)=   0.000000  celldm(6)=   0.000000

     crystal axes: (cart. coord. in units of alat)
               a(1) = (   1.000000   0.000000   0.000000 )  
               a(2) = (   0.514537   0.857468   0.000000 )  
               a(3) = (  -0.757268  -0.428734   0.492678 )  

     reciprocal axes: (cart. coord. in units 2 pi/alat)
               b(1) = (  1.000000 -0.600065  1.014862 )  
               b(2) = (  0.000000  1.166224  1.014862 )  
               b(3) = (  0.000000  0.000000  2.029724 )  


     PseudoPot. # 1 for Ac read from file:
     /lustre07/scratch/pragov/crystal_structure_design/utils/SSSP/Ac.us.z_11.ld1.psl.v1.0.0-high.upf
     MD5 check sum: 3a78bb30464666358a3ec0edb47f6656
     Pseudo is Ultrasoft + core correction, Zval = 11.0
     Generated using &quot;atomic&quot; code by A. Dal Corso  v.6.3MaX
     Using radial grid of 1289 points,  8 beta functions with: 
                l(1) =   0
                l(2) =   0
                l(3) =   1
                l(4) =   1
                l(5) =   2
                l(6) =   2
                l(7) =   3
                l(8) =   3
     Q(r) pseudized with 0 coefficients 


     PseudoPot. # 2 for Se read from file:
     /lustre07/scratch/pragov/crystal_structure_design/utils/SSSP/Se_pbe_v1.uspp.F.UPF
     MD5 check sum: 1b3568f3a8ae88f9a2a0ad0698632c85
     Pseudo is Ultrasoft + core correction, Zval =  6.0
     Generated by new atomic code, or converted to UPF format
     Using radial grid of  877 points,  6 beta functions with: 
                l(1) =   0
                l(2) =   0
                l(3) =   1
                l(4) =   1
                l(5) =   2
                l(6) =   2
     Q(r) pseudized with  8 coefficients,  rinner =    1.300   1.300   1.300
                                                       1.300   1.300

     atomic species   valence    mass     pseudopotential
        Ac            11.00   227.02775     Ac( 1.00)
        Se             6.00    78.97100     Se( 1.00)

      4 Sym. Ops., with inversion, found


                                    s                        frac. trans.

      isym =  1     identity                                     

 cryst.   s( 1) = (     1          0          0      )
                  (     0          1          0      )
                  (     0          0          1      )

 cart.    s( 1) = (  1.0000000  0.0000000  0.0000000 )
                  (  0.0000000  1.0000000  0.0000000 )
                  (  0.0000000  0.0000000  1.0000000 )


      isym =  2     180 deg rotation - cart. axis [0,0,1]        

 cryst.   s( 2) = (    -1          0          0      )
                  (     0         -1          0      )
                  (     1          1          1      )

 cart.    s( 2) = ( -1.0000000  0.0000000 -0.0000000 )
                  (  0.0000000 -1.0000000 -0.0000000 )
                  (  0.0000000  0.0000000  1.0000000 )


      isym =  3     inversion                                    

 cryst.   s( 3) = (    -1          0          0      )
                  (     0         -1          0      )
                  (     0          0         -1      )

 cart.    s( 3) = ( -1.0000000  0.0000000 -0.0000000 )
                  (  0.0000000 -1.0000000  0.0000000 )
                  (  0.0000000  0.0000000 -1.0000000 )


      isym =  4     inv. 180 deg rotation - cart. axis [0,0,1]   

 cryst.   s( 4) = (     1          0          0      )
                  (     0          1          0      )
                  (    -1         -1         -1      )

 cart.    s( 4) = (  1.0000000  0.0000000  0.0000000 )
                  (  0.0000000  1.0000000  0.0000000 )
                  (  0.0000000  0.0000000 -1.0000000 )


   Cartesian axes

     site n.     atom                  positions (alat units)
         1           Ac  tau(   1) = (   0.0000000   0.0000000   0.0000000  )
         2           Se  tau(   2) = (   0.5000000   0.0000000   0.2463390  )
         3           Se  tau(   3) = (   0.2572685   0.4287341   0.2463390  )
         4           Se  tau(   4) = (   0.7572685   0.4287341   0.0000000  )

   Crystallographic axes

     site n.     atom                  positions (cryst. coord.)
         1           Ac  tau(   1) = (  0.0000000  0.0000000  0.0000000  )
         2           Se  tau(   2) = (  0.7500000  0.2500000  0.5000000  )
         3           Se  tau(   3) = (  0.2500000  0.7500000  0.5000000  )
         4           Se  tau(   4) = (  0.5000000  0.5000000  0.0000000  )

     number of k points=    10  Gaussian smearing, width (Ry)=  0.0010
                       cart. coord. in units 2pi/alat
        k(    1) = (   0.0000000   0.0000000   0.0000000), wk =   0.0740741
        k(    2) = (   0.0000000   0.0000000   0.6765745), wk =   0.1481481
        k(    3) = (   0.0000000   0.3887413   0.3382873), wk =   0.2962963
        k(    4) = (   0.0000000   0.3887413   1.0148618), wk =   0.1481481
        k(    5) = (   0.3333333  -0.2000218   0.3382873), wk =   0.2962963
        k(    6) = (   0.3333333  -0.2000218   1.0148618), wk =   0.1481481
        k(    7) = (   0.3333333   0.1887196   0.6765745), wk =   0.2962963
        k(    8) = (   0.3333333   0.1887196   0.0000000), wk =   0.1481481
        k(    9) = (   0.3333333  -0.5887631   0.0000000), wk =   0.1481481
        k(   10) = (   0.3333333  -0.5887631   0.6765745), wk =   0.2962963

                       cryst. coord.
        k(    1) = (   0.0000000   0.0000000   0.0000000), wk =   0.0740741
        k(    2) = (   0.0000000   0.0000000   0.3333333), wk =   0.1481481
        k(    3) = (   0.0000000   0.3333333   0.0000000), wk =   0.2962963
        k(    4) = (   0.0000000   0.3333333   0.3333333), wk =   0.1481481
        k(    5) = (   0.3333333   0.0000000   0.0000000), wk =   0.2962963
        k(    6) = (   0.3333333   0.0000000   0.3333333), wk =   0.1481481
        k(    7) = (   0.3333333   0.3333333   0.0000000), wk =   0.2962963
        k(    8) = (   0.3333333   0.3333333  -0.3333333), wk =   0.1481481
        k(    9) = (   0.3333333  -0.3333333   0.0000000), wk =   0.1481481
        k(   10) = (   0.3333333  -0.3333333   0.3333333), wk =   0.2962963

     Dense  grid:    43595 G-vectors     FFT dimensions: (  60,  60,  60)

     Smooth grid:    15431 G-vectors     FFT dimensions: (  45,  45,  45)

     Dynamical RAM for                 wfc:       0.14 MB

     Dynamical RAM for     wfc (w. buffer):       0.84 MB

     Dynamical RAM for           str. fact:       0.33 MB

     Dynamical RAM for           local pot:       0.00 MB

     Dynamical RAM for          nlocal pot:       0.63 MB

     Dynamical RAM for                qrad:       5.97 MB

     Dynamical RAM for          rho,v,vnew:       1.73 MB

     Dynamical RAM for               rhoin:       0.58 MB

     Dynamical RAM for            rho*nmix:       2.66 MB

     Dynamical RAM for           G-vectors:       0.65 MB

     Dynamical RAM for          h,s,v(r/c):       0.07 MB

     Dynamical RAM for          <psi|beta>:       0.02 MB

     Dynamical RAM for                 psi:       0.28 MB

     Dynamical RAM for                hpsi:       0.28 MB

     Dynamical RAM for                spsi:       0.28 MB

     Dynamical RAM for      wfcinit/wfcrot:       0.38 MB

     Dynamical RAM for           addusdens:      46.48 MB

     Estimated static dynamical RAM per process >      13.30 MB

     Estimated max dynamical RAM per process >      62.44 MB

     Estimated total dynamical RAM >     488.85 MB

     Initial potential from superposition of free atoms

     starting charge      28.9913, renormalised to      29.0000
     Starting wfcs are   25 randomized atomic wfcs

     total cpu time spent up to now is        0.9 secs

     Self-consistent Calculation

     iteration #  1     ecut=    30.00 Ry     beta= 0.70
     Davidson diagonalization with overlap

---- Real-time Memory Report at c_bands before calling an iterative solver
           244 MiB given to the printing process from OS
             0 MiB allocation reported by mallinfo(arena+hblkhd)
        133141 MiB available memory on the node where the printing process lives
------------------
     ethr =  1.00E-02,  avg # of iterations =  3.9

     Threshold (ethr) on eigenvalues was too large:
     Diagonalizing with lowered threshold

     Davidson diagonalization with overlap

---- Real-time Memory Report at c_bands before calling an iterative solver
           248 MiB given to the printing process from OS
             0 MiB allocation reported by mallinfo(arena+hblkhd)
        133103 MiB available memory on the node where the printing process lives
------------------
     ethr =  3.56E-04,  avg # of iterations =  4.3

     total cpu time spent up to now is        1.4 secs

     total energy              =    -225.07777110 Ry
     estimated scf accuracy    <       0.09363573 Ry

     iteration #  2     ecut=    30.00 Ry     beta= 0.70
     Davidson diagonalization with overlap

---- Real-time Memory Report at c_bands before calling an iterative solver
           255 MiB given to the printing process from OS
             0 MiB allocation reported by mallinfo(arena+hblkhd)
        133055 MiB available memory on the node where the printing process lives
------------------
     ethr =  3.23E-04,  avg # of iterations =  3.9

     total cpu time spent up to now is        1.7 secs

     total energy              =    -225.03936423 Ry
     estimated scf accuracy    <       0.38250261 Ry

     iteration #  3     ecut=    30.00 Ry     beta= 0.70
     Davidson diagonalization with overlap

---- Real-time Memory Report at c_bands before calling an iterative solver
           256 MiB given to the printing process from OS
             0 MiB allocation reported by mallinfo(arena+hblkhd)
        133055 MiB available memory on the node where the printing process lives
------------------
     ethr =  3.23E-04,  avg # of iterations =  2.1

     total cpu time spent up to now is        1.9 secs

     total energy              =    -225.12029757 Ry
     estimated scf accuracy    <       0.01558469 Ry

     iteration #  4     ecut=    30.00 Ry     beta= 0.70
     Davidson diagonalization with overlap

---- Real-time Memory Report at c_bands before calling an iterative solver
           256 MiB given to the printing process from OS
             0 MiB allocation reported by mallinfo(arena+hblkhd)
        133125 MiB available memory on the node where the printing process lives
------------------
     ethr =  5.37E-05,  avg # of iterations =  2.0

     total cpu time spent up to now is        2.1 secs

     total energy              =    -225.12060401 Ry
     estimated scf accuracy    <       0.00442629 Ry

     iteration #  5     ecut=    30.00 Ry     beta= 0.70
     Davidson diagonalization with overlap

---- Real-time Memory Report at c_bands before calling an iterative solver
           256 MiB given to the printing process from OS
             0 MiB allocation reported by mallinfo(arena+hblkhd)
        133126 MiB available memory on the node where the printing process lives
------------------
     ethr =  1.53E-05,  avg # of iterations =  5.8

     total cpu time spent up to now is        2.4 secs

     total energy              =    -225.12078778 Ry
     estimated scf accuracy    <       0.00065691 Ry

     iteration #  6     ecut=    30.00 Ry     beta= 0.70
     Davidson diagonalization with overlap

---- Real-time Memory Report at c_bands before calling an iterative solver
           256 MiB given to the printing process from OS
             0 MiB allocation reported by mallinfo(arena+hblkhd)
        133107 MiB available memory on the node where the printing process lives
------------------
     ethr =  2.27E-06,  avg # of iterations =  4.8

     total cpu time spent up to now is        2.6 secs

     total energy              =    -225.12090852 Ry
     estimated scf accuracy    <       0.00002970 Ry

     iteration #  7     ecut=    30.00 Ry     beta= 0.70
     Davidson diagonalization with overlap

---- Real-time Memory Report at c_bands before calling an iterative solver
           256 MiB given to the printing process from OS
             0 MiB allocation reported by mallinfo(arena+hblkhd)
        133107 MiB available memory on the node where the printing process lives
------------------
     ethr =  1.02E-07,  avg # of iterations =  5.0

     total cpu time spent up to now is        3.1 secs

     total energy              =    -225.12094584 Ry
     estimated scf accuracy    <       0.00000291 Ry

     iteration #  8     ecut=    30.00 Ry     beta= 0.70
     Davidson diagonalization with overlap

---- Real-time Memory Report at c_bands before calling an iterative solver
           257 MiB given to the printing process from OS
             0 MiB allocation reported by mallinfo(arena+hblkhd)
        133088 MiB available memory on the node where the printing process lives
------------------
     ethr =  1.00E-08,  avg # of iterations =  3.8

     total cpu time spent up to now is        3.8 secs

     End of self-consistent calculation

          k = 0.0000 0.0000 0.0000 (  1929 PWs)   bands (ev):

   -25.8139  -5.6578  -5.5164  -5.5164  -5.0434  -2.9597  -2.1373   4.9289
     5.2589   5.2589   6.8325   7.4081   7.4081   9.4579  10.2782  10.2782
    11.9304  12.0029  12.2180

     occupation numbers 
     1.0000   1.0000   1.0000   1.0000   1.0000   1.0000   1.0000   1.0000
     1.0000   1.0000   1.0000   1.0000   1.0000   0.0000   0.0000   0.0000
     0.0000   0.0000   0.0000

          k = 0.0000 0.0000 0.6766 (  1930 PWs)   bands (ev):

   -25.7956  -6.1315  -5.8066  -5.5787  -3.6920  -3.1998  -2.7508   4.0601
     5.1879   5.8342   6.1530   6.2789   8.7361   8.7578   9.0063  10.8463
    12.3164  12.8658  13.2398

     occupation numbers 
     1.0000   1.0000   1.0000   1.0000   1.0000   1.0000   1.0000   1.0000
     1.0000   1.0000   1.0000   1.0000   1.0000   1.0000   0.0000   0.0000
     0.0000   0.0000   0.0000

          k = 0.0000 0.3887 0.3383 (  1927 PWs)   bands (ev):

   -25.8045  -6.3167  -5.7057  -5.4504  -4.0903  -2.8912  -2.3067   4.7210
     5.5452   5.8461   6.3959   6.4978   7.5684   8.0559   8.5010   9.5080
    11.8773  13.4903  13.5345

     occupation numbers 
     1.0000   1.0000   1.0000   1.0000   1.0000   1.0000   1.0000   1.0000
     1.0000   1.0000   1.0000   1.0000   1.0000   1.0000   1.0000   0.0000
     0.0000   0.0000   0.0000

          k = 0.0000 0.3887 1.0149 (  1931 PWs)   bands (ev):

   -25.7956  -6.0602  -5.8704  -5.6743  -3.6645  -3.0562  -2.7806   4.1870
     5.0862   5.4818   6.2810   7.1194   7.6758   8.4534   9.1469  10.7605
    12.5182  12.8425  13.2765

     occupation numbers 
     1.0000   1.0000   1.0000   1.0000   1.0000   1.0000   1.0000   1.0000
     1.0000   1.0000   1.0000   1.0000   1.0000   1.0000   0.0000   0.0000
     0.0000   0.0000   0.0000

          k = 0.3333-0.2000 0.3383 (  1927 PWs)   bands (ev):

   -25.8045  -6.3167  -5.7057  -5.4504  -4.0903  -2.8913  -2.3067   4.7210
     5.5452   5.8461   6.3959   6.4978   7.5684   8.0559   8.5010   9.5080
    11.8773  13.4903  13.5346

     occupation numbers 
     1.0000   1.0000   1.0000   1.0000   1.0000   1.0000   1.0000   1.0000
     1.0000   1.0000   1.0000   1.0000   1.0000   1.0000   1.0000   0.0000
     0.0000   0.0000   0.0000

          k = 0.3333-0.2000 1.0149 (  1931 PWs)   bands (ev):

   -25.7956  -6.0602  -5.8704  -5.6743  -3.6645  -3.0562  -2.7806   4.1869
     5.0862   5.4818   6.2810   7.1194   7.6758   8.4534   9.1469  10.7605
    12.5182  12.8425  13.2765

     occupation numbers 
     1.0000   1.0000   1.0000   1.0000   1.0000   1.0000   1.0000   1.0000
     1.0000   1.0000   1.0000   1.0000   1.0000   1.0000   0.0000   0.0000
     0.0000   0.0000   0.0000

          k = 0.3333 0.1887 0.6766 (  1931 PWs)   bands (ev):

   -25.7956  -6.0602  -5.8704  -5.6743  -3.6645  -3.0562  -2.7806   4.1869
     5.0862   5.4818   6.2810   7.1194   7.6758   8.4534   9.1469  10.7605
    12.5182  12.8425  13.2765

     occupation numbers 
     1.0000   1.0000   1.0000   1.0000   1.0000   1.0000   1.0000   1.0000
     1.0000   1.0000   1.0000   1.0000   1.0000   1.0000   0.0000   0.0000
     0.0000   0.0000   0.0000

          k = 0.3333 0.1887 0.0000 (  1902 PWs)   bands (ev):

   -25.8135  -6.1352  -5.5225  -5.5225  -4.2450  -3.2246  -2.1547   5.3664
     5.3664   5.3730   7.4904   7.6764   7.6764   8.0258  10.0006  10.0006
    10.2161  12.0519  12.3194

     occupation numbers 
     1.0000   1.0000   1.0000   1.0000   1.0000   1.0000   1.0000   1.0000
     1.0000   1.0000   1.0000   1.0000   1.0000   1.0000   0.0000   0.0000
     0.0000   0.0000   0.0000

          k = 0.3333-0.5888 0.0000 (  1930 PWs)   bands (ev):

   -25.7956  -6.1315  -5.8066  -5.5787  -3.6920  -3.1998  -2.7508   4.0601
     5.1879   5.8342   6.1530   6.2789   8.7361   8.7578   9.0063  10.8463
    12.3164  12.8658  13.2398

     occupation numbers 
     1.0000   1.0000   1.0000   1.0000   1.0000   1.0000   1.0000   1.0000
     1.0000   1.0000   1.0000   1.0000   1.0000   1.0000   0.0000   0.0000
     0.0000   0.0000   0.0000

          k = 0.3333-0.5888 0.6766 (  1931 PWs)   bands (ev):

   -25.8044  -6.2741  -5.9268  -5.4535  -3.7775  -2.8795  -2.4056   4.8186
     5.7052   6.1602   6.2062   7.0821   7.2550   7.7412   8.1206   8.9078
    11.5688  12.4400  13.8161

     occupation numbers 
     1.0000   1.0000   1.0000   1.0000   1.0000   1.0000   1.0000   1.0000
     1.0000   1.0000   1.0000   1.0000   1.0000   1.0000   1.0000   0.6250
     0.0000   0.0000   0.0000

     the Fermi energy is     8.9108 ev

!    total energy              =    -225.12094589 Ry
     estimated scf accuracy    <       0.00000058 Ry
     smearing contrib. (-TS)   =      -0.00007945 Ry
     internal energy E=F+TS    =    -225.12086644 Ry

     The total energy is F=E-TS. E is the sum of the following terms:
     one-electron contribution =      12.98319617 Ry
     hartree contribution      =       9.05747827 Ry
     xc contribution           =    -133.85759855 Ry
     ewald contribution        =    -113.30394232 Ry

     convergence has been achieved in   8 iterations

     Writing all to output data dir energy_m/myprefix.save/
 
     init_run     :      1.96s CPU      0.61s WALL (       1 calls)
     electrons    :     11.09s CPU      2.93s WALL (       1 calls)

     Called by init_run:
     wfcinit      :      0.18s CPU      0.05s WALL (       1 calls)
     wfcinit:atom :      0.00s CPU      0.00s WALL (       5 calls)
     wfcinit:wfcr :      0.17s CPU      0.05s WALL (       5 calls)
     potinit      :      0.34s CPU      0.09s WALL (       1 calls)
     hinit0       :      0.75s CPU      0.25s WALL (       1 calls)

     Called by electrons:
     c_bands      :      5.18s CPU      1.35s WALL (       9 calls)
     sum_band     :      3.44s CPU      0.92s WALL (       9 calls)
     v_of_rho     :      0.43s CPU      0.11s WALL (       9 calls)
     v_h          :      0.03s CPU      0.01s WALL (       9 calls)
     v_xc         :      0.40s CPU      0.10s WALL (       9 calls)
     newd         :      2.44s CPU      0.65s WALL (       9 calls)
     mix_rho      :      0.07s CPU      0.02s WALL (       9 calls)

     Called by c_bands:
     init_us_2    :      0.04s CPU      0.01s WALL (      95 calls)
     init_us_2:cp :      0.04s CPU      0.01s WALL (      95 calls)
     cegterg      :      4.17s CPU      1.08s WALL (      45 calls)

     Called by sum_band:
     sum_band:wei :      0.01s CPU      0.00s WALL (       9 calls)
     sum_band:loo :      0.78s CPU      0.20s WALL (       9 calls)
     sum_band:buf :      0.01s CPU      0.00s WALL (      45 calls)
     sum_band:ini :      0.02s CPU      0.01s WALL (      45 calls)
     sum_band:cal :      0.06s CPU      0.01s WALL (      45 calls)
     sum_band:bec :      0.00s CPU      0.00s WALL (      45 calls)
     addusdens    :      1.03s CPU      0.29s WALL (       9 calls)
     addusd:skk   :      0.00s CPU      0.00s WALL (      18 calls)
     addusd:dgemm :      0.20s CPU      0.08s WALL (      18 calls)
     addusd:qvan2 :      0.65s CPU      0.17s WALL (      18 calls)

     Called by *egterg:
     cdiaghg      :      0.29s CPU      0.07s WALL (     222 calls)
     cegterg:over :      0.23s CPU      0.04s WALL (     182 calls)
     cegterg:upda :      0.02s CPU      0.01s WALL (     182 calls)
     cegterg:last :      0.02s CPU      0.02s WALL (     100 calls)
     h_psi        :      3.47s CPU      0.92s WALL (     232 calls)
     s_psi        :      0.06s CPU      0.03s WALL (     232 calls)
     g_psi        :      0.00s CPU      0.00s WALL (     182 calls)

     Called by h_psi:
     h_psi:calbec :      0.17s CPU      0.04s WALL (     232 calls)
     vloc_psi     :      3.23s CPU      0.84s WALL (     232 calls)
     add_vuspsi   :      0.06s CPU      0.03s WALL (     232 calls)

     General routines
     calbec       :      0.23s CPU      0.06s WALL (     277 calls)
     fft          :      0.41s CPU      0.11s WALL (     116 calls)
     ffts         :      0.03s CPU      0.01s WALL (      18 calls)
     fftw         :      3.82s CPU      0.94s WALL (    5659 calls)
     interpolate  :      0.04s CPU      0.01s WALL (       9 calls)
 
     Parallel routines
 
     PWSCF        :     13.86s CPU      5.58s WALL

 
   This run was terminated on:  16:53:19  16Jul2023            

=------------------------------------------------------------------------------=
   JOB DONE.
=------------------------------------------------------------------------------=
