
     Program PWSCF v.7.0 starts on 20May2023 at  0:20:56 

     This program is part of the open-source Quantum ESPRESSO suite
     for quantum simulation of materials; please cite
         "P. Giannozzi et al., J. Phys.:Condens. Matter 21 395502 (2009);
         "P. Giannozzi et al., J. Phys.:Condens. Matter 29 465901 (2017);
         "P. Giannozzi et al., J. Chem. Phys. 152 154105 (2020);
          URL http://www.quantum-espresso.org", 
     in publications or presentations arising from this work. More details at
     http://www.quantum-espresso.org/quote

     Parallel version (MPI & OpenMP), running on      32 processor cores
     Number of MPI processes:                 1
     Threads/MPI process:                    32

     MPI processes distributed on     1 nodes
     116924 MiB available memory on the printing compute node when the environment starts
 
     Reading input from espresso_2019.pwi
Warning: card &CELL ignored
Warning: card / ignored

     Current dimensions of program PWSCF are:
     Max number of different atomic species (ntypx) = 10
     Max number of k-points (npk) =  40000
     Max angular momentum in pseudopotentials (lmaxx) =  4
     file O.pbe-n-kjpaw_psl.0.1.UPF: wavefunction(s)  2P renormalized

     gamma-point specific algorithms are used
     Message from routine setup:
     using ibrav=0 with symmetry is DISCOURAGED, use correct ibrav instead

     Subspace diagonalization in iterative solution of the eigenvalue problem:
     a serial algorithm will be used

 
     G-vector sticks info
     --------------------
     sticks:   dense  smooth     PW     G-vecs:    dense   smooth      PW
     Sum        2077    1039    253                62847    22219    2733
 
     Using Slab Decomposition
 


     bravais-lattice index     =            0
     lattice parameter (alat)  =      11.2307  a.u.
     unit-cell volume          =    1001.6170 (a.u.)^3
     number of atoms/cell      =           10
     number of atomic types    =            4
     number of electrons       =       103.00
     number of Kohn-Sham states=           62
     kinetic-energy cutoff     =      30.0000  Ry
     charge density cutoff     =     240.0000  Ry
     scf convergence threshold =      1.0E-06
     mixing beta               =       0.7000
     number of iterations used =            8  plain     mixing
     Exchange-correlation= SLA  PW   PBX  PBC
                           (   1   4   3   4   0   0   0)

     celldm(1)=  11.230667  celldm(2)=   0.000000  celldm(3)=   0.000000
     celldm(4)=   0.000000  celldm(5)=   0.000000  celldm(6)=   0.000000

     crystal axes: (cart. coord. in units of alat)
               a(1) = (   1.000000   0.000000   0.000000 )  
               a(2) = (   0.500000   0.866025   0.000000 )  
               a(3) = (   0.500000   0.288675   0.816497 )  

     reciprocal axes: (cart. coord. in units 2 pi/alat)
               b(1) = (  1.000000 -0.577350 -0.408248 )  
               b(2) = (  0.000000  1.154701 -0.408248 )  
               b(3) = (  0.000000  0.000000  1.224745 )  


     PseudoPot. # 1 for Eu read from file:
     /home/pragov/projects/rrg-bengioy-ad/pragov/crystal_structure_design/SSSP/Eu.GGA-PBE-paw-v1.0.UPF
     MD5 check sum: acec5fd9176fb57ec8e299eae1ecaf48
     Pseudo is Projector augmented-wave + core cor, Zval = 17.0
     Generated using ATOMPAW code
     Shape of augmentation charge: BESSEL
     Using radial grid of 1109 points,  8 beta functions with: 
                l(1) =   0
                l(2) =   0
                l(3) =   1
                l(4) =   1
                l(5) =   2
                l(6) =   2
                l(7) =   3
                l(8) =   3
     Q(r) pseudized with 0 coefficients 


     PseudoPot. # 2 for Dy read from file:
     /home/pragov/projects/rrg-bengioy-ad/pragov/crystal_structure_design/SSSP/Dy.GGA-PBE-paw-v1.0.UPF
     MD5 check sum: 733414aae3e3693a823ce0c917a68f08
     Pseudo is Projector augmented-wave + core cor, Zval = 20.0
     Generated using ATOMPAW code
     Shape of augmentation charge: BESSEL
     Using radial grid of 1112 points,  8 beta functions with: 
                l(1) =   0
                l(2) =   0
                l(3) =   1
                l(4) =   1
                l(5) =   2
                l(6) =   2
                l(7) =   3
                l(8) =   3
     Q(r) pseudized with 0 coefficients 


     PseudoPot. # 3 for Ta read from file:
     /home/pragov/projects/rrg-bengioy-ad/pragov/crystal_structure_design/SSSP/Ta_pbe_v1.uspp.F.UPF
     MD5 check sum: f8bbe9446314a3b8ea5d9f3e3836c939
     Pseudo is Ultrasoft + core correction, Zval = 13.0
     Generated by new atomic code, or converted to UPF format
     Using radial grid of  921 points,  7 beta functions with: 
                l(1) =   0
                l(2) =   0
                l(3) =   1
                l(4) =   1
                l(5) =   2
                l(6) =   2
                l(7) =   3
     Q(r) pseudized with  6 coefficients,  rinner =    1.300   1.300   1.300
                                                       1.300   1.300   1.300
                                                       1.300

     PseudoPot. # 4 for O  read from file:
     /home/pragov/projects/rrg-bengioy-ad/pragov/crystal_structure_design/SSSP/O.pbe-n-kjpaw_psl.0.1.UPF
     MD5 check sum: 0234752ac141de4415c5fc33072bef88
     Pseudo is Projector augmented-wave + core cor, Zval =  6.0
     Generated using "atomic" code by A. Dal Corso  v.5.0.99 svn rev. 10869
     Shape of augmentation charge: BESSEL
     Using radial grid of 1095 points,  4 beta functions with: 
                l(1) =   0
                l(2) =   0
                l(3) =   1
                l(4) =   1
     Q(r) pseudized with 0 coefficients 


     atomic species   valence    mass     pseudopotential
        Eu            17.00   151.96400     Eu( 1.00)
        Dy            20.00   162.50000     Dy( 1.00)
        Ta            13.00   180.94788     Ta( 1.00)
        O              6.00    15.99900     O ( 1.00)

     12 Sym. Ops., with inversion, found


                                    s                        frac. trans.

      isym =  1     identity                                     

 cryst.   s( 1) = (     1          0          0      )
                  (     0          1          0      )
                  (     0          0          1      )

 cart.    s( 1) = (  1.0000000  0.0000000  0.0000000 )
                  (  0.0000000  1.0000000  0.0000000 )
                  (  0.0000000  0.0000000  1.0000000 )


      isym =  2     180 deg rotation - cart. axis [1,0,0]        

 cryst.   s( 2) = (     1          0          0      )
                  (     1         -1          0      )
                  (     1          0         -1      )

 cart.    s( 2) = (  1.0000000  0.0000000  0.0000000 )
                  (  0.0000000 -1.0000000 -0.0000000 )
                  (  0.0000000  0.0000000 -1.0000000 )


      isym =  3     120 deg rotation - cryst. axis [0,0,1]       

 cryst.   s( 3) = (    -1          1          0      )
                  (    -1          0          0      )
                  (    -1          0          1      )

 cart.    s( 3) = ( -0.5000000 -0.8660254 -0.0000000 )
                  (  0.8660254 -0.5000000  0.0000000 )
                  (  0.0000000  0.0000000  1.0000000 )


      isym =  4     120 deg rotation - cryst. axis [0,0,-1]      

 cryst.   s( 4) = (     0         -1          0      )
                  (     1         -1          0      )
                  (     0         -1          1      )

 cart.    s( 4) = ( -0.5000000  0.8660254 -0.0000000 )
                  ( -0.8660254 -0.5000000 -0.0000000 )
                  (  0.0000000  0.0000000  1.0000000 )


      isym =  5     180 deg rotation - cryst. axis [0,1,0]       

 cryst.   s( 5) = (     0         -1          0      )
                  (    -1          0          0      )
                  (     0          0         -1      )

 cart.    s( 5) = ( -0.5000000 -0.8660254  0.0000000 )
                  ( -0.8660254  0.5000000 -0.0000000 )
                  (  0.0000000  0.0000000 -1.0000000 )


      isym =  6     180 deg rotation - cryst. axis [1,1,0]       

 cryst.   s( 6) = (    -1          1          0      )
                  (     0          1          0      )
                  (     0          1         -1      )

 cart.    s( 6) = ( -0.5000000  0.8660254  0.0000000 )
                  (  0.8660254  0.5000000  0.0000000 )
                  (  0.0000000  0.0000000 -1.0000000 )


      isym =  7     inversion                                    

 cryst.   s( 7) = (    -1          0          0      )
                  (     0         -1          0      )
                  (     0          0         -1      )

 cart.    s( 7) = ( -1.0000000  0.0000000  0.0000000 )
                  (  0.0000000 -1.0000000 -0.0000000 )
                  (  0.0000000  0.0000000 -1.0000000 )


      isym =  8     inv. 180 deg rotation - cart. axis [1,0,0]   

 cryst.   s( 8) = (    -1          0          0      )
                  (    -1          1          0      )
                  (    -1          0          1      )

 cart.    s( 8) = ( -1.0000000  0.0000000 -0.0000000 )
                  (  0.0000000  1.0000000  0.0000000 )
                  (  0.0000000  0.0000000  1.0000000 )


      isym =  9     inv. 120 deg rotation - cryst. axis [0,0,1]  

 cryst.   s( 9) = (     1         -1          0      )
                  (     1          0          0      )
                  (     1          0         -1      )

 cart.    s( 9) = (  0.5000000  0.8660254  0.0000000 )
                  ( -0.8660254  0.5000000 -0.0000000 )
                  (  0.0000000  0.0000000 -1.0000000 )


      isym = 10     inv. 120 deg rotation - cryst. axis [0,0,-1] 

 cryst.   s(10) = (     0          1          0      )
                  (    -1          1          0      )
                  (     0          1         -1      )

 cart.    s(10) = (  0.5000000 -0.8660254  0.0000000 )
                  (  0.8660254  0.5000000  0.0000000 )
                  (  0.0000000  0.0000000 -1.0000000 )


      isym = 11     inv. 180 deg rotation - cryst. axis [0,1,0]  

 cryst.   s(11) = (     0          1          0      )
                  (     1          0          0      )
                  (     0          0          1      )

 cart.    s(11) = (  0.5000000  0.8660254  0.0000000 )
                  (  0.8660254 -0.5000000  0.0000000 )
                  (  0.0000000  0.0000000  1.0000000 )


      isym = 12     inv. 180 deg rotation - cryst. axis [1,1,0]  

 cryst.   s(12) = (     1         -1          0      )
                  (     0         -1          0      )
                  (     0         -1          1      )

 cart.    s(12) = (  0.5000000 -0.8660254  0.0000000 )
                  ( -0.8660254 -0.5000000 -0.0000000 )
                  (  0.0000000  0.0000000  1.0000000 )


   Cartesian axes

     site n.     atom                  positions (alat units)
         1           Eu  tau(   1) = (   0.5000000   0.2886751   0.2041241  )
         2           Eu  tau(   2) = (   1.5000000   0.8660254   0.6123724  )
         3           Dy  tau(   3) = (   1.0000000   0.5773503   0.4082483  )
         4           Ta  tau(   4) = (   0.0000000   0.0000000   0.0000000  )
         5           O   tau(   5) = (   1.0000000   0.2739677   0.1937244  )
         6           O   tau(   6) = (   1.0000000   0.8807328   0.6227722  )
         7           O   tau(   7) = (   0.7372630   0.7290415   0.1937244  )
         8           O   tau(   8) = (   1.2627370   0.4256590   0.6227722  )
         9           O   tau(   9) = (   0.7372630   0.4256590   0.6227722  )
        10           O   tau(  10) = (   1.2627370   0.7290415   0.1937244  )

   Crystallographic axes

     site n.     atom                  positions (cryst. coord.)
         1           Eu  tau(   1) = (  0.2500000  0.2500000  0.2500000  )
         2           Eu  tau(   2) = (  0.7500000  0.7500000  0.7500000  )
         3           Dy  tau(   3) = (  0.5000000  0.5000000  0.5000000  )
         4           Ta  tau(   4) = (  0.0000000  0.0000000  0.0000000  )
         5           O   tau(   5) = (  0.7627370  0.2372630  0.2372630  )
         6           O   tau(   6) = (  0.2372630  0.7627370  0.7627370  )
         7           O   tau(   7) = (  0.2372630  0.7627370  0.2372630  )
         8           O   tau(   8) = (  0.7627370  0.2372630  0.7627370  )
         9           O   tau(   9) = (  0.2372630  0.2372630  0.7627370  )
        10           O   tau(  10) = (  0.7627370  0.7627370  0.2372630  )

     number of k points=     1  Methfessel-Paxton smearing, width (Ry)=  0.0010
                       cart. coord. in units 2pi/alat
        k(    1) = (   0.0000000   0.0000000   0.0000000), wk =   2.0000000

                       cryst. coord.
        k(    1) = (   0.0000000   0.0000000   0.0000000), wk =   2.0000000

     Dense  grid:    31424 G-vectors     FFT dimensions: (  60,  60,  60)

     Smooth grid:    11110 G-vectors     FFT dimensions: (  40,  40,  40)

     Dynamical RAM for                 wfc:       1.32 MB

     Dynamical RAM for     wfc (w. buffer):       1.32 MB

     Dynamical RAM for           str. fact:       1.92 MB

     Dynamical RAM for           local pot:       0.00 MB

     Dynamical RAM for          nlocal pot:       3.58 MB

     Dynamical RAM for                qrad:      11.94 MB

     Dynamical RAM for          rho,v,vnew:       6.38 MB

     Dynamical RAM for               rhoin:       2.13 MB

     Dynamical RAM for            rho*nmix:       7.67 MB

     Dynamical RAM for           G-vectors:       1.88 MB

     Dynamical RAM for          h,s,v(r/c):       0.35 MB

     Dynamical RAM for          <psi|beta>:       0.08 MB

     Dynamical RAM for                 psi:       2.63 MB

     Dynamical RAM for                hpsi:       2.63 MB

     Dynamical RAM for                spsi:       2.63 MB

     Dynamical RAM for      wfcinit/wfcrot:       6.05 MB

     Dynamical RAM for           addusdens:     269.00 MB

     Dynamical RAM for          addusforce:     274.10 MB

     Dynamical RAM for         addusstress:     279.06 MB

     Estimated static dynamical RAM per process >      39.79 MB

     Estimated max dynamical RAM per process >     326.53 MB

     Check: negative core charge=   -0.000009

     Initial potential from superposition of free atoms

     starting charge     102.9856, renormalised to     103.0000

     negative rho (up, down):  9.352E-02 0.000E+00
     Starting wfcs are  133 randomized atomic wfcs
     Checking if some PAW data can be deallocated... 

     total cpu time spent up to now is       18.2 secs

     Self-consistent Calculation

     iteration #  1     ecut=    30.00 Ry     beta= 0.70
     Davidson diagonalization with overlap

---- Real-time Memory Report at c_bands before calling an iterative solver
           597 MiB given to the printing process from OS
             0 MiB allocation reported by mallinfo(arena+hblkhd)
        116598 MiB available memory on the node where the printing process lives
------------------
     ethr =  1.00E-02,  avg # of iterations =  2.0

     negative rho (up, down):  9.385E-02 0.000E+00

     total cpu time spent up to now is       22.0 secs

     total energy              =   -2427.36458628 Ry
     estimated scf accuracy    <      24.38903230 Ry

     iteration #  2     ecut=    30.00 Ry     beta= 0.70
     Davidson diagonalization with overlap

---- Real-time Memory Report at c_bands before calling an iterative solver
           794 MiB given to the printing process from OS
             0 MiB allocation reported by mallinfo(arena+hblkhd)
        116554 MiB available memory on the node where the printing process lives
------------------
     ethr =  1.00E-02,  avg # of iterations = 13.0

     negative rho (up, down):  9.428E-02 0.000E+00

     total cpu time spent up to now is       24.7 secs

     total energy              =   -2442.66918291 Ry
     estimated scf accuracy    <     571.96959561 Ry

     iteration #  3     ecut=    30.00 Ry     beta= 0.70
     Davidson diagonalization with overlap

---- Real-time Memory Report at c_bands before calling an iterative solver
           797 MiB given to the printing process from OS
             0 MiB allocation reported by mallinfo(arena+hblkhd)
        116556 MiB available memory on the node where the printing process lives
------------------
     ethr =  1.00E-02,  avg # of iterations =  8.0

     negative rho (up, down):  9.418E-02 0.000E+00

     total cpu time spent up to now is       30.1 secs

     total energy              =   -2458.27418396 Ry
     estimated scf accuracy    <     105.40854673 Ry

     iteration #  4     ecut=    30.00 Ry     beta= 0.70
     Davidson diagonalization with overlap

---- Real-time Memory Report at c_bands before calling an iterative solver
           801 MiB given to the printing process from OS
             0 MiB allocation reported by mallinfo(arena+hblkhd)
        116553 MiB available memory on the node where the printing process lives
------------------
     ethr =  1.00E-02,  avg # of iterations =  4.0

     negative rho (up, down):  9.440E-02 0.000E+00

     total cpu time spent up to now is       32.0 secs

     total energy              =   -2469.79009005 Ry
     estimated scf accuracy    <     131.41951308 Ry

     iteration #  5     ecut=    30.00 Ry     beta= 0.70
     Davidson diagonalization with overlap

---- Real-time Memory Report at c_bands before calling an iterative solver
           801 MiB given to the printing process from OS
             0 MiB allocation reported by mallinfo(arena+hblkhd)
        118093 MiB available memory on the node where the printing process lives
------------------
     ethr =  1.00E-02,  avg # of iterations =  2.0

     negative rho (up, down):  9.448E-02 0.000E+00

     total cpu time spent up to now is       33.7 secs

     total energy              =   -2465.22618559 Ry
     estimated scf accuracy    <     146.16774982 Ry

     iteration #  6     ecut=    30.00 Ry     beta= 0.70
     Davidson diagonalization with overlap

---- Real-time Memory Report at c_bands before calling an iterative solver
           801 MiB given to the printing process from OS
             0 MiB allocation reported by mallinfo(arena+hblkhd)
        116652 MiB available memory on the node where the printing process lives
------------------
     ethr =  1.00E-02,  avg # of iterations =  1.0

     negative rho (up, down):  9.486E-02 0.000E+00

     total cpu time spent up to now is       35.5 secs

     total energy              =   -2460.22473124 Ry
     estimated scf accuracy    <     138.27908446 Ry

     iteration #  7     ecut=    30.00 Ry     beta= 0.70
     Davidson diagonalization with overlap

---- Real-time Memory Report at c_bands before calling an iterative solver
           801 MiB given to the printing process from OS
             0 MiB allocation reported by mallinfo(arena+hblkhd)
        116624 MiB available memory on the node where the printing process lives
------------------
     ethr =  1.00E-02,  avg # of iterations =  1.0

     negative rho (up, down):  9.537E-02 0.000E+00

     total cpu time spent up to now is       37.3 secs

     total energy              =   -2454.32987972 Ry
     estimated scf accuracy    <     126.88720952 Ry

     iteration #  8     ecut=    30.00 Ry     beta= 0.70
     Davidson diagonalization with overlap

---- Real-time Memory Report at c_bands before calling an iterative solver
           801 MiB given to the printing process from OS
             0 MiB allocation reported by mallinfo(arena+hblkhd)
        116489 MiB available memory on the node where the printing process lives
------------------
     ethr =  1.00E-02,  avg # of iterations =  3.0

     negative rho (up, down):  9.603E-02 0.000E+00

     total cpu time spent up to now is       39.1 secs

     total energy              =   -2443.29675244 Ry
     estimated scf accuracy    <     114.78658662 Ry

     iteration #  9     ecut=    30.00 Ry     beta= 0.70
     Davidson diagonalization with overlap

---- Real-time Memory Report at c_bands before calling an iterative solver
           801 MiB given to the printing process from OS
             0 MiB allocation reported by mallinfo(arena+hblkhd)
        116490 MiB available memory on the node where the printing process lives
------------------
     ethr =  1.00E-02,  avg # of iterations =  5.0

     negative rho (up, down):  9.493E-02 0.000E+00

     total cpu time spent up to now is       41.1 secs

     total energy              =   -2451.20310827 Ry
     estimated scf accuracy    <      59.25191318 Ry

     iteration # 10     ecut=    30.00 Ry     beta= 0.70
     Davidson diagonalization with overlap

---- Real-time Memory Report at c_bands before calling an iterative solver
           801 MiB given to the printing process from OS
             0 MiB allocation reported by mallinfo(arena+hblkhd)
        116491 MiB available memory on the node where the printing process lives
------------------
     ethr =  1.00E-02,  avg # of iterations =  2.0

     negative rho (up, down):  9.671E-02 0.000E+00

     total cpu time spent up to now is       42.9 secs

     total energy              =   -2472.93155322 Ry
     estimated scf accuracy    <      38.26152578 Ry

     iteration # 11     ecut=    30.00 Ry     beta= 0.70
     Davidson diagonalization with overlap

---- Real-time Memory Report at c_bands before calling an iterative solver
           801 MiB given to the printing process from OS
             0 MiB allocation reported by mallinfo(arena+hblkhd)
        116492 MiB available memory on the node where the printing process lives
------------------
     ethr =  1.00E-02,  avg # of iterations =  6.0

     negative rho (up, down):  9.618E-02 0.000E+00

     total cpu time spent up to now is       44.9 secs

     total energy              =   -2466.76201331 Ry
     estimated scf accuracy    <     189.26774304 Ry

     iteration # 12     ecut=    30.00 Ry     beta= 0.70
     Davidson diagonalization with overlap

---- Real-time Memory Report at c_bands before calling an iterative solver
           801 MiB given to the printing process from OS
             0 MiB allocation reported by mallinfo(arena+hblkhd)
        116493 MiB available memory on the node where the printing process lives
------------------
     ethr =  1.00E-02,  avg # of iterations =  4.0

     negative rho (up, down):  9.616E-02 0.000E+00

     total cpu time spent up to now is       46.7 secs

     total energy              =   -2472.02828464 Ry
     estimated scf accuracy    <     115.49927566 Ry

     iteration # 13     ecut=    30.00 Ry     beta= 0.70
     Davidson diagonalization with overlap

---- Real-time Memory Report at c_bands before calling an iterative solver
           801 MiB given to the printing process from OS
             0 MiB allocation reported by mallinfo(arena+hblkhd)
        116496 MiB available memory on the node where the printing process lives
------------------
     ethr =  1.00E-02,  avg # of iterations =  3.0

     negative rho (up, down):  9.624E-02 0.000E+00

     total cpu time spent up to now is       48.5 secs

     total energy              =   -2471.17511343 Ry
     estimated scf accuracy    <     129.15603330 Ry

     iteration # 14     ecut=    30.00 Ry     beta= 0.70
     Davidson diagonalization with overlap

---- Real-time Memory Report at c_bands before calling an iterative solver
           801 MiB given to the printing process from OS
             0 MiB allocation reported by mallinfo(arena+hblkhd)
        116495 MiB available memory on the node where the printing process lives
------------------
     ethr =  1.00E-02,  avg # of iterations =  1.0

     negative rho (up, down):  9.343E-02 0.000E+00

     total cpu time spent up to now is       50.3 secs

     total energy              =   -2446.98999254 Ry
     estimated scf accuracy    <     123.56239023 Ry

     iteration # 15     ecut=    30.00 Ry     beta= 0.70
     Davidson diagonalization with overlap

---- Real-time Memory Report at c_bands before calling an iterative solver
           801 MiB given to the printing process from OS
             0 MiB allocation reported by mallinfo(arena+hblkhd)
        116497 MiB available memory on the node where the printing process lives
------------------
     ethr =  1.00E-02,  avg # of iterations =  5.0

     negative rho (up, down):  9.347E-02 0.000E+00

     total cpu time spent up to now is       52.2 secs

     total energy              =   -2455.26123334 Ry
     estimated scf accuracy    <     117.64278966 Ry

     iteration # 16     ecut=    30.00 Ry     beta= 0.70
     Davidson diagonalization with overlap

---- Real-time Memory Report at c_bands before calling an iterative solver
           801 MiB given to the printing process from OS
             0 MiB allocation reported by mallinfo(arena+hblkhd)
        116498 MiB available memory on the node where the printing process lives
------------------
     ethr =  1.00E-02,  avg # of iterations =  2.0

     negative rho (up, down):  9.363E-02 0.000E+00

     total cpu time spent up to now is       54.0 secs

     total energy              =   -2451.50965223 Ry
     estimated scf accuracy    <      94.81349305 Ry

     iteration # 17     ecut=    30.00 Ry     beta= 0.70
     Davidson diagonalization with overlap

---- Real-time Memory Report at c_bands before calling an iterative solver
           801 MiB given to the printing process from OS
             0 MiB allocation reported by mallinfo(arena+hblkhd)
        116499 MiB available memory on the node where the printing process lives
------------------
     ethr =  1.00E-02,  avg # of iterations =  4.0

     negative rho (up, down):  9.289E-02 0.000E+00

     total cpu time spent up to now is       55.8 secs

     total energy              =   -2447.83682982 Ry
     estimated scf accuracy    <      70.65732622 Ry

     iteration # 18     ecut=    30.00 Ry     beta= 0.70
     Davidson diagonalization with overlap

---- Real-time Memory Report at c_bands before calling an iterative solver
           801 MiB given to the printing process from OS
             0 MiB allocation reported by mallinfo(arena+hblkhd)
        116499 MiB available memory on the node where the printing process lives
------------------
     ethr =  1.00E-02,  avg # of iterations =  4.0

     negative rho (up, down):  1.644E-01 0.000E+00

     total cpu time spent up to now is       57.7 secs

     total energy              =   -2542.15046841 Ry
     estimated scf accuracy    <     137.22019402 Ry

     iteration # 19     ecut=    30.00 Ry     beta= 0.70
     Davidson diagonalization with overlap

---- Real-time Memory Report at c_bands before calling an iterative solver
           801 MiB given to the printing process from OS
             0 MiB allocation reported by mallinfo(arena+hblkhd)
        116500 MiB available memory on the node where the printing process lives
------------------
     ethr =  1.00E-02,  avg # of iterations =  7.0

     negative rho (up, down):  9.478E-02 0.000E+00

     total cpu time spent up to now is       59.9 secs

     total energy              =   -2493.06740290 Ry
     estimated scf accuracy    <     632.32967234 Ry

     iteration # 20     ecut=    30.00 Ry     beta= 0.70
     Davidson diagonalization with overlap

---- Real-time Memory Report at c_bands before calling an iterative solver
           801 MiB given to the printing process from OS
             0 MiB allocation reported by mallinfo(arena+hblkhd)
        116498 MiB available memory on the node where the printing process lives
------------------
     ethr =  1.00E-02,  avg # of iterations = 11.0

     negative rho (up, down):  9.402E-02 0.000E+00

     total cpu time spent up to now is       62.0 secs

     total energy              =   -2462.84263533 Ry
     estimated scf accuracy    <     284.11982228 Ry

     iteration # 21     ecut=    30.00 Ry     beta= 0.70
     Davidson diagonalization with overlap

---- Real-time Memory Report at c_bands before calling an iterative solver
           801 MiB given to the printing process from OS
             0 MiB allocation reported by mallinfo(arena+hblkhd)
        116498 MiB available memory on the node where the printing process lives
------------------
     ethr =  1.00E-02,  avg # of iterations =  6.0

     negative rho (up, down):  9.414E-02 0.000E+00

     total cpu time spent up to now is       63.9 secs

     total energy              =   -2461.00438894 Ry
     estimated scf accuracy    <     144.82290962 Ry

     iteration # 22     ecut=    30.00 Ry     beta= 0.70
     Davidson diagonalization with overlap

---- Real-time Memory Report at c_bands before calling an iterative solver
           801 MiB given to the printing process from OS
             0 MiB allocation reported by mallinfo(arena+hblkhd)
        117281 MiB available memory on the node where the printing process lives
------------------
     ethr =  1.00E-02,  avg # of iterations =  1.0

     negative rho (up, down):  9.425E-02 0.000E+00

     total cpu time spent up to now is       65.7 secs

     total energy              =   -2456.02884678 Ry
     estimated scf accuracy    <     133.17982223 Ry

     iteration # 23     ecut=    30.00 Ry     beta= 0.70
     Davidson diagonalization with overlap

---- Real-time Memory Report at c_bands before calling an iterative solver
           801 MiB given to the printing process from OS
             0 MiB allocation reported by mallinfo(arena+hblkhd)
        117264 MiB available memory on the node where the printing process lives
------------------
     ethr =  1.00E-02,  avg # of iterations =  1.0

     negative rho (up, down):  9.430E-02 0.000E+00

     total cpu time spent up to now is       67.5 secs

     total energy              =   -2452.18009970 Ry
     estimated scf accuracy    <     122.25353097 Ry

     iteration # 24     ecut=    30.00 Ry     beta= 0.70
     Davidson diagonalization with overlap

---- Real-time Memory Report at c_bands before calling an iterative solver
           801 MiB given to the printing process from OS
             0 MiB allocation reported by mallinfo(arena+hblkhd)
        116539 MiB available memory on the node where the printing process lives
------------------
     ethr =  1.00E-02,  avg # of iterations =  6.0

     negative rho (up, down):  9.421E-02 0.000E+00

     total cpu time spent up to now is       69.3 secs

     total energy              =   -2451.53777003 Ry
     estimated scf accuracy    <      45.50991651 Ry

     iteration # 25     ecut=    30.00 Ry     beta= 0.70
     Davidson diagonalization with overlap

---- Real-time Memory Report at c_bands before calling an iterative solver
           801 MiB given to the printing process from OS
             0 MiB allocation reported by mallinfo(arena+hblkhd)
        116532 MiB available memory on the node where the printing process lives
------------------
     ethr =  1.00E-02,  avg # of iterations =  4.0

     negative rho (up, down):  9.448E-02 0.000E+00

     total cpu time spent up to now is       71.2 secs

     total energy              =   -2454.12237686 Ry
     estimated scf accuracy    <      49.87049981 Ry

     iteration # 26     ecut=    30.00 Ry     beta= 0.70
     Davidson diagonalization with overlap

---- Real-time Memory Report at c_bands before calling an iterative solver
           801 MiB given to the printing process from OS
             0 MiB allocation reported by mallinfo(arena+hblkhd)
        116472 MiB available memory on the node where the printing process lives
------------------
     ethr =  1.00E-02,  avg # of iterations =  7.0

     negative rho (up, down):  9.425E-02 0.000E+00

     total cpu time spent up to now is       73.0 secs

     total energy              =   -2458.80014567 Ry
     estimated scf accuracy    <      46.46004687 Ry

     iteration # 27     ecut=    30.00 Ry     beta= 0.70
     Davidson diagonalization with overlap

---- Real-time Memory Report at c_bands before calling an iterative solver
           801 MiB given to the printing process from OS
             0 MiB allocation reported by mallinfo(arena+hblkhd)
        116472 MiB available memory on the node where the printing process lives
------------------
     ethr =  1.00E-02,  avg # of iterations =  7.0

     negative rho (up, down):  9.448E-02 0.000E+00

     total cpu time spent up to now is       74.8 secs

     total energy              =   -2449.56527972 Ry
     estimated scf accuracy    <      62.61126564 Ry

     iteration # 28     ecut=    30.00 Ry     beta= 0.70
     Davidson diagonalization with overlap

---- Real-time Memory Report at c_bands before calling an iterative solver
           801 MiB given to the printing process from OS
             0 MiB allocation reported by mallinfo(arena+hblkhd)
        116472 MiB available memory on the node where the printing process lives
------------------
     ethr =  1.00E-02,  avg # of iterations =  3.0

     negative rho (up, down):  9.462E-02 0.000E+00

     total cpu time spent up to now is       76.6 secs

     total energy              =   -2452.40425414 Ry
     estimated scf accuracy    <      91.49127259 Ry

     iteration # 29     ecut=    30.00 Ry     beta= 0.70
     Davidson diagonalization with overlap

---- Real-time Memory Report at c_bands before calling an iterative solver
           801 MiB given to the printing process from OS
             0 MiB allocation reported by mallinfo(arena+hblkhd)
        116472 MiB available memory on the node where the printing process lives
------------------
     ethr =  1.00E-02,  avg # of iterations =  2.0

     negative rho (up, down):  9.471E-02 0.000E+00

     total cpu time spent up to now is       78.4 secs

     total energy              =   -2453.05289194 Ry
     estimated scf accuracy    <      50.87067305 Ry

     iteration # 30     ecut=    30.00 Ry     beta= 0.70
     Davidson diagonalization with overlap

---- Real-time Memory Report at c_bands before calling an iterative solver
           801 MiB given to the printing process from OS
             0 MiB allocation reported by mallinfo(arena+hblkhd)
        116473 MiB available memory on the node where the printing process lives
------------------
     ethr =  1.00E-02,  avg # of iterations =  3.0

     negative rho (up, down):  9.465E-02 0.000E+00

     total cpu time spent up to now is       80.2 secs

     total energy              =   -2453.64541212 Ry
     estimated scf accuracy    <      29.94902520 Ry

     iteration # 31     ecut=    30.00 Ry     beta= 0.70
     Davidson diagonalization with overlap

---- Real-time Memory Report at c_bands before calling an iterative solver
           801 MiB given to the printing process from OS
             0 MiB allocation reported by mallinfo(arena+hblkhd)
        116473 MiB available memory on the node where the printing process lives
------------------
     ethr =  1.00E-02,  avg # of iterations =  1.0

     negative rho (up, down):  9.469E-02 0.000E+00

     total cpu time spent up to now is       82.0 secs

     total energy              =   -2453.90341749 Ry
     estimated scf accuracy    <      40.17822423 Ry

     iteration # 32     ecut=    30.00 Ry     beta= 0.70
     Davidson diagonalization with overlap

---- Real-time Memory Report at c_bands before calling an iterative solver
           801 MiB given to the printing process from OS
             0 MiB allocation reported by mallinfo(arena+hblkhd)
        116473 MiB available memory on the node where the printing process lives
------------------
     ethr =  1.00E-02,  avg # of iterations =  1.0

     negative rho (up, down):  9.475E-02 0.000E+00

     total cpu time spent up to now is       83.8 secs

     total energy              =   -2454.06548275 Ry
     estimated scf accuracy    <      39.25002263 Ry

     iteration # 33     ecut=    30.00 Ry     beta= 0.70
     Davidson diagonalization with overlap

---- Real-time Memory Report at c_bands before calling an iterative solver
           801 MiB given to the printing process from OS
             0 MiB allocation reported by mallinfo(arena+hblkhd)
        116473 MiB available memory on the node where the printing process lives
------------------
     ethr =  1.00E-02,  avg # of iterations =  1.0

     negative rho (up, down):  9.492E-02 0.000E+00

     total cpu time spent up to now is       85.5 secs

     total energy              =   -2453.95842909 Ry
     estimated scf accuracy    <      44.44038688 Ry

     iteration # 34     ecut=    30.00 Ry     beta= 0.70
     Davidson diagonalization with overlap

---- Real-time Memory Report at c_bands before calling an iterative solver
           801 MiB given to the printing process from OS
             0 MiB allocation reported by mallinfo(arena+hblkhd)
        116473 MiB available memory on the node where the printing process lives
------------------
     ethr =  1.00E-02,  avg # of iterations =  1.0

     negative rho (up, down):  9.500E-02 0.000E+00

     total cpu time spent up to now is       87.3 secs

     total energy              =   -2453.40588270 Ry
     estimated scf accuracy    <      30.81322755 Ry

     iteration # 35     ecut=    30.00 Ry     beta= 0.70
     Davidson diagonalization with overlap

---- Real-time Memory Report at c_bands before calling an iterative solver
           801 MiB given to the printing process from OS
             0 MiB allocation reported by mallinfo(arena+hblkhd)
        116473 MiB available memory on the node where the printing process lives
------------------
     ethr =  1.00E-02,  avg # of iterations =  1.0

     negative rho (up, down):  9.513E-02 0.000E+00

     total cpu time spent up to now is       89.1 secs

     total energy              =   -2453.53948038 Ry
     estimated scf accuracy    <      32.68670717 Ry

     iteration # 36     ecut=    30.00 Ry     beta= 0.70
     Davidson diagonalization with overlap

---- Real-time Memory Report at c_bands before calling an iterative solver
           801 MiB given to the printing process from OS
             0 MiB allocation reported by mallinfo(arena+hblkhd)
        118042 MiB available memory on the node where the printing process lives
------------------
     ethr =  1.00E-02,  avg # of iterations =  1.0

     negative rho (up, down):  9.510E-02 0.000E+00

     total cpu time spent up to now is       90.9 secs

     total energy              =   -2453.32141281 Ry
     estimated scf accuracy    <      25.45984651 Ry

     iteration # 37     ecut=    30.00 Ry     beta= 0.70
     Davidson diagonalization with overlap

---- Real-time Memory Report at c_bands before calling an iterative solver
           801 MiB given to the printing process from OS
             0 MiB allocation reported by mallinfo(arena+hblkhd)
        118002 MiB available memory on the node where the printing process lives
------------------
     ethr =  1.00E-02,  avg # of iterations =  1.0

     negative rho (up, down):  9.510E-02 0.000E+00

     total cpu time spent up to now is       92.7 secs

     total energy              =   -2453.29594048 Ry
     estimated scf accuracy    <      39.23280318 Ry

     iteration # 38     ecut=    30.00 Ry     beta= 0.70
     Davidson diagonalization with overlap

---- Real-time Memory Report at c_bands before calling an iterative solver
           801 MiB given to the printing process from OS
             0 MiB allocation reported by mallinfo(arena+hblkhd)
        116559 MiB available memory on the node where the printing process lives
------------------
     ethr =  1.00E-02,  avg # of iterations =  1.0

     negative rho (up, down):  9.504E-02 0.000E+00

     total cpu time spent up to now is       94.5 secs

     total energy              =   -2452.65321993 Ry
     estimated scf accuracy    <      11.92196574 Ry

     iteration # 39     ecut=    30.00 Ry     beta= 0.70
     Davidson diagonalization with overlap

---- Real-time Memory Report at c_bands before calling an iterative solver
           801 MiB given to the printing process from OS
             0 MiB allocation reported by mallinfo(arena+hblkhd)
        116550 MiB available memory on the node where the printing process lives
------------------
     ethr =  1.00E-02,  avg # of iterations =  2.0

     negative rho (up, down):  9.501E-02 0.000E+00

     total cpu time spent up to now is       96.2 secs

     total energy              =   -2452.84423140 Ry
     estimated scf accuracy    <      80.85460551 Ry

     iteration # 40     ecut=    30.00 Ry     beta= 0.70
     Davidson diagonalization with overlap

---- Real-time Memory Report at c_bands before calling an iterative solver
           801 MiB given to the printing process from OS
             0 MiB allocation reported by mallinfo(arena+hblkhd)
        116422 MiB available memory on the node where the printing process lives
------------------
     ethr =  1.00E-02,  avg # of iterations =  2.0

     negative rho (up, down):  9.502E-02 0.000E+00

     total cpu time spent up to now is       98.0 secs

     total energy              =   -2452.74649214 Ry
     estimated scf accuracy    <      11.84550086 Ry

     iteration # 41     ecut=    30.00 Ry     beta= 0.70
     Davidson diagonalization with overlap

---- Real-time Memory Report at c_bands before calling an iterative solver
           801 MiB given to the printing process from OS
             0 MiB allocation reported by mallinfo(arena+hblkhd)
        116422 MiB available memory on the node where the printing process lives
------------------
     ethr =  1.00E-02,  avg # of iterations =  1.0

     negative rho (up, down):  9.500E-02 0.000E+00

     total cpu time spent up to now is       99.8 secs

     total energy              =   -2453.01277879 Ry
     estimated scf accuracy    <       5.71775177 Ry

     iteration # 42     ecut=    30.00 Ry     beta= 0.70
     Davidson diagonalization with overlap

---- Real-time Memory Report at c_bands before calling an iterative solver
           801 MiB given to the printing process from OS
             0 MiB allocation reported by mallinfo(arena+hblkhd)
        116423 MiB available memory on the node where the printing process lives
------------------
     ethr =  5.55E-03,  avg # of iterations =  2.0

     negative rho (up, down):  9.498E-02 0.000E+00

     total cpu time spent up to now is      101.5 secs

     total energy              =   -2452.77328600 Ry
     estimated scf accuracy    <      17.08331250 Ry

     iteration # 43     ecut=    30.00 Ry     beta= 0.70
     Davidson diagonalization with overlap

---- Real-time Memory Report at c_bands before calling an iterative solver
           801 MiB given to the printing process from OS
             0 MiB allocation reported by mallinfo(arena+hblkhd)
        116423 MiB available memory on the node where the printing process lives
------------------
     ethr =  5.55E-03,  avg # of iterations =  1.0

     negative rho (up, down):  9.500E-02 0.000E+00

     total cpu time spent up to now is      103.3 secs

     total energy              =   -2452.85418146 Ry
     estimated scf accuracy    <      63.87571744 Ry

     iteration # 44     ecut=    30.00 Ry     beta= 0.70
     Davidson diagonalization with overlap

---- Real-time Memory Report at c_bands before calling an iterative solver
           801 MiB given to the printing process from OS
             0 MiB allocation reported by mallinfo(arena+hblkhd)
        116423 MiB available memory on the node where the printing process lives
------------------
     ethr =  5.55E-03,  avg # of iterations =  1.0

     negative rho (up, down):  9.500E-02 0.000E+00

     total cpu time spent up to now is      105.1 secs

     total energy              =   -2453.03190709 Ry
     estimated scf accuracy    <       1.21960635 Ry

     iteration # 45     ecut=    30.00 Ry     beta= 0.70
     Davidson diagonalization with overlap

---- Real-time Memory Report at c_bands before calling an iterative solver
           801 MiB given to the printing process from OS
             0 MiB allocation reported by mallinfo(arena+hblkhd)
        116936 MiB available memory on the node where the printing process lives
------------------
     ethr =  1.18E-03,  avg # of iterations =  1.0

     negative rho (up, down):  9.502E-02 0.000E+00

     total cpu time spent up to now is      107.0 secs

     total energy              =   -2453.03397819 Ry
     estimated scf accuracy    <       0.13870173 Ry

     iteration # 46     ecut=    30.00 Ry     beta= 0.70
     Davidson diagonalization with overlap

---- Real-time Memory Report at c_bands before calling an iterative solver
           801 MiB given to the printing process from OS
             0 MiB allocation reported by mallinfo(arena+hblkhd)
        116922 MiB available memory on the node where the printing process lives
------------------
     ethr =  1.35E-04,  avg # of iterations =  2.0

     negative rho (up, down):  9.502E-02 0.000E+00

     total cpu time spent up to now is      110.9 secs

     total energy              =   -2453.02260360 Ry
     estimated scf accuracy    <       4.88330150 Ry

     iteration # 47     ecut=    30.00 Ry     beta= 0.70
     Davidson diagonalization with overlap

---- Real-time Memory Report at c_bands before calling an iterative solver
           801 MiB given to the printing process from OS
             0 MiB allocation reported by mallinfo(arena+hblkhd)
        116901 MiB available memory on the node where the printing process lives
------------------
     ethr =  1.35E-04,  avg # of iterations =  1.0

     negative rho (up, down):  9.502E-02 0.000E+00

     total cpu time spent up to now is      113.1 secs

     total energy              =   -2453.03597446 Ry
     estimated scf accuracy    <       2.11147346 Ry

     iteration # 48     ecut=    30.00 Ry     beta= 0.70
     Davidson diagonalization with overlap

---- Real-time Memory Report at c_bands before calling an iterative solver
           801 MiB given to the printing process from OS
             0 MiB allocation reported by mallinfo(arena+hblkhd)
        116886 MiB available memory on the node where the printing process lives
------------------
     ethr =  1.35E-04,  avg # of iterations =  1.0

     negative rho (up, down):  9.502E-02 0.000E+00

     total cpu time spent up to now is      115.0 secs

     total energy              =   -2453.03249986 Ry
     estimated scf accuracy    <       0.76959117 Ry

     iteration # 49     ecut=    30.00 Ry     beta= 0.70
     Davidson diagonalization with overlap

---- Real-time Memory Report at c_bands before calling an iterative solver
           801 MiB given to the printing process from OS
             0 MiB allocation reported by mallinfo(arena+hblkhd)
        116888 MiB available memory on the node where the printing process lives
------------------
     ethr =  1.35E-04,  avg # of iterations =  1.0

     negative rho (up, down):  9.503E-02 0.000E+00

     total cpu time spent up to now is      116.8 secs

     total energy              =   -2453.04584454 Ry
     estimated scf accuracy    <       1.52820445 Ry

     iteration # 50     ecut=    30.00 Ry     beta= 0.70
     Davidson diagonalization with overlap

---- Real-time Memory Report at c_bands before calling an iterative solver
           801 MiB given to the printing process from OS
             0 MiB allocation reported by mallinfo(arena+hblkhd)
        116890 MiB available memory on the node where the printing process lives
------------------
     ethr =  1.35E-04,  avg # of iterations =  1.0
     Minimization algorithm failed to find Fermi energy: reverting to bisection
     Possible cause: smearing is larger than the electronic band-gap.

     negative rho (up, down):  9.503E-02 0.000E+00

     total cpu time spent up to now is      118.6 secs

     total energy              =   -2453.04399945 Ry
     estimated scf accuracy    <       1.14531972 Ry

     iteration # 51     ecut=    30.00 Ry     beta= 0.70
     Davidson diagonalization with overlap

---- Real-time Memory Report at c_bands before calling an iterative solver
           801 MiB given to the printing process from OS
             0 MiB allocation reported by mallinfo(arena+hblkhd)
        116891 MiB available memory on the node where the printing process lives
------------------
     ethr =  1.35E-04,  avg # of iterations =  1.0

     negative rho (up, down):  9.503E-02 0.000E+00

     total cpu time spent up to now is      120.5 secs

     total energy              =   -2453.03782031 Ry
     estimated scf accuracy    <       0.86528719 Ry

     iteration # 52     ecut=    30.00 Ry     beta= 0.70
     Davidson diagonalization with overlap

---- Real-time Memory Report at c_bands before calling an iterative solver
           801 MiB given to the printing process from OS
             0 MiB allocation reported by mallinfo(arena+hblkhd)
        116890 MiB available memory on the node where the printing process lives
------------------
     ethr =  1.35E-04,  avg # of iterations =  1.0

     negative rho (up, down):  9.504E-02 0.000E+00

     total cpu time spent up to now is      122.3 secs

     total energy              =   -2453.05052739 Ry
     estimated scf accuracy    <       0.34243035 Ry

     iteration # 53     ecut=    30.00 Ry     beta= 0.70
     Davidson diagonalization with overlap

---- Real-time Memory Report at c_bands before calling an iterative solver
           801 MiB given to the printing process from OS
             0 MiB allocation reported by mallinfo(arena+hblkhd)
        116892 MiB available memory on the node where the printing process lives
------------------
     ethr =  1.35E-04,  avg # of iterations =  1.0

     negative rho (up, down):  9.503E-02 0.000E+00

     total cpu time spent up to now is      124.1 secs

     total energy              =   -2453.03852769 Ry
     estimated scf accuracy    <       2.22981282 Ry

     iteration # 54     ecut=    30.00 Ry     beta= 0.70
     Davidson diagonalization with overlap

---- Real-time Memory Report at c_bands before calling an iterative solver
           801 MiB given to the printing process from OS
             0 MiB allocation reported by mallinfo(arena+hblkhd)
        116887 MiB available memory on the node where the printing process lives
------------------
     ethr =  1.35E-04,  avg # of iterations =  1.0

     negative rho (up, down):  9.502E-02 0.000E+00

     total cpu time spent up to now is      125.9 secs

     total energy              =   -2453.03685298 Ry
     estimated scf accuracy    <       1.01874725 Ry

     iteration # 55     ecut=    30.00 Ry     beta= 0.70
     Davidson diagonalization with overlap

---- Real-time Memory Report at c_bands before calling an iterative solver
           801 MiB given to the printing process from OS
             0 MiB allocation reported by mallinfo(arena+hblkhd)
        116875 MiB available memory on the node where the printing process lives
------------------
     ethr =  1.35E-04,  avg # of iterations =  1.0

     negative rho (up, down):  9.501E-02 0.000E+00

     total cpu time spent up to now is      127.7 secs

     total energy              =   -2453.03040819 Ry
     estimated scf accuracy    <       0.26834506 Ry

     iteration # 56     ecut=    30.00 Ry     beta= 0.70
     Davidson diagonalization with overlap

---- Real-time Memory Report at c_bands before calling an iterative solver
           801 MiB given to the printing process from OS
             0 MiB allocation reported by mallinfo(arena+hblkhd)
        117645 MiB available memory on the node where the printing process lives
------------------
     ethr =  1.35E-04,  avg # of iterations =  1.0

     negative rho (up, down):  9.501E-02 0.000E+00

     total cpu time spent up to now is      129.8 secs

     total energy              =   -2453.02935945 Ry
     estimated scf accuracy    <       3.42200267 Ry

     iteration # 57     ecut=    30.00 Ry     beta= 0.70
     Davidson diagonalization with overlap

---- Real-time Memory Report at c_bands before calling an iterative solver
           801 MiB given to the printing process from OS
             0 MiB allocation reported by mallinfo(arena+hblkhd)
        116896 MiB available memory on the node where the printing process lives
------------------
     ethr =  1.35E-04,  avg # of iterations =  1.0

     negative rho (up, down):  9.502E-02 0.000E+00

     total cpu time spent up to now is      131.6 secs

     total energy              =   -2453.03627515 Ry
     estimated scf accuracy    <       0.39950687 Ry

     iteration # 58     ecut=    30.00 Ry     beta= 0.70
     Davidson diagonalization with overlap

---- Real-time Memory Report at c_bands before calling an iterative solver
           801 MiB given to the printing process from OS
             0 MiB allocation reported by mallinfo(arena+hblkhd)
        116774 MiB available memory on the node where the printing process lives
------------------
     ethr =  1.35E-04,  avg # of iterations =  1.0

     negative rho (up, down):  9.502E-02 0.000E+00

     total cpu time spent up to now is      133.3 secs

     total energy              =   -2453.04386941 Ry
     estimated scf accuracy    <       0.36165512 Ry

     iteration # 59     ecut=    30.00 Ry     beta= 0.70
     Davidson diagonalization with overlap

---- Real-time Memory Report at c_bands before calling an iterative solver
           801 MiB given to the printing process from OS
             0 MiB allocation reported by mallinfo(arena+hblkhd)
        116697 MiB available memory on the node where the printing process lives
------------------
     ethr =  1.35E-04,  avg # of iterations =  1.0

     negative rho (up, down):  9.501E-02 0.000E+00

     total cpu time spent up to now is      135.1 secs

     total energy              =   -2453.04582496 Ry
     estimated scf accuracy    <       0.02950702 Ry

     iteration # 60     ecut=    30.00 Ry     beta= 0.70
     Davidson diagonalization with overlap

---- Real-time Memory Report at c_bands before calling an iterative solver
           801 MiB given to the printing process from OS
             0 MiB allocation reported by mallinfo(arena+hblkhd)
        116704 MiB available memory on the node where the printing process lives
------------------
     ethr =  2.86E-05,  avg # of iterations =  1.0

     negative rho (up, down):  9.500E-02 0.000E+00

     total cpu time spent up to now is      136.9 secs

     total energy              =   -2453.04492234 Ry
     estimated scf accuracy    <       1.24386383 Ry

     iteration # 61     ecut=    30.00 Ry     beta= 0.70
     Davidson diagonalization with overlap

---- Real-time Memory Report at c_bands before calling an iterative solver
           801 MiB given to the printing process from OS
             0 MiB allocation reported by mallinfo(arena+hblkhd)
        116697 MiB available memory on the node where the printing process lives
------------------
     ethr =  2.86E-05,  avg # of iterations =  1.0

     negative rho (up, down):  9.500E-02 0.000E+00

     total cpu time spent up to now is      138.7 secs

     total energy              =   -2453.04490424 Ry
     estimated scf accuracy    <       0.42566599 Ry

     iteration # 62     ecut=    30.00 Ry     beta= 0.70
     Davidson diagonalization with overlap

---- Real-time Memory Report at c_bands before calling an iterative solver
           801 MiB given to the printing process from OS
             0 MiB allocation reported by mallinfo(arena+hblkhd)
        116687 MiB available memory on the node where the printing process lives
------------------
     ethr =  2.86E-05,  avg # of iterations =  1.0

     negative rho (up, down):  9.500E-02 0.000E+00

     total cpu time spent up to now is      140.5 secs

     total energy              =   -2453.04764298 Ry
     estimated scf accuracy    <       0.14794876 Ry

     iteration # 63     ecut=    30.00 Ry     beta= 0.70
     Davidson diagonalization with overlap

---- Real-time Memory Report at c_bands before calling an iterative solver
           801 MiB given to the printing process from OS
             0 MiB allocation reported by mallinfo(arena+hblkhd)
        116673 MiB available memory on the node where the printing process lives
------------------
     ethr =  2.86E-05,  avg # of iterations =  1.0
     Minimization algorithm failed to find Fermi energy: reverting to bisection
     Possible cause: smearing is larger than the electronic band-gap.

     negative rho (up, down):  9.500E-02 0.000E+00

     total cpu time spent up to now is      142.2 secs

     total energy              =   -2453.04753163 Ry
     estimated scf accuracy    <       0.05504386 Ry

     iteration # 64     ecut=    30.00 Ry     beta= 0.70
     Davidson diagonalization with overlap

---- Real-time Memory Report at c_bands before calling an iterative solver
           801 MiB given to the printing process from OS
             0 MiB allocation reported by mallinfo(arena+hblkhd)
        116662 MiB available memory on the node where the printing process lives
------------------
     ethr =  2.86E-05,  avg # of iterations =  1.0

     negative rho (up, down):  9.500E-02 0.000E+00

     total cpu time spent up to now is      144.0 secs

     total energy              =   -2453.04706670 Ry
     estimated scf accuracy    <       0.32445136 Ry

     iteration # 65     ecut=    30.00 Ry     beta= 0.70
     Davidson diagonalization with overlap

---- Real-time Memory Report at c_bands before calling an iterative solver
           801 MiB given to the printing process from OS
             0 MiB allocation reported by mallinfo(arena+hblkhd)
        116666 MiB available memory on the node where the printing process lives
------------------
     ethr =  2.86E-05,  avg # of iterations =  1.0
     Minimization algorithm failed to find Fermi energy: reverting to bisection
     Possible cause: smearing is larger than the electronic band-gap.

     negative rho (up, down):  9.500E-02 0.000E+00

     total cpu time spent up to now is      145.7 secs

     total energy              =   -2453.04639660 Ry
     estimated scf accuracy    <       0.06823444 Ry

     iteration # 66     ecut=    30.00 Ry     beta= 0.70
     Davidson diagonalization with overlap

---- Real-time Memory Report at c_bands before calling an iterative solver
           801 MiB given to the printing process from OS
             0 MiB allocation reported by mallinfo(arena+hblkhd)
        116664 MiB available memory on the node where the printing process lives
------------------
     ethr =  2.86E-05,  avg # of iterations =  1.0

     negative rho (up, down):  9.500E-02 0.000E+00

     total cpu time spent up to now is      147.5 secs

     total energy              =   -2453.04674853 Ry
     estimated scf accuracy    <       0.23307364 Ry

     iteration # 67     ecut=    30.00 Ry     beta= 0.70
     Davidson diagonalization with overlap

---- Real-time Memory Report at c_bands before calling an iterative solver
           801 MiB given to the printing process from OS
             0 MiB allocation reported by mallinfo(arena+hblkhd)
        117439 MiB available memory on the node where the printing process lives
------------------
     ethr =  2.86E-05,  avg # of iterations =  1.0

     negative rho (up, down):  9.500E-02 0.000E+00

     total cpu time spent up to now is      149.3 secs

     total energy              =   -2453.04773772 Ry
     estimated scf accuracy    <       0.04621231 Ry

     iteration # 68     ecut=    30.00 Ry     beta= 0.70
     Davidson diagonalization with overlap

---- Real-time Memory Report at c_bands before calling an iterative solver
           801 MiB given to the printing process from OS
             0 MiB allocation reported by mallinfo(arena+hblkhd)
        117405 MiB available memory on the node where the printing process lives
------------------
     ethr =  2.86E-05,  avg # of iterations =  1.0
     Minimization algorithm failed to find Fermi energy: reverting to bisection
     Possible cause: smearing is larger than the electronic band-gap.

     negative rho (up, down):  9.500E-02 0.000E+00

     total cpu time spent up to now is      151.1 secs

     total energy              =   -2453.04741417 Ry
     estimated scf accuracy    <       0.07324097 Ry

     iteration # 69     ecut=    30.00 Ry     beta= 0.70
     Davidson diagonalization with overlap

---- Real-time Memory Report at c_bands before calling an iterative solver
           801 MiB given to the printing process from OS
             0 MiB allocation reported by mallinfo(arena+hblkhd)
        116685 MiB available memory on the node where the printing process lives
------------------
     ethr =  2.86E-05,  avg # of iterations =  1.0
     Minimization algorithm failed to find Fermi energy: reverting to bisection
     Possible cause: smearing is larger than the electronic band-gap.

     negative rho (up, down):  9.500E-02 0.000E+00

     total cpu time spent up to now is      152.8 secs

     total energy              =   -2453.04821237 Ry
     estimated scf accuracy    <       0.02443817 Ry

     iteration # 70     ecut=    30.00 Ry     beta= 0.70
     Davidson diagonalization with overlap

---- Real-time Memory Report at c_bands before calling an iterative solver
           801 MiB given to the printing process from OS
             0 MiB allocation reported by mallinfo(arena+hblkhd)
        116621 MiB available memory on the node where the printing process lives
------------------
     ethr =  2.37E-05,  avg # of iterations =  1.0
     Minimization algorithm failed to find Fermi energy: reverting to bisection
     Possible cause: smearing is larger than the electronic band-gap.

     negative rho (up, down):  9.500E-02 0.000E+00

     total cpu time spent up to now is      154.6 secs

     total energy              =   -2453.04763083 Ry
     estimated scf accuracy    <       0.20204059 Ry

     iteration # 71     ecut=    30.00 Ry     beta= 0.70
     Davidson diagonalization with overlap

---- Real-time Memory Report at c_bands before calling an iterative solver
           801 MiB given to the printing process from OS
             0 MiB allocation reported by mallinfo(arena+hblkhd)
        117457 MiB available memory on the node where the printing process lives
------------------
     ethr =  2.37E-05,  avg # of iterations =  1.0

     negative rho (up, down):  9.500E-02 0.000E+00

     total cpu time spent up to now is      156.4 secs

     total energy              =   -2453.04560193 Ry
     estimated scf accuracy    <       0.13189872 Ry

     iteration # 72     ecut=    30.00 Ry     beta= 0.70
     Davidson diagonalization with overlap

---- Real-time Memory Report at c_bands before calling an iterative solver
           801 MiB given to the printing process from OS
             0 MiB allocation reported by mallinfo(arena+hblkhd)
        117009 MiB available memory on the node where the printing process lives
------------------
     ethr =  2.37E-05,  avg # of iterations =  1.0

     negative rho (up, down):  9.500E-02 0.000E+00

     total cpu time spent up to now is      158.1 secs

     total energy              =   -2453.04590237 Ry
     estimated scf accuracy    <       1.22924688 Ry

     iteration # 73     ecut=    30.00 Ry     beta= 0.70
     Davidson diagonalization with overlap

---- Real-time Memory Report at c_bands before calling an iterative solver
           801 MiB given to the printing process from OS
             0 MiB allocation reported by mallinfo(arena+hblkhd)
        116721 MiB available memory on the node where the printing process lives
------------------
     ethr =  2.37E-05,  avg # of iterations =  1.0
     Minimization algorithm failed to find Fermi energy: reverting to bisection
     Possible cause: smearing is larger than the electronic band-gap.

     negative rho (up, down):  9.500E-02 0.000E+00

     total cpu time spent up to now is      159.9 secs

     total energy              =   -2453.04757184 Ry
     estimated scf accuracy    <       0.02792781 Ry

     iteration # 74     ecut=    30.00 Ry     beta= 0.70
     Davidson diagonalization with overlap

---- Real-time Memory Report at c_bands before calling an iterative solver
           801 MiB given to the printing process from OS
             0 MiB allocation reported by mallinfo(arena+hblkhd)
        116655 MiB available memory on the node where the printing process lives
------------------
     ethr =  2.37E-05,  avg # of iterations =  1.0

     negative rho (up, down):  9.500E-02 0.000E+00

     total cpu time spent up to now is      161.6 secs

     total energy              =   -2453.04795596 Ry
     estimated scf accuracy    <       0.00875585 Ry

     iteration # 75     ecut=    30.00 Ry     beta= 0.70
     Davidson diagonalization with overlap

---- Real-time Memory Report at c_bands before calling an iterative solver
           801 MiB given to the printing process from OS
             0 MiB allocation reported by mallinfo(arena+hblkhd)
        116656 MiB available memory on the node where the printing process lives
------------------
     ethr =  8.50E-06,  avg # of iterations =  1.0

     negative rho (up, down):  9.500E-02 0.000E+00

     total cpu time spent up to now is      163.4 secs

     total energy              =   -2453.04818990 Ry
     estimated scf accuracy    <       0.00173543 Ry

     iteration # 76     ecut=    30.00 Ry     beta= 0.70
     Davidson diagonalization with overlap

---- Real-time Memory Report at c_bands before calling an iterative solver
           801 MiB given to the printing process from OS
             0 MiB allocation reported by mallinfo(arena+hblkhd)
        116657 MiB available memory on the node where the printing process lives
------------------
     ethr =  1.68E-06,  avg # of iterations =  1.0

     negative rho (up, down):  9.500E-02 0.000E+00

     total cpu time spent up to now is      165.2 secs

     total energy              =   -2453.04804374 Ry
     estimated scf accuracy    <       0.00301383 Ry

     iteration # 77     ecut=    30.00 Ry     beta= 0.70
     Davidson diagonalization with overlap

---- Real-time Memory Report at c_bands before calling an iterative solver
           801 MiB given to the printing process from OS
             0 MiB allocation reported by mallinfo(arena+hblkhd)
        116655 MiB available memory on the node where the printing process lives
------------------
     ethr =  1.68E-06,  avg # of iterations =  1.0

     negative rho (up, down):  9.500E-02 0.000E+00

     total cpu time spent up to now is      166.9 secs

     total energy              =   -2453.04792651 Ry
     estimated scf accuracy    <       0.03286956 Ry

     iteration # 78     ecut=    30.00 Ry     beta= 0.70
     Davidson diagonalization with overlap

---- Real-time Memory Report at c_bands before calling an iterative solver
           801 MiB given to the printing process from OS
             0 MiB allocation reported by mallinfo(arena+hblkhd)
        116656 MiB available memory on the node where the printing process lives
------------------
     ethr =  1.68E-06,  avg # of iterations =  1.0

     negative rho (up, down):  9.500E-02 0.000E+00

     total cpu time spent up to now is      168.7 secs

     total energy              =   -2453.04738934 Ry
     estimated scf accuracy    <       0.00536987 Ry

     iteration # 79     ecut=    30.00 Ry     beta= 0.70
     Davidson diagonalization with overlap

---- Real-time Memory Report at c_bands before calling an iterative solver
           801 MiB given to the printing process from OS
             0 MiB allocation reported by mallinfo(arena+hblkhd)
        116656 MiB available memory on the node where the printing process lives
------------------
     ethr =  1.68E-06,  avg # of iterations =  1.0

     negative rho (up, down):  9.500E-02 0.000E+00

     total cpu time spent up to now is      170.5 secs

     total energy              =   -2453.04888613 Ry
     estimated scf accuracy    <       0.17461030 Ry

     iteration # 80     ecut=    30.00 Ry     beta= 0.70
     Davidson diagonalization with overlap

---- Real-time Memory Report at c_bands before calling an iterative solver
           801 MiB given to the printing process from OS
             0 MiB allocation reported by mallinfo(arena+hblkhd)
        116656 MiB available memory on the node where the printing process lives
------------------
     ethr =  1.68E-06,  avg # of iterations =  1.0

     negative rho (up, down):  9.500E-02 0.000E+00

     total cpu time spent up to now is      172.2 secs

     total energy              =   -2453.04687168 Ry
     estimated scf accuracy    <       0.62741468 Ry

     iteration # 81     ecut=    30.00 Ry     beta= 0.70
     Davidson diagonalization with overlap

---- Real-time Memory Report at c_bands before calling an iterative solver
           801 MiB given to the printing process from OS
             0 MiB allocation reported by mallinfo(arena+hblkhd)
        116655 MiB available memory on the node where the printing process lives
------------------
     ethr =  1.68E-06,  avg # of iterations =  1.0
     Minimization algorithm failed to find Fermi energy: reverting to bisection
     Possible cause: smearing is larger than the electronic band-gap.

     negative rho (up, down):  9.500E-02 0.000E+00

     total cpu time spent up to now is      174.0 secs

     total energy              =   -2453.04822261 Ry
     estimated scf accuracy    <       0.02760018 Ry

     iteration # 82     ecut=    30.00 Ry     beta= 0.70
     Davidson diagonalization with overlap

---- Real-time Memory Report at c_bands before calling an iterative solver
           801 MiB given to the printing process from OS
             0 MiB allocation reported by mallinfo(arena+hblkhd)
        116684 MiB available memory on the node where the printing process lives
------------------
     ethr =  1.68E-06,  avg # of iterations =  1.0

     negative rho (up, down):  9.500E-02 0.000E+00

     total cpu time spent up to now is      175.7 secs

     total energy              =   -2453.04820384 Ry
     estimated scf accuracy    <       0.01248937 Ry

     iteration # 83     ecut=    30.00 Ry     beta= 0.70
     Davidson diagonalization with overlap

---- Real-time Memory Report at c_bands before calling an iterative solver
           801 MiB given to the printing process from OS
             0 MiB allocation reported by mallinfo(arena+hblkhd)
        116684 MiB available memory on the node where the printing process lives
------------------
     ethr =  1.68E-06,  avg # of iterations =  1.0

     negative rho (up, down):  9.500E-02 0.000E+00

     total cpu time spent up to now is      177.5 secs

     total energy              =   -2453.04815918 Ry
     estimated scf accuracy    <       0.00525082 Ry

     iteration # 84     ecut=    30.00 Ry     beta= 0.70
     Davidson diagonalization with overlap

---- Real-time Memory Report at c_bands before calling an iterative solver
           801 MiB given to the printing process from OS
             0 MiB allocation reported by mallinfo(arena+hblkhd)
        116684 MiB available memory on the node where the printing process lives
------------------
     ethr =  1.68E-06,  avg # of iterations =  1.0
     Minimization algorithm failed to find Fermi energy: reverting to bisection
     Possible cause: smearing is larger than the electronic band-gap.

     negative rho (up, down):  9.500E-02 0.000E+00

     total cpu time spent up to now is      179.3 secs

     total energy              =   -2453.04813351 Ry
     estimated scf accuracy    <       0.00948435 Ry

     iteration # 85     ecut=    30.00 Ry     beta= 0.70
     Davidson diagonalization with overlap

---- Real-time Memory Report at c_bands before calling an iterative solver
           801 MiB given to the printing process from OS
             0 MiB allocation reported by mallinfo(arena+hblkhd)
        116683 MiB available memory on the node where the printing process lives
------------------
     ethr =  1.68E-06,  avg # of iterations =  1.0

     negative rho (up, down):  9.500E-02 0.000E+00

     total cpu time spent up to now is      181.1 secs

     total energy              =   -2453.04786902 Ry
     estimated scf accuracy    <       0.00434630 Ry

     iteration # 86     ecut=    30.00 Ry     beta= 0.70
     Davidson diagonalization with overlap

---- Real-time Memory Report at c_bands before calling an iterative solver
           801 MiB given to the printing process from OS
             0 MiB allocation reported by mallinfo(arena+hblkhd)
        116684 MiB available memory on the node where the printing process lives
------------------
     ethr =  1.68E-06,  avg # of iterations =  1.0

     negative rho (up, down):  9.500E-02 0.000E+00

     total cpu time spent up to now is      182.9 secs

     total energy              =   -2453.04773227 Ry
     estimated scf accuracy    <       0.08739241 Ry

     iteration # 87     ecut=    30.00 Ry     beta= 0.70
     Davidson diagonalization with overlap

---- Real-time Memory Report at c_bands before calling an iterative solver
           801 MiB given to the printing process from OS
             0 MiB allocation reported by mallinfo(arena+hblkhd)
        117459 MiB available memory on the node where the printing process lives
------------------
     ethr =  1.68E-06,  avg # of iterations =  1.0

     negative rho (up, down):  9.500E-02 0.000E+00

     total cpu time spent up to now is      184.6 secs

     total energy              =   -2453.04823423 Ry
     estimated scf accuracy    <       0.00091860 Ry

     iteration # 88     ecut=    30.00 Ry     beta= 0.70
     Davidson diagonalization with overlap

---- Real-time Memory Report at c_bands before calling an iterative solver
           801 MiB given to the printing process from OS
             0 MiB allocation reported by mallinfo(arena+hblkhd)
        116742 MiB available memory on the node where the printing process lives
------------------
     ethr =  8.92E-07,  avg # of iterations =  1.0

     negative rho (up, down):  9.500E-02 0.000E+00

     total cpu time spent up to now is      186.4 secs

     total energy              =   -2453.04819740 Ry
     estimated scf accuracy    <       0.00372487 Ry

     iteration # 89     ecut=    30.00 Ry     beta= 0.70
     Davidson diagonalization with overlap

---- Real-time Memory Report at c_bands before calling an iterative solver
           801 MiB given to the printing process from OS
             0 MiB allocation reported by mallinfo(arena+hblkhd)
        116736 MiB available memory on the node where the printing process lives
------------------
     ethr =  8.92E-07,  avg # of iterations =  1.0

     negative rho (up, down):  9.500E-02 0.000E+00

     total cpu time spent up to now is      188.4 secs

     total energy              =   -2453.04823528 Ry
     estimated scf accuracy    <       0.00122612 Ry

     iteration # 90     ecut=    30.00 Ry     beta= 0.70
     Davidson diagonalization with overlap

---- Real-time Memory Report at c_bands before calling an iterative solver
           801 MiB given to the printing process from OS
             0 MiB allocation reported by mallinfo(arena+hblkhd)
        116671 MiB available memory on the node where the printing process lives
------------------
     ethr =  8.92E-07,  avg # of iterations =  1.0
     Minimization algorithm failed to find Fermi energy: reverting to bisection
     Possible cause: smearing is larger than the electronic band-gap.

     negative rho (up, down):  9.500E-02 0.000E+00

     total cpu time spent up to now is      191.9 secs

     total energy              =   -2453.04825319 Ry
     estimated scf accuracy    <       0.00117906 Ry

     iteration # 91     ecut=    30.00 Ry     beta= 0.70
     Davidson diagonalization with overlap

---- Real-time Memory Report at c_bands before calling an iterative solver
           801 MiB given to the printing process from OS
             0 MiB allocation reported by mallinfo(arena+hblkhd)
        116672 MiB available memory on the node where the printing process lives
------------------
     ethr =  8.92E-07,  avg # of iterations =  1.0
     Minimization algorithm failed to find Fermi energy: reverting to bisection
     Possible cause: smearing is larger than the electronic band-gap.

     negative rho (up, down):  9.500E-02 0.000E+00

     total cpu time spent up to now is      193.6 secs

     total energy              =   -2453.04820652 Ry
     estimated scf accuracy    <       0.00682121 Ry

     iteration # 92     ecut=    30.00 Ry     beta= 0.70
     Davidson diagonalization with overlap

---- Real-time Memory Report at c_bands before calling an iterative solver
           801 MiB given to the printing process from OS
             0 MiB allocation reported by mallinfo(arena+hblkhd)
        116672 MiB available memory on the node where the printing process lives
------------------
     ethr =  8.92E-07,  avg # of iterations =  1.0

     negative rho (up, down):  9.500E-02 0.000E+00

     total cpu time spent up to now is      195.4 secs

     total energy              =   -2453.04764664 Ry
     estimated scf accuracy    <       0.15506801 Ry

     iteration # 93     ecut=    30.00 Ry     beta= 0.70
     Davidson diagonalization with overlap

---- Real-time Memory Report at c_bands before calling an iterative solver
           801 MiB given to the printing process from OS
             0 MiB allocation reported by mallinfo(arena+hblkhd)
        116672 MiB available memory on the node where the printing process lives
------------------
     ethr =  8.92E-07,  avg # of iterations =  1.0
     Minimization algorithm failed to find Fermi energy: reverting to bisection
     Possible cause: smearing is larger than the electronic band-gap.

     negative rho (up, down):  9.500E-02 0.000E+00

     total cpu time spent up to now is      197.2 secs

     total energy              =   -2453.04785896 Ry
     estimated scf accuracy    <       0.42617830 Ry

     iteration # 94     ecut=    30.00 Ry     beta= 0.70
     Davidson diagonalization with overlap

---- Real-time Memory Report at c_bands before calling an iterative solver
           801 MiB given to the printing process from OS
             0 MiB allocation reported by mallinfo(arena+hblkhd)
        116672 MiB available memory on the node where the printing process lives
------------------
     ethr =  8.92E-07,  avg # of iterations =  1.0
     Minimization algorithm failed to find Fermi energy: reverting to bisection
     Possible cause: smearing is larger than the electronic band-gap.

     negative rho (up, down):  9.500E-02 0.000E+00

     total cpu time spent up to now is      199.3 secs

     total energy              =   -2453.04821213 Ry
     estimated scf accuracy    <       0.00205189 Ry

     iteration # 95     ecut=    30.00 Ry     beta= 0.70
     Davidson diagonalization with overlap

---- Real-time Memory Report at c_bands before calling an iterative solver
           801 MiB given to the printing process from OS
             0 MiB allocation reported by mallinfo(arena+hblkhd)
        116663 MiB available memory on the node where the printing process lives
------------------
     ethr =  8.92E-07,  avg # of iterations =  1.0

     negative rho (up, down):  9.500E-02 0.000E+00

     total cpu time spent up to now is      202.0 secs

     total energy              =   -2453.04821083 Ry
     estimated scf accuracy    <       0.00351292 Ry

     iteration # 96     ecut=    30.00 Ry     beta= 0.70
     Davidson diagonalization with overlap

---- Real-time Memory Report at c_bands before calling an iterative solver
           801 MiB given to the printing process from OS
             0 MiB allocation reported by mallinfo(arena+hblkhd)
        116658 MiB available memory on the node where the printing process lives
------------------
     ethr =  8.92E-07,  avg # of iterations =  1.0

     negative rho (up, down):  9.500E-02 0.000E+00

     total cpu time spent up to now is      203.8 secs

     total energy              =   -2453.04817474 Ry
     estimated scf accuracy    <       0.02414414 Ry

     iteration # 97     ecut=    30.00 Ry     beta= 0.70
     Davidson diagonalization with overlap

---- Real-time Memory Report at c_bands before calling an iterative solver
           801 MiB given to the printing process from OS
             0 MiB allocation reported by mallinfo(arena+hblkhd)
        117443 MiB available memory on the node where the printing process lives
------------------
     ethr =  8.92E-07,  avg # of iterations =  1.0

     negative rho (up, down):  9.500E-02 0.000E+00

     total cpu time spent up to now is      205.6 secs

     total energy              =   -2453.04824868 Ry
     estimated scf accuracy    <       0.00073459 Ry

     iteration # 98     ecut=    30.00 Ry     beta= 0.70
     Davidson diagonalization with overlap

---- Real-time Memory Report at c_bands before calling an iterative solver
           801 MiB given to the printing process from OS
             0 MiB allocation reported by mallinfo(arena+hblkhd)
        117418 MiB available memory on the node where the printing process lives
------------------
     ethr =  7.13E-07,  avg # of iterations =  1.0

     negative rho (up, down):  9.500E-02 0.000E+00

     total cpu time spent up to now is      207.3 secs

     total energy              =   -2453.04822354 Ry
     estimated scf accuracy    <       0.00471600 Ry

     iteration # 99     ecut=    30.00 Ry     beta= 0.70
     Davidson diagonalization with overlap

---- Real-time Memory Report at c_bands before calling an iterative solver
           801 MiB given to the printing process from OS
             0 MiB allocation reported by mallinfo(arena+hblkhd)
        116717 MiB available memory on the node where the printing process lives
------------------
     ethr =  7.13E-07,  avg # of iterations =  1.0

     negative rho (up, down):  9.500E-02 0.000E+00

     total cpu time spent up to now is      209.2 secs

     total energy              =   -2453.04817847 Ry
     estimated scf accuracy    <       0.00033186 Ry

     iteration #100     ecut=    30.00 Ry     beta= 0.70
     Davidson diagonalization with overlap

---- Real-time Memory Report at c_bands before calling an iterative solver
           801 MiB given to the printing process from OS
             0 MiB allocation reported by mallinfo(arena+hblkhd)
        116703 MiB available memory on the node where the printing process lives
------------------
     ethr =  3.22E-07,  avg # of iterations =  1.0
     Minimization algorithm failed to find Fermi energy: reverting to bisection
     Possible cause: smearing is larger than the electronic band-gap.

     negative rho (up, down):  9.500E-02 0.000E+00

     total cpu time spent up to now is      211.0 secs

     total energy              =   -2453.04828575 Ry
     estimated scf accuracy    <       0.08520197 Ry

     End of self-consistent calculation

     convergence NOT achieved after 100 iterations: stopping

     Writing config to output data dir new_calculations/myprefix.save/
     Message from routine punch:
     wavefunctions written to file
 
     init_run     :    309.78s CPU     17.46s WALL (       1 calls)
     electrons    :   5703.48s CPU    193.13s WALL (       1 calls)

     Called by init_run:
     wfcinit      :    146.46s CPU      6.78s WALL (       1 calls)
     wfcinit:atom :      0.02s CPU      0.00s WALL (       1 calls)
     wfcinit:wfcr :    146.25s CPU      6.77s WALL (       1 calls)
     potinit      :     55.49s CPU      2.75s WALL (       1 calls)
     hinit0       :     81.31s CPU      6.45s WALL (       1 calls)

     Called by electrons:
     c_bands      :   1357.75s CPU     43.81s WALL (     100 calls)
     sum_band     :    926.84s CPU     35.61s WALL (     100 calls)
     v_of_rho     :     84.14s CPU      2.86s WALL (     101 calls)
     v_h          :      5.96s CPU      0.20s WALL (     101 calls)
     v_xc         :     77.92s CPU      2.66s WALL (     101 calls)
     newd         :    790.50s CPU     26.59s WALL (     101 calls)
     PAW_pot      :   2524.23s CPU     83.93s WALL (     101 calls)
     mix_rho      :     21.88s CPU      0.72s WALL (     100 calls)

     Called by c_bands:
     init_us_2    :      2.73s CPU      0.09s WALL (     201 calls)
     init_us_2:cp :      2.43s CPU      0.08s WALL (     201 calls)
     regterg      :   1334.01s CPU     43.01s WALL (     100 calls)

     Called by sum_band:
     sum_band:wei :      0.68s CPU      0.02s WALL (     100 calls)
     sum_band:loo :    251.81s CPU      8.05s WALL (     100 calls)
     sum_band:buf :      0.07s CPU      0.00s WALL (     100 calls)
     sum_band:ini :      1.48s CPU      0.05s WALL (     100 calls)
     sum_band:cal :      1.00s CPU      0.03s WALL (     100 calls)
     sum_band:bec :      0.48s CPU      0.02s WALL (     100 calls)
     addusdens    :    660.23s CPU     27.07s WALL (     100 calls)
     addusd:skk   :      1.03s CPU      0.03s WALL (     400 calls)
     addusd:dgemm :     49.30s CPU      7.15s WALL (     400 calls)
     addusd:qvan2 :    594.13s CPU     19.16s WALL (     400 calls)

     Called by *egterg:
     rdiaghg      :     37.29s CPU      1.23s WALL (     302 calls)
     regterg:over :      1.46s CPU      0.05s WALL (     202 calls)
     regterg:upda :      2.27s CPU      0.08s WALL (     202 calls)
     regterg:last :      3.30s CPU      0.11s WALL (     137 calls)
     h_psi        :   1420.78s CPU     47.80s WALL (     303 calls)
     s_psi        :      0.99s CPU      0.03s WALL (     303 calls)
     g_psi        :      0.26s CPU      0.01s WALL (     202 calls)

     Called by h_psi:
     h_psi:calbec :      3.27s CPU      0.11s WALL (     303 calls)
     vloc_psi     :   1413.96s CPU     47.58s WALL (     303 calls)
     add_vuspsi   :      1.69s CPU      0.06s WALL (     303 calls)

     General routines
     calbec       :      3.68s CPU      0.12s WALL (     403 calls)
     fft          :     82.05s CPU      4.35s WALL (    1111 calls)
     ffts         :     36.15s CPU      1.76s WALL (     201 calls)
     fftw         :   1528.02s CPU     51.05s WALL (   16710 calls)
     interpolate  :     40.85s CPU      1.92s WALL (     101 calls)
     davcio       :      0.00s CPU      0.11s WALL (      19 calls)
 
     Parallel routines

     PAW routines
     PAW_pot      :   2524.23s CPU     83.93s WALL (     101 calls)
     PAW_symme    :      8.56s CPU      0.29s WALL (     201 calls)
 
     PWSCF        :      1h40m CPU   3m31.63s WALL

 
   This run was terminated on:   0:24:27  20May2023            

=------------------------------------------------------------------------------=
   JOB DONE.
=------------------------------------------------------------------------------=
