
     Program PWSCF v.7.0 starts on 20May2023 at 23:50:36 

     This program is part of the open-source Quantum ESPRESSO suite
     for quantum simulation of materials; please cite
         "P. Giannozzi et al., J. Phys.:Condens. Matter 21 395502 (2009);
         "P. Giannozzi et al., J. Phys.:Condens. Matter 29 465901 (2017);
         "P. Giannozzi et al., J. Chem. Phys. 152 154105 (2020);
          URL http://www.quantum-espresso.org", 
     in publications or presentations arising from this work. More details at
     http://www.quantum-espresso.org/quote

     Parallel version (MPI & OpenMP), running on      32 processor cores
     Number of MPI processes:                 1
     Threads/MPI process:                    32

     MPI processes distributed on     1 nodes
     169172 MiB available memory on the printing compute node when the environment starts
 
     Reading input from espresso_7782.pwi
Warning: card &CELL ignored
Warning: card / ignored

     Current dimensions of program PWSCF are:
     Max number of different atomic species (ntypx) = 10
     Max number of k-points (npk) =  40000
     Max angular momentum in pseudopotentials (lmaxx) =  4
     file Fe.pbe-spn-kjpaw_psl.0.2.1.UPF: wavefunction(s)  3D renormalized

     gamma-point specific algorithms are used
     Message from routine setup:
     using ibrav=0 with symmetry is DISCOURAGED, use correct ibrav instead

     Subspace diagonalization in iterative solution of the eigenvalue problem:
     a serial algorithm will be used

 
     G-vector sticks info
     --------------------
     sticks:   dense  smooth     PW     G-vecs:    dense   smooth      PW
     Sum        2763    1381    347               108411    38259    4813
 
     Using Slab Decomposition
 


     bravais-lattice index     =            0
     lattice parameter (alat)  =      12.0777  a.u.
     unit-cell volume          =    1725.0208 (a.u.)^3
     number of atoms/cell      =           19
     number of atomic types    =            3
     number of electrons       =       302.00
     number of Kohn-Sham states=          181
     kinetic-energy cutoff     =      30.0000  Ry
     charge density cutoff     =     240.0000  Ry
     scf convergence threshold =      1.0E-06
     mixing beta               =       0.7000
     number of iterations used =            8  plain     mixing
     Exchange-correlation= SLA  PW   PBX  PBC
                           (   1   4   3   4   0   0   0)

     celldm(1)=  12.077671  celldm(2)=   0.000000  celldm(3)=   0.000000
     celldm(4)=   0.000000  celldm(5)=   0.000000  celldm(6)=   0.000000

     crystal axes: (cart. coord. in units of alat)
               a(1) = (   1.000000   0.000000   0.000000 )  
               a(2) = (   0.122411   0.992479   0.000000 )  
               a(3) = (   0.122411   0.108241   0.986559 )  

     reciprocal axes: (cart. coord. in units 2 pi/alat)
               b(1) = (  1.000000 -0.123339 -0.110547 )  
               b(2) = (  0.000000  1.007578 -0.110547 )  
               b(3) = (  0.000000  0.000000  1.013624 )  


     PseudoPot. # 1 for Sm read from file:
     /home/pragov/projects/rrg-bengioy-ad/pragov/crystal_structure_design/SSSP/Sm.GGA-PBE-paw-v1.0.UPF
     MD5 check sum: 886f70968969f895acf876f5617e0641
     Pseudo is Projector augmented-wave + core cor, Zval = 16.0
     Generated using ATOMPAW code
     Shape of augmentation charge: BESSEL
     Using radial grid of 1107 points,  8 beta functions with: 
                l(1) =   0
                l(2) =   0
                l(3) =   1
                l(4) =   1
                l(5) =   2
                l(6) =   2
                l(7) =   3
                l(8) =   3
     Q(r) pseudized with 0 coefficients 


     PseudoPot. # 2 for Mn read from file:
     /home/pragov/projects/rrg-bengioy-ad/pragov/crystal_structure_design/SSSP/mn_pbe_v1.5.uspp.F.UPF
     MD5 check sum: 82ef2b46521d7a7d9e736dc3972e4928
     Pseudo is Ultrasoft + core correction, Zval = 15.0
     Generated by new atomic code, or converted to UPF format
     Using radial grid of  859 points,  6 beta functions with: 
                l(1) =   0
                l(2) =   0
                l(3) =   1
                l(4) =   1
                l(5) =   2
                l(6) =   2
     Q(r) pseudized with  8 coefficients,  rinner =    0.950   0.950   0.950
                                                       0.950   0.950

     PseudoPot. # 3 for Fe read from file:
     /home/pragov/projects/rrg-bengioy-ad/pragov/crystal_structure_design/SSSP/Fe.pbe-spn-kjpaw_psl.0.2.1.UPF
     MD5 check sum: e86618425769142926afa95317d90200
     Pseudo is Projector augmented-wave + core cor, Zval = 16.0
     Generated using "atomic" code by A. Dal Corso  v.5.0.99 svn rev. 10869
     Shape of augmentation charge: PSQ
     Using radial grid of 1191 points,  6 beta functions with: 
                l(1) =   0
                l(2) =   0
                l(3) =   1
                l(4) =   1
                l(5) =   2
                l(6) =   2
     Q(r) pseudized with 0 coefficients 


     atomic species   valence    mass     pseudopotential
        Sm            16.00   150.36000     Sm( 1.00)
        Mn            15.00    54.93804     Mn( 1.00)
        Fe            16.00    55.84500     Fe( 1.00)

      2 Sym. Ops., with inversion, found


                                    s                        frac. trans.

      isym =  1     identity                                     

 cryst.   s( 1) = (     1          0          0      )
                  (     0          1          0      )
                  (     0          0          1      )

 cart.    s( 1) = (  1.0000000 -0.0000000  0.0000000 )
                  (  0.0000000  1.0000000 -0.0000000 )
                  (  0.0000000  0.0000000  1.0000000 )


      isym =  2     inversion                                    

 cryst.   s( 2) = (    -1          0          0      )
                  (     0         -1          0      )
                  (     0          0         -1      )

 cart.    s( 2) = ( -1.0000000  0.0000000 -0.0000000 )
                  (  0.0000000 -1.0000000  0.0000000 )
                  (  0.0000000  0.0000000 -1.0000000 )


   Cartesian axes

     site n.     atom                  positions (alat units)
         1           Sm  tau(   1) = (   0.8134554   0.7192887   0.6446879  )
         2           Sm  tau(   2) = (   0.4313671   0.3814315   0.3418714  )
         3           Mn  tau(   3) = (   1.1258261   0.9954990   0.8922512  )
         4           Mn  tau(   4) = (   0.1189963   0.1052211   0.0943082  )
         5           Fe  tau(   5) = (   0.0612056   0.0541204   0.4932797  )
         6           Fe  tau(   6) = (   0.5000000   0.0000000   0.0000000  )
         7           Fe  tau(   7) = (   0.0612056   0.4962397   0.0000000  )
         8           Fe  tau(   8) = (   0.7470412   0.2860753   0.0000000  )
         9           Fe  tau(   9) = (   1.1224113   0.7376038   0.2843688  )
        10           Fe  tau(  10) = (   0.3753700   0.0770411   0.7021905  )
        11           Fe  tau(  11) = (   0.1224112   0.3631163   0.7021905  )
        12           Fe  tau(  12) = (   0.7470412   0.0311996   0.2843688  )
        13           Fe  tau(  13) = (   0.3753701   0.7064042   0.0000000  )
        14           Fe  tau(  14) = (   0.4845184   0.4284299   0.8361199  )
        15           Fe  tau(  15) = (   0.9305660   0.3734149   0.3346863  )
        16           Fe  tau(  16) = (   0.4845184   0.8778575   0.3346863  )
        17           Fe  tau(  17) = (   0.7603041   0.6722903   0.1504394  )
        18           Fe  tau(  18) = (   0.3142564   0.7273052   0.6518730  )
        19           Fe  tau(  19) = (   0.7603041   0.2228627   0.6518730  )

   Crystallographic axes

     site n.     atom                  positions (cryst. coord.)
         1           Sm  tau(   1) = (  0.6534710  0.6534710  0.6534710  )
         2           Sm  tau(   2) = (  0.3465290  0.3465290  0.3465290  )
         3           Mn  tau(   3) = (  0.9044070  0.9044070  0.9044070  )
         4           Mn  tau(   4) = (  0.0955930  0.0955930  0.0955930  )
         5           Fe  tau(   5) = ( -0.0000000  0.0000000  0.5000000  )
         6           Fe  tau(   6) = (  0.5000000  0.0000000  0.0000000  )
         7           Fe  tau(   7) = (  0.0000000  0.5000000  0.0000000  )
         8           Fe  tau(   8) = (  0.7117570  0.2882430  0.0000000  )
         9           Fe  tau(   9) = (  1.0000000  0.7117570  0.2882430  )
        10           Fe  tau(  10) = (  0.2882430  0.0000000  0.7117570  )
        11           Fe  tau(  11) = ( -0.0000000  0.2882430  0.7117570  )
        12           Fe  tau(  12) = (  0.7117570 -0.0000000  0.2882430  )
        13           Fe  tau(  13) = (  0.2882430  0.7117570  0.0000000  )
        14           Fe  tau(  14) = (  0.3392460  0.3392460  0.8475110  )
        15           Fe  tau(  15) = (  0.8475110  0.3392460  0.3392460  )
        16           Fe  tau(  16) = (  0.3392460  0.8475110  0.3392460  )
        17           Fe  tau(  17) = (  0.6607540  0.6607540  0.1524890  )
        18           Fe  tau(  18) = (  0.1524890  0.6607540  0.6607540  )
        19           Fe  tau(  19) = (  0.6607540  0.1524890  0.6607540  )

     number of k points=     1  Methfessel-Paxton smearing, width (Ry)=  0.0010
                       cart. coord. in units 2pi/alat
        k(    1) = (   0.0000000   0.0000000   0.0000000), wk =   2.0000000

                       cryst. coord.
        k(    1) = (   0.0000000   0.0000000   0.0000000), wk =   2.0000000

     Dense  grid:    54206 G-vectors     FFT dimensions: (  60,  60,  60)

     Smooth grid:    19130 G-vectors     FFT dimensions: (  45,  45,  45)

     Dynamical RAM for                 wfc:       6.61 MB

     Dynamical RAM for     wfc (w. buffer):       6.61 MB

     Dynamical RAM for           str. fact:       2.48 MB

     Dynamical RAM for           local pot:       0.00 MB

     Dynamical RAM for          nlocal pot:      13.51 MB

     Dynamical RAM for                qrad:       8.96 MB

     Dynamical RAM for          rho,v,vnew:       7.43 MB

     Dynamical RAM for               rhoin:       2.48 MB

     Dynamical RAM for            rho*nmix:      13.23 MB

     Dynamical RAM for           G-vectors:       3.25 MB

     Dynamical RAM for          h,s,v(r/c):       3.00 MB

     Dynamical RAM for          <psi|beta>:       0.51 MB

     Dynamical RAM for                 psi:      13.22 MB

     Dynamical RAM for                hpsi:      13.22 MB

     Dynamical RAM for                spsi:      13.22 MB

     Dynamical RAM for      wfcinit/wfcrot:      22.67 MB

     Dynamical RAM for           addusdens:     471.46 MB

     Dynamical RAM for          addusforce:     495.21 MB

     Dynamical RAM for         addusstress:     481.38 MB

     Estimated static dynamical RAM per process >      56.25 MB

     Estimated max dynamical RAM per process >     564.70 MB

     Check: negative core charge=   -0.000272

     Initial potential from superposition of free atoms

     starting charge     300.9821, renormalised to     302.0000
     Starting wfcs are  285 randomized atomic wfcs
     Checking if some PAW data can be deallocated... 

     total cpu time spent up to now is        8.4 secs

     Self-consistent Calculation

     iteration #  1     ecut=    30.00 Ry     beta= 0.70
     Davidson diagonalization with overlap

---- Real-time Memory Report at c_bands before calling an iterative solver
           809 MiB given to the printing process from OS
             0 MiB allocation reported by mallinfo(arena+hblkhd)
        168751 MiB available memory on the node where the printing process lives
------------------
     ethr =  1.00E-02,  avg # of iterations =  2.0

     total cpu time spent up to now is       12.3 secs

     total energy              =   -6517.36813885 Ry
     estimated scf accuracy    <      46.79647930 Ry

     iteration #  2     ecut=    30.00 Ry     beta= 0.70
     Davidson diagonalization with overlap

---- Real-time Memory Report at c_bands before calling an iterative solver
          1143 MiB given to the printing process from OS
             0 MiB allocation reported by mallinfo(arena+hblkhd)
        168668 MiB available memory on the node where the printing process lives
------------------
     ethr =  1.00E-02,  avg # of iterations =  6.0

     total cpu time spent up to now is       17.1 secs

     total energy              =   -6536.19278175 Ry
     estimated scf accuracy    <    1494.88573963 Ry

     iteration #  3     ecut=    30.00 Ry     beta= 0.70
     Davidson diagonalization with overlap

---- Real-time Memory Report at c_bands before calling an iterative solver
          1148 MiB given to the printing process from OS
             0 MiB allocation reported by mallinfo(arena+hblkhd)
        168661 MiB available memory on the node where the printing process lives
------------------
     ethr =  1.00E-02,  avg # of iterations =  7.0

     total cpu time spent up to now is       21.9 secs

     total energy              =   -6575.00609494 Ry
     estimated scf accuracy    <     324.39159262 Ry

     iteration #  4     ecut=    30.00 Ry     beta= 0.70
     Davidson diagonalization with overlap

---- Real-time Memory Report at c_bands before calling an iterative solver
          1148 MiB given to the printing process from OS
             0 MiB allocation reported by mallinfo(arena+hblkhd)
        168663 MiB available memory on the node where the printing process lives
------------------
     ethr =  1.00E-02,  avg # of iterations =  2.0

     total cpu time spent up to now is       25.6 secs

     total energy              =   -6574.49353566 Ry
     estimated scf accuracy    <     231.58027491 Ry

     iteration #  5     ecut=    30.00 Ry     beta= 0.70
     Davidson diagonalization with overlap

---- Real-time Memory Report at c_bands before calling an iterative solver
          1148 MiB given to the printing process from OS
             0 MiB allocation reported by mallinfo(arena+hblkhd)
        168667 MiB available memory on the node where the printing process lives
------------------
     ethr =  1.00E-02,  avg # of iterations =  2.0

     total cpu time spent up to now is       29.3 secs

     total energy              =   -6573.39452439 Ry
     estimated scf accuracy    <     204.35586667 Ry

     iteration #  6     ecut=    30.00 Ry     beta= 0.70
     Davidson diagonalization with overlap

---- Real-time Memory Report at c_bands before calling an iterative solver
          1148 MiB given to the printing process from OS
             0 MiB allocation reported by mallinfo(arena+hblkhd)
        168667 MiB available memory on the node where the printing process lives
------------------
     ethr =  1.00E-02,  avg # of iterations =  1.0

     total cpu time spent up to now is       32.9 secs

     total energy              =   -6573.23383177 Ry
     estimated scf accuracy    <     172.70312142 Ry

     iteration #  7     ecut=    30.00 Ry     beta= 0.70
     Davidson diagonalization with overlap

---- Real-time Memory Report at c_bands before calling an iterative solver
          1148 MiB given to the printing process from OS
             0 MiB allocation reported by mallinfo(arena+hblkhd)
        168670 MiB available memory on the node where the printing process lives
------------------
     ethr =  1.00E-02,  avg # of iterations =  1.0

     total cpu time spent up to now is       36.5 secs

     total energy              =   -6574.53656569 Ry
     estimated scf accuracy    <     165.66005418 Ry

     iteration #  8     ecut=    30.00 Ry     beta= 0.70
     Davidson diagonalization with overlap

---- Real-time Memory Report at c_bands before calling an iterative solver
          1149 MiB given to the printing process from OS
             0 MiB allocation reported by mallinfo(arena+hblkhd)
        168673 MiB available memory on the node where the printing process lives
------------------
     ethr =  1.00E-02,  avg # of iterations =  1.0

     total cpu time spent up to now is       40.0 secs

     total energy              =   -6576.61406224 Ry
     estimated scf accuracy    <     194.44243726 Ry

     iteration #  9     ecut=    30.00 Ry     beta= 0.70
     Davidson diagonalization with overlap

---- Real-time Memory Report at c_bands before calling an iterative solver
          1150 MiB given to the printing process from OS
             0 MiB allocation reported by mallinfo(arena+hblkhd)
        168679 MiB available memory on the node where the printing process lives
------------------
     ethr =  1.00E-02,  avg # of iterations =  1.0

     total cpu time spent up to now is       44.1 secs

     total energy              =   -6577.27494875 Ry
     estimated scf accuracy    <     206.51862081 Ry

     iteration # 10     ecut=    30.00 Ry     beta= 0.70
     Davidson diagonalization with overlap

---- Real-time Memory Report at c_bands before calling an iterative solver
          1151 MiB given to the printing process from OS
             0 MiB allocation reported by mallinfo(arena+hblkhd)
        168679 MiB available memory on the node where the printing process lives
------------------
     ethr =  1.00E-02,  avg # of iterations =  1.0

     negative rho (up, down):  3.560E-01 0.000E+00

     total cpu time spent up to now is       47.6 secs

     total energy              =   -6486.90621544 Ry
     estimated scf accuracy    <     202.95356229 Ry

     iteration # 11     ecut=    30.00 Ry     beta= 0.70
     Davidson diagonalization with overlap

---- Real-time Memory Report at c_bands before calling an iterative solver
          1151 MiB given to the printing process from OS
             0 MiB allocation reported by mallinfo(arena+hblkhd)
        168678 MiB available memory on the node where the printing process lives
------------------
     ethr =  1.00E-02,  avg # of iterations =  5.0

     negative rho (up, down):  3.020E-02 0.000E+00

     total cpu time spent up to now is       52.0 secs

     total energy              =   -6606.05523535 Ry
     estimated scf accuracy    <     395.09285431 Ry

     iteration # 12     ecut=    30.00 Ry     beta= 0.70
     Davidson diagonalization with overlap

---- Real-time Memory Report at c_bands before calling an iterative solver
          1151 MiB given to the printing process from OS
             0 MiB allocation reported by mallinfo(arena+hblkhd)
        168678 MiB available memory on the node where the printing process lives
------------------
     ethr =  1.00E-02,  avg # of iterations =  6.0

     negative rho (up, down):  1.907E-03 0.000E+00

     total cpu time spent up to now is       56.4 secs

     total energy              =   -6595.21836036 Ry
     estimated scf accuracy    <     307.46741295 Ry

     iteration # 13     ecut=    30.00 Ry     beta= 0.70
     Davidson diagonalization with overlap

---- Real-time Memory Report at c_bands before calling an iterative solver
          1151 MiB given to the printing process from OS
             0 MiB allocation reported by mallinfo(arena+hblkhd)
        168680 MiB available memory on the node where the printing process lives
------------------
     ethr =  1.00E-02,  avg # of iterations =  2.0

     negative rho (up, down):  7.009E-04 0.000E+00

     total cpu time spent up to now is       60.2 secs

     total energy              =   -6595.56826223 Ry
     estimated scf accuracy    <     214.68126399 Ry

     iteration # 14     ecut=    30.00 Ry     beta= 0.70
     Davidson diagonalization with overlap

---- Real-time Memory Report at c_bands before calling an iterative solver
          1151 MiB given to the printing process from OS
             0 MiB allocation reported by mallinfo(arena+hblkhd)
        168681 MiB available memory on the node where the printing process lives
------------------
     ethr =  1.00E-02,  avg # of iterations =  2.0

     negative rho (up, down):  1.121E-03 0.000E+00

     total cpu time spent up to now is       63.9 secs

     total energy              =   -6580.27529301 Ry
     estimated scf accuracy    <     171.27055388 Ry

     iteration # 15     ecut=    30.00 Ry     beta= 0.70
     Davidson diagonalization with overlap

---- Real-time Memory Report at c_bands before calling an iterative solver
          1151 MiB given to the printing process from OS
             0 MiB allocation reported by mallinfo(arena+hblkhd)
        168680 MiB available memory on the node where the printing process lives
------------------
     ethr =  1.00E-02,  avg # of iterations =  3.0

     negative rho (up, down):  7.320E-04 0.000E+00

     total cpu time spent up to now is       67.7 secs

     total energy              =   -6566.88580245 Ry
     estimated scf accuracy    <     164.55758571 Ry

     iteration # 16     ecut=    30.00 Ry     beta= 0.70
     Davidson diagonalization with overlap

---- Real-time Memory Report at c_bands before calling an iterative solver
          1151 MiB given to the printing process from OS
             0 MiB allocation reported by mallinfo(arena+hblkhd)
        168677 MiB available memory on the node where the printing process lives
------------------
     ethr =  1.00E-02,  avg # of iterations =  4.0

     total cpu time spent up to now is       71.9 secs

     total energy              =   -6562.02986170 Ry
     estimated scf accuracy    <     204.74910154 Ry

     iteration # 17     ecut=    30.00 Ry     beta= 0.70
     Davidson diagonalization with overlap

---- Real-time Memory Report at c_bands before calling an iterative solver
          1151 MiB given to the printing process from OS
             0 MiB allocation reported by mallinfo(arena+hblkhd)
        168677 MiB available memory on the node where the printing process lives
------------------
     ethr =  1.00E-02,  avg # of iterations =  3.0

     negative rho (up, down):  1.656E-03 0.000E+00

     total cpu time spent up to now is       76.5 secs

     total energy              =   -6562.85125441 Ry
     estimated scf accuracy    <     457.40165954 Ry

     iteration # 18     ecut=    30.00 Ry     beta= 0.70
     Davidson diagonalization with overlap

---- Real-time Memory Report at c_bands before calling an iterative solver
          1151 MiB given to the printing process from OS
             0 MiB allocation reported by mallinfo(arena+hblkhd)
        168678 MiB available memory on the node where the printing process lives
------------------
     ethr =  1.00E-02,  avg # of iterations =  4.0

     negative rho (up, down):  1.971E-03 0.000E+00

     total cpu time spent up to now is       81.1 secs

     total energy              =   -6572.00599310 Ry
     estimated scf accuracy    <     253.62777256 Ry

     iteration # 19     ecut=    30.00 Ry     beta= 0.70
     Davidson diagonalization with overlap

---- Real-time Memory Report at c_bands before calling an iterative solver
          1151 MiB given to the printing process from OS
             0 MiB allocation reported by mallinfo(arena+hblkhd)
        168681 MiB available memory on the node where the printing process lives
------------------
     ethr =  1.00E-02,  avg # of iterations =  3.0

     negative rho (up, down):  2.560E-03 0.000E+00

     total cpu time spent up to now is       84.9 secs

     total energy              =   -6505.77798239 Ry
     estimated scf accuracy    <     174.31662126 Ry

     iteration # 20     ecut=    30.00 Ry     beta= 0.70
     Davidson diagonalization with overlap

---- Real-time Memory Report at c_bands before calling an iterative solver
          1151 MiB given to the printing process from OS
             0 MiB allocation reported by mallinfo(arena+hblkhd)
        168682 MiB available memory on the node where the printing process lives
------------------
     ethr =  1.00E-02,  avg # of iterations =  7.0

     negative rho (up, down):  9.206E-04 0.000E+00

     total cpu time spent up to now is       90.1 secs

     total energy              =   -6503.84965255 Ry
     estimated scf accuracy    <    1406.87675188 Ry

     iteration # 21     ecut=    30.00 Ry     beta= 0.70
     Davidson diagonalization with overlap

---- Real-time Memory Report at c_bands before calling an iterative solver
          1151 MiB given to the printing process from OS
             0 MiB allocation reported by mallinfo(arena+hblkhd)
        168686 MiB available memory on the node where the printing process lives
------------------
     ethr =  1.00E-02,  avg # of iterations =  6.0

     total cpu time spent up to now is       95.1 secs

     total energy              =   -6552.92636440 Ry
     estimated scf accuracy    <     399.63832823 Ry

     iteration # 22     ecut=    30.00 Ry     beta= 0.70
     Davidson diagonalization with overlap

---- Real-time Memory Report at c_bands before calling an iterative solver
          1151 MiB given to the printing process from OS
             0 MiB allocation reported by mallinfo(arena+hblkhd)
        168686 MiB available memory on the node where the printing process lives
------------------
     ethr =  1.00E-02,  avg # of iterations =  5.0

     total cpu time spent up to now is       99.6 secs

     total energy              =   -6554.95535138 Ry
     estimated scf accuracy    <     273.87713433 Ry

     iteration # 23     ecut=    30.00 Ry     beta= 0.70
     Davidson diagonalization with overlap

---- Real-time Memory Report at c_bands before calling an iterative solver
          1151 MiB given to the printing process from OS
             0 MiB allocation reported by mallinfo(arena+hblkhd)
        168687 MiB available memory on the node where the printing process lives
------------------
     ethr =  1.00E-02,  avg # of iterations =  3.0

     total cpu time spent up to now is      103.7 secs

     total energy              =   -6561.43089802 Ry
     estimated scf accuracy    <     108.85643870 Ry

     iteration # 24     ecut=    30.00 Ry     beta= 0.70
     Davidson diagonalization with overlap

---- Real-time Memory Report at c_bands before calling an iterative solver
          1151 MiB given to the printing process from OS
             0 MiB allocation reported by mallinfo(arena+hblkhd)
        168687 MiB available memory on the node where the printing process lives
------------------
     ethr =  1.00E-02,  avg # of iterations =  3.0

     total cpu time spent up to now is      107.6 secs

     total energy              =   -6556.85316729 Ry
     estimated scf accuracy    <     244.51906803 Ry

     iteration # 25     ecut=    30.00 Ry     beta= 0.70
     Davidson diagonalization with overlap

---- Real-time Memory Report at c_bands before calling an iterative solver
          1151 MiB given to the printing process from OS
             0 MiB allocation reported by mallinfo(arena+hblkhd)
        168688 MiB available memory on the node where the printing process lives
------------------
     ethr =  1.00E-02,  avg # of iterations =  4.0

     total cpu time spent up to now is      112.4 secs

     total energy              =   -6557.26890207 Ry
     estimated scf accuracy    <     177.68983345 Ry

     iteration # 26     ecut=    30.00 Ry     beta= 0.70
     Davidson diagonalization with overlap

---- Real-time Memory Report at c_bands before calling an iterative solver
          1151 MiB given to the printing process from OS
             0 MiB allocation reported by mallinfo(arena+hblkhd)
        168684 MiB available memory on the node where the printing process lives
------------------
     ethr =  1.00E-02,  avg # of iterations =  5.0

     total cpu time spent up to now is      116.6 secs

     total energy              =   -6555.77742228 Ry
     estimated scf accuracy    <     208.96137776 Ry

     iteration # 27     ecut=    30.00 Ry     beta= 0.70
     Davidson diagonalization with overlap

---- Real-time Memory Report at c_bands before calling an iterative solver
          1151 MiB given to the printing process from OS
             0 MiB allocation reported by mallinfo(arena+hblkhd)
        168685 MiB available memory on the node where the printing process lives
------------------
     ethr =  1.00E-02,  avg # of iterations =  5.0

     total cpu time spent up to now is      120.6 secs

     total energy              =   -6559.61000871 Ry
     estimated scf accuracy    <     251.07864229 Ry

     iteration # 28     ecut=    30.00 Ry     beta= 0.70
     Davidson diagonalization with overlap

---- Real-time Memory Report at c_bands before calling an iterative solver
          1151 MiB given to the printing process from OS
             0 MiB allocation reported by mallinfo(arena+hblkhd)
        168686 MiB available memory on the node where the printing process lives
------------------
     ethr =  1.00E-02,  avg # of iterations =  2.0

     total cpu time spent up to now is      124.3 secs

     total energy              =   -6555.84697836 Ry
     estimated scf accuracy    <     133.58728990 Ry

     iteration # 29     ecut=    30.00 Ry     beta= 0.70
     Davidson diagonalization with overlap

---- Real-time Memory Report at c_bands before calling an iterative solver
          1151 MiB given to the printing process from OS
             0 MiB allocation reported by mallinfo(arena+hblkhd)
        168687 MiB available memory on the node where the printing process lives
------------------
     ethr =  1.00E-02,  avg # of iterations =  4.0

     negative rho (up, down):  8.618E-04 0.000E+00

     total cpu time spent up to now is      128.7 secs

     total energy              =   -6554.15968531 Ry
     estimated scf accuracy    <     386.65433222 Ry

     iteration # 30     ecut=    30.00 Ry     beta= 0.70
     Davidson diagonalization with overlap

---- Real-time Memory Report at c_bands before calling an iterative solver
          1151 MiB given to the printing process from OS
             0 MiB allocation reported by mallinfo(arena+hblkhd)
        168686 MiB available memory on the node where the printing process lives
------------------
     ethr =  1.00E-02,  avg # of iterations =  3.0

     negative rho (up, down):  6.092E-04 0.000E+00

     total cpu time spent up to now is      132.6 secs

     total energy              =   -6561.16950279 Ry
     estimated scf accuracy    <     210.14703519 Ry

     iteration # 31     ecut=    30.00 Ry     beta= 0.70
     Davidson diagonalization with overlap

---- Real-time Memory Report at c_bands before calling an iterative solver
          1151 MiB given to the printing process from OS
             0 MiB allocation reported by mallinfo(arena+hblkhd)
        168687 MiB available memory on the node where the printing process lives
------------------
     ethr =  1.00E-02,  avg # of iterations =  3.0

     negative rho (up, down):  2.940E-04 0.000E+00

     total cpu time spent up to now is      136.5 secs

     total energy              =   -6561.79028349 Ry
     estimated scf accuracy    <     155.28122228 Ry

     iteration # 32     ecut=    30.00 Ry     beta= 0.70
     Davidson diagonalization with overlap

---- Real-time Memory Report at c_bands before calling an iterative solver
          1151 MiB given to the printing process from OS
             0 MiB allocation reported by mallinfo(arena+hblkhd)
        168685 MiB available memory on the node where the printing process lives
------------------
     ethr =  1.00E-02,  avg # of iterations =  4.0

     negative rho (up, down):  1.758E-03 0.000E+00

     total cpu time spent up to now is      140.5 secs

     total energy              =   -6543.63482560 Ry
     estimated scf accuracy    <     340.41361228 Ry

     iteration # 33     ecut=    30.00 Ry     beta= 0.70
     Davidson diagonalization with overlap

---- Real-time Memory Report at c_bands before calling an iterative solver
          1151 MiB given to the printing process from OS
             0 MiB allocation reported by mallinfo(arena+hblkhd)
        168687 MiB available memory on the node where the printing process lives
------------------
     ethr =  1.00E-02,  avg # of iterations =  5.0

     negative rho (up, down):  1.379E-03 0.000E+00

     total cpu time spent up to now is      144.9 secs

     total energy              =   -6557.53836841 Ry
     estimated scf accuracy    <     344.07387249 Ry

     iteration # 34     ecut=    30.00 Ry     beta= 0.70
     Davidson diagonalization with overlap

---- Real-time Memory Report at c_bands before calling an iterative solver
          1151 MiB given to the printing process from OS
             0 MiB allocation reported by mallinfo(arena+hblkhd)
        168687 MiB available memory on the node where the printing process lives
------------------
     ethr =  1.00E-02,  avg # of iterations =  5.0

     negative rho (up, down):  7.837E-04 0.000E+00

     total cpu time spent up to now is      149.3 secs

     total energy              =   -6552.30113282 Ry
     estimated scf accuracy    <     277.32103381 Ry

     iteration # 35     ecut=    30.00 Ry     beta= 0.70
     Davidson diagonalization with overlap

---- Real-time Memory Report at c_bands before calling an iterative solver
          1151 MiB given to the printing process from OS
             0 MiB allocation reported by mallinfo(arena+hblkhd)
        168686 MiB available memory on the node where the printing process lives
------------------
     ethr =  1.00E-02,  avg # of iterations =  4.0

     total cpu time spent up to now is      153.6 secs

     total energy              =   -6554.79147983 Ry
     estimated scf accuracy    <     340.81561574 Ry

     iteration # 36     ecut=    30.00 Ry     beta= 0.70
     Davidson diagonalization with overlap

---- Real-time Memory Report at c_bands before calling an iterative solver
          1151 MiB given to the printing process from OS
             0 MiB allocation reported by mallinfo(arena+hblkhd)
        168687 MiB available memory on the node where the printing process lives
------------------
     ethr =  1.00E-02,  avg # of iterations =  5.0

     total cpu time spent up to now is      158.1 secs

     total energy              =   -6554.95740435 Ry
     estimated scf accuracy    <     317.59581461 Ry

     iteration # 37     ecut=    30.00 Ry     beta= 0.70
     Davidson diagonalization with overlap

---- Real-time Memory Report at c_bands before calling an iterative solver
          1151 MiB given to the printing process from OS
             0 MiB allocation reported by mallinfo(arena+hblkhd)
        168687 MiB available memory on the node where the printing process lives
------------------
     ethr =  1.00E-02,  avg # of iterations =  4.0

     total cpu time spent up to now is      162.5 secs

     total energy              =   -6554.79879948 Ry
     estimated scf accuracy    <     198.19913247 Ry

     iteration # 38     ecut=    30.00 Ry     beta= 0.70
     Davidson diagonalization with overlap

---- Real-time Memory Report at c_bands before calling an iterative solver
          1151 MiB given to the printing process from OS
             0 MiB allocation reported by mallinfo(arena+hblkhd)
        168687 MiB available memory on the node where the printing process lives
------------------
     ethr =  1.00E-02,  avg # of iterations =  6.0

     negative rho (up, down):  9.724E-04 0.000E+00

     total cpu time spent up to now is      168.0 secs

     total energy              =   -6544.29295981 Ry
     estimated scf accuracy    <     483.20658050 Ry

     iteration # 39     ecut=    30.00 Ry     beta= 0.70
     Davidson diagonalization with overlap

---- Real-time Memory Report at c_bands before calling an iterative solver
          1151 MiB given to the printing process from OS
             0 MiB allocation reported by mallinfo(arena+hblkhd)
        168685 MiB available memory on the node where the printing process lives
------------------
     ethr =  1.00E-02,  avg # of iterations =  4.0

     negative rho (up, down):  6.831E-04 0.000E+00

     total cpu time spent up to now is      172.4 secs

     total energy              =   -6562.71878474 Ry
     estimated scf accuracy    <     185.41683049 Ry

     iteration # 40     ecut=    30.00 Ry     beta= 0.70
     Davidson diagonalization with overlap

---- Real-time Memory Report at c_bands before calling an iterative solver
          1151 MiB given to the printing process from OS
             0 MiB allocation reported by mallinfo(arena+hblkhd)
        168686 MiB available memory on the node where the printing process lives
------------------
     ethr =  1.00E-02,  avg # of iterations =  4.0

     negative rho (up, down):  7.876E-04 0.000E+00

     total cpu time spent up to now is      176.6 secs

     total energy              =   -6556.11650889 Ry
     estimated scf accuracy    <     156.82712758 Ry

     iteration # 41     ecut=    30.00 Ry     beta= 0.70
     Davidson diagonalization with overlap

---- Real-time Memory Report at c_bands before calling an iterative solver
          1151 MiB given to the printing process from OS
             0 MiB allocation reported by mallinfo(arena+hblkhd)
        168687 MiB available memory on the node where the printing process lives
------------------
     ethr =  1.00E-02,  avg # of iterations =  4.0

     negative rho (up, down):  1.198E-03 0.000E+00

     total cpu time spent up to now is      180.9 secs

     total energy              =   -6542.81548481 Ry
     estimated scf accuracy    <     532.33636097 Ry

     iteration # 42     ecut=    30.00 Ry     beta= 0.70
     Davidson diagonalization with overlap

---- Real-time Memory Report at c_bands before calling an iterative solver
          1151 MiB given to the printing process from OS
             0 MiB allocation reported by mallinfo(arena+hblkhd)
        168686 MiB available memory on the node where the printing process lives
------------------
     ethr =  1.00E-02,  avg # of iterations =  5.0

     negative rho (up, down):  1.202E-03 0.000E+00

     total cpu time spent up to now is      185.4 secs

     total energy              =   -6545.84804113 Ry
     estimated scf accuracy    <     564.97773917 Ry

     iteration # 43     ecut=    30.00 Ry     beta= 0.70
     Davidson diagonalization with overlap

---- Real-time Memory Report at c_bands before calling an iterative solver
          1151 MiB given to the printing process from OS
             0 MiB allocation reported by mallinfo(arena+hblkhd)
        168686 MiB available memory on the node where the printing process lives
------------------
     ethr =  1.00E-02,  avg # of iterations =  6.0

     negative rho (up, down):  4.175E-04 0.000E+00

     total cpu time spent up to now is      190.0 secs

     total energy              =   -6559.63726763 Ry
     estimated scf accuracy    <     174.17117012 Ry

     iteration # 44     ecut=    30.00 Ry     beta= 0.70
     Davidson diagonalization with overlap

---- Real-time Memory Report at c_bands before calling an iterative solver
          1151 MiB given to the printing process from OS
             0 MiB allocation reported by mallinfo(arena+hblkhd)
        168686 MiB available memory on the node where the printing process lives
------------------
     ethr =  1.00E-02,  avg # of iterations =  4.0

     negative rho (up, down):  4.872E-04 0.000E+00

     total cpu time spent up to now is      194.4 secs

     total energy              =   -6553.78790639 Ry
     estimated scf accuracy    <     346.92939370 Ry

     iteration # 45     ecut=    30.00 Ry     beta= 0.70
     Davidson diagonalization with overlap

---- Real-time Memory Report at c_bands before calling an iterative solver
          1151 MiB given to the printing process from OS
             0 MiB allocation reported by mallinfo(arena+hblkhd)
        168685 MiB available memory on the node where the printing process lives
------------------
     ethr =  1.00E-02,  avg # of iterations =  3.0

     total cpu time spent up to now is      198.3 secs

     total energy              =   -6560.61310751 Ry
     estimated scf accuracy    <     126.22572436 Ry

     iteration # 46     ecut=    30.00 Ry     beta= 0.70
     Davidson diagonalization with overlap

---- Real-time Memory Report at c_bands before calling an iterative solver
          1151 MiB given to the printing process from OS
             0 MiB allocation reported by mallinfo(arena+hblkhd)
        168684 MiB available memory on the node where the printing process lives
------------------
     ethr =  1.00E-02,  avg # of iterations =  4.0

     total cpu time spent up to now is      202.5 secs

     total energy              =   -6553.33994667 Ry
     estimated scf accuracy    <     215.75362495 Ry

     iteration # 47     ecut=    30.00 Ry     beta= 0.70
     Davidson diagonalization with overlap

---- Real-time Memory Report at c_bands before calling an iterative solver
          1151 MiB given to the printing process from OS
             0 MiB allocation reported by mallinfo(arena+hblkhd)
        168682 MiB available memory on the node where the printing process lives
------------------
     ethr =  1.00E-02,  avg # of iterations =  5.0

     total cpu time spent up to now is      206.9 secs

     total energy              =   -6551.38903664 Ry
     estimated scf accuracy    <     455.73635874 Ry

     iteration # 48     ecut=    30.00 Ry     beta= 0.70
     Davidson diagonalization with overlap

---- Real-time Memory Report at c_bands before calling an iterative solver
          1151 MiB given to the printing process from OS
             0 MiB allocation reported by mallinfo(arena+hblkhd)
        168684 MiB available memory on the node where the printing process lives
------------------
     ethr =  1.00E-02,  avg # of iterations =  4.0

     negative rho (up, down):  1.264E-03 0.000E+00

     total cpu time spent up to now is      211.3 secs

     total energy              =   -6550.55712945 Ry
     estimated scf accuracy    <     462.97317625 Ry

     iteration # 49     ecut=    30.00 Ry     beta= 0.70
     Davidson diagonalization with overlap

---- Real-time Memory Report at c_bands before calling an iterative solver
          1151 MiB given to the printing process from OS
             0 MiB allocation reported by mallinfo(arena+hblkhd)
        168685 MiB available memory on the node where the printing process lives
------------------
     ethr =  1.00E-02,  avg # of iterations =  4.0

     negative rho (up, down):  7.662E-04 0.000E+00

     total cpu time spent up to now is      215.7 secs

     total energy              =   -6554.14829623 Ry
     estimated scf accuracy    <     253.97507401 Ry

     iteration # 50     ecut=    30.00 Ry     beta= 0.70
     Davidson diagonalization with overlap

---- Real-time Memory Report at c_bands before calling an iterative solver
          1151 MiB given to the printing process from OS
             0 MiB allocation reported by mallinfo(arena+hblkhd)
        168686 MiB available memory on the node where the printing process lives
------------------
     ethr =  1.00E-02,  avg # of iterations =  5.0

     negative rho (up, down):  6.966E-04 0.000E+00

     total cpu time spent up to now is      220.2 secs

     total energy              =   -6553.10868995 Ry
     estimated scf accuracy    <     263.74837507 Ry

     iteration # 51     ecut=    30.00 Ry     beta= 0.70
     Davidson diagonalization with overlap

---- Real-time Memory Report at c_bands before calling an iterative solver
          1151 MiB given to the printing process from OS
             0 MiB allocation reported by mallinfo(arena+hblkhd)
        168687 MiB available memory on the node where the printing process lives
------------------
     ethr =  1.00E-02,  avg # of iterations =  3.0

     negative rho (up, down):  1.643E-03 0.000E+00

     total cpu time spent up to now is      224.5 secs

     total energy              =   -6552.01468642 Ry
     estimated scf accuracy    <     495.39111314 Ry

     iteration # 52     ecut=    30.00 Ry     beta= 0.70
     Davidson diagonalization with overlap

---- Real-time Memory Report at c_bands before calling an iterative solver
          1151 MiB given to the printing process from OS
             0 MiB allocation reported by mallinfo(arena+hblkhd)
        168687 MiB available memory on the node where the printing process lives
------------------
     ethr =  1.00E-02,  avg # of iterations =  4.0

     negative rho (up, down):  1.201E-03 0.000E+00

     total cpu time spent up to now is      231.1 secs

     total energy              =   -6550.70023810 Ry
     estimated scf accuracy    <     453.88222635 Ry

     iteration # 53     ecut=    30.00 Ry     beta= 0.70
     Davidson diagonalization with overlap

---- Real-time Memory Report at c_bands before calling an iterative solver
          1151 MiB given to the printing process from OS
             0 MiB allocation reported by mallinfo(arena+hblkhd)
        168684 MiB available memory on the node where the printing process lives
------------------
     ethr =  1.00E-02,  avg # of iterations =  5.0

     negative rho (up, down):  3.439E-04 0.000E+00

     total cpu time spent up to now is      235.5 secs

     total energy              =   -6556.50113413 Ry
     estimated scf accuracy    <     247.46786769 Ry

     iteration # 54     ecut=    30.00 Ry     beta= 0.70
     Davidson diagonalization with overlap

---- Real-time Memory Report at c_bands before calling an iterative solver
          1151 MiB given to the printing process from OS
             0 MiB allocation reported by mallinfo(arena+hblkhd)
        168685 MiB available memory on the node where the printing process lives
------------------
     ethr =  1.00E-02,  avg # of iterations =  5.0

     negative rho (up, down):  2.818E-04 0.000E+00

     total cpu time spent up to now is      239.8 secs

     total energy              =   -6549.52468031 Ry
     estimated scf accuracy    <     373.95561764 Ry

     iteration # 55     ecut=    30.00 Ry     beta= 0.70
     Davidson diagonalization with overlap

---- Real-time Memory Report at c_bands before calling an iterative solver
          1151 MiB given to the printing process from OS
             0 MiB allocation reported by mallinfo(arena+hblkhd)
        168685 MiB available memory on the node where the printing process lives
------------------
     ethr =  1.00E-02,  avg # of iterations =  5.0

     total cpu time spent up to now is      244.4 secs

     total energy              =   -6546.63808400 Ry
     estimated scf accuracy    <     312.73068529 Ry

     iteration # 56     ecut=    30.00 Ry     beta= 0.70
     Davidson diagonalization with overlap

---- Real-time Memory Report at c_bands before calling an iterative solver
          1151 MiB given to the printing process from OS
             0 MiB allocation reported by mallinfo(arena+hblkhd)
        168685 MiB available memory on the node where the printing process lives
------------------
     ethr =  1.00E-02,  avg # of iterations =  6.0

     total cpu time spent up to now is      248.9 secs

     total energy              =   -6550.47038760 Ry
     estimated scf accuracy    <     366.56664385 Ry

     iteration # 57     ecut=    30.00 Ry     beta= 0.70
     Davidson diagonalization with overlap

---- Real-time Memory Report at c_bands before calling an iterative solver
          1151 MiB given to the printing process from OS
             0 MiB allocation reported by mallinfo(arena+hblkhd)
        168685 MiB available memory on the node where the printing process lives
------------------
     ethr =  1.00E-02,  avg # of iterations =  4.0

     total cpu time spent up to now is      253.4 secs

     total energy              =   -6553.23495478 Ry
     estimated scf accuracy    <     351.85566206 Ry

     iteration # 58     ecut=    30.00 Ry     beta= 0.70
     Davidson diagonalization with overlap

---- Real-time Memory Report at c_bands before calling an iterative solver
          1151 MiB given to the printing process from OS
             0 MiB allocation reported by mallinfo(arena+hblkhd)
        168684 MiB available memory on the node where the printing process lives
------------------
     ethr =  1.00E-02,  avg # of iterations =  4.0

     negative rho (up, down):  6.229E-04 0.000E+00

     total cpu time spent up to now is      257.7 secs

     total energy              =   -6548.50962688 Ry
     estimated scf accuracy    <     427.86202159 Ry

     iteration # 59     ecut=    30.00 Ry     beta= 0.70
     Davidson diagonalization with overlap

---- Real-time Memory Report at c_bands before calling an iterative solver
          1151 MiB given to the printing process from OS
             0 MiB allocation reported by mallinfo(arena+hblkhd)
        168686 MiB available memory on the node where the printing process lives
------------------
     ethr =  1.00E-02,  avg # of iterations =  5.0

     negative rho (up, down):  1.072E-03 0.000E+00

     total cpu time spent up to now is      262.2 secs

     total energy              =   -6549.09292066 Ry
     estimated scf accuracy    <     356.83009384 Ry

     iteration # 60     ecut=    30.00 Ry     beta= 0.70
     Davidson diagonalization with overlap

---- Real-time Memory Report at c_bands before calling an iterative solver
          1151 MiB given to the printing process from OS
             0 MiB allocation reported by mallinfo(arena+hblkhd)
        168686 MiB available memory on the node where the printing process lives
------------------
     ethr =  1.00E-02,  avg # of iterations =  5.0

     negative rho (up, down):  8.001E-04 0.000E+00

     total cpu time spent up to now is      267.0 secs

     total energy              =   -6554.59900915 Ry
     estimated scf accuracy    <     326.29536715 Ry

     iteration # 61     ecut=    30.00 Ry     beta= 0.70
     Davidson diagonalization with overlap

---- Real-time Memory Report at c_bands before calling an iterative solver
          1151 MiB given to the printing process from OS
             0 MiB allocation reported by mallinfo(arena+hblkhd)
        168686 MiB available memory on the node where the printing process lives
------------------
     ethr =  1.00E-02,  avg # of iterations =  3.0

     negative rho (up, down):  9.734E-04 0.000E+00

     total cpu time spent up to now is      273.6 secs

     total energy              =   -6552.62131570 Ry
     estimated scf accuracy    <     426.74967063 Ry

     iteration # 62     ecut=    30.00 Ry     beta= 0.70
     Davidson diagonalization with overlap

---- Real-time Memory Report at c_bands before calling an iterative solver
          1151 MiB given to the printing process from OS
             0 MiB allocation reported by mallinfo(arena+hblkhd)
        168685 MiB available memory on the node where the printing process lives
------------------
     ethr =  1.00E-02,  avg # of iterations =  4.0

     negative rho (up, down):  1.254E-03 0.000E+00

     total cpu time spent up to now is      277.9 secs

     total energy              =   -6542.29740865 Ry
     estimated scf accuracy    <     410.17625801 Ry

     iteration # 63     ecut=    30.00 Ry     beta= 0.70
     Davidson diagonalization with overlap

---- Real-time Memory Report at c_bands before calling an iterative solver
          1151 MiB given to the printing process from OS
             0 MiB allocation reported by mallinfo(arena+hblkhd)
        168686 MiB available memory on the node where the printing process lives
------------------
     ethr =  1.00E-02,  avg # of iterations =  6.0

     negative rho (up, down):  3.891E-04 0.000E+00

     total cpu time spent up to now is      282.4 secs

     total energy              =   -6555.15769396 Ry
     estimated scf accuracy    <     339.22416985 Ry

     iteration # 64     ecut=    30.00 Ry     beta= 0.70
     Davidson diagonalization with overlap

---- Real-time Memory Report at c_bands before calling an iterative solver
          1151 MiB given to the printing process from OS
             0 MiB allocation reported by mallinfo(arena+hblkhd)
        168687 MiB available memory on the node where the printing process lives
------------------
     ethr =  1.00E-02,  avg # of iterations =  4.0

     negative rho (up, down):  4.423E-05 0.000E+00

     total cpu time spent up to now is      286.8 secs

     total energy              =   -6545.29863422 Ry
     estimated scf accuracy    <     419.24032378 Ry

     iteration # 65     ecut=    30.00 Ry     beta= 0.70
     Davidson diagonalization with overlap

---- Real-time Memory Report at c_bands before calling an iterative solver
          1151 MiB given to the printing process from OS
             0 MiB allocation reported by mallinfo(arena+hblkhd)
        168685 MiB available memory on the node where the printing process lives
------------------
     ethr =  1.00E-02,  avg # of iterations =  5.0

     total cpu time spent up to now is      293.9 secs

     total energy              =   -6547.93471545 Ry
     estimated scf accuracy    <     361.08025313 Ry

     iteration # 66     ecut=    30.00 Ry     beta= 0.70
     Davidson diagonalization with overlap

---- Real-time Memory Report at c_bands before calling an iterative solver
          1151 MiB given to the printing process from OS
             0 MiB allocation reported by mallinfo(arena+hblkhd)
        168679 MiB available memory on the node where the printing process lives
------------------
     ethr =  1.00E-02,  avg # of iterations =  3.0

     total cpu time spent up to now is      298.2 secs

     total energy              =   -6551.87769033 Ry
     estimated scf accuracy    <     379.55523763 Ry

     iteration # 67     ecut=    30.00 Ry     beta= 0.70
     Davidson diagonalization with overlap

---- Real-time Memory Report at c_bands before calling an iterative solver
          1151 MiB given to the printing process from OS
             0 MiB allocation reported by mallinfo(arena+hblkhd)
        168681 MiB available memory on the node where the printing process lives
------------------
     ethr =  1.00E-02,  avg # of iterations =  4.0

     total cpu time spent up to now is      302.6 secs

     total energy              =   -6549.50942573 Ry
     estimated scf accuracy    <     263.32845854 Ry

     iteration # 68     ecut=    30.00 Ry     beta= 0.70
     Davidson diagonalization with overlap

---- Real-time Memory Report at c_bands before calling an iterative solver
          1151 MiB given to the printing process from OS
             0 MiB allocation reported by mallinfo(arena+hblkhd)
        168682 MiB available memory on the node where the printing process lives
------------------
     ethr =  1.00E-02,  avg # of iterations =  4.0

     negative rho (up, down):  1.029E-03 0.000E+00

     total cpu time spent up to now is      307.0 secs

     total energy              =   -6544.42439454 Ry
     estimated scf accuracy    <     482.59144250 Ry

     iteration # 69     ecut=    30.00 Ry     beta= 0.70
     Davidson diagonalization with overlap

---- Real-time Memory Report at c_bands before calling an iterative solver
          1151 MiB given to the printing process from OS
             0 MiB allocation reported by mallinfo(arena+hblkhd)
        168683 MiB available memory on the node where the printing process lives
------------------
     ethr =  1.00E-02,  avg # of iterations =  4.0

     negative rho (up, down):  1.872E-03 0.000E+00

     total cpu time spent up to now is      311.4 secs

     total energy              =   -6554.38531107 Ry
     estimated scf accuracy    <     369.66094125 Ry

     iteration # 70     ecut=    30.00 Ry     beta= 0.70
     Davidson diagonalization with overlap

---- Real-time Memory Report at c_bands before calling an iterative solver
          1152 MiB given to the printing process from OS
             0 MiB allocation reported by mallinfo(arena+hblkhd)
        168684 MiB available memory on the node where the printing process lives
------------------
     ethr =  1.00E-02,  avg # of iterations =  5.0

     negative rho (up, down):  1.662E-03 0.000E+00

     total cpu time spent up to now is      315.9 secs

     total energy              =   -6556.30556707 Ry
     estimated scf accuracy    <     300.43964438 Ry

     iteration # 71     ecut=    30.00 Ry     beta= 0.70
     Davidson diagonalization with overlap

---- Real-time Memory Report at c_bands before calling an iterative solver
          1152 MiB given to the printing process from OS
             0 MiB allocation reported by mallinfo(arena+hblkhd)
        168682 MiB available memory on the node where the printing process lives
------------------
     ethr =  1.00E-02,  avg # of iterations =  3.0

     negative rho (up, down):  1.224E-03 0.000E+00

     total cpu time spent up to now is      320.0 secs

     total energy              =   -6547.43060893 Ry
     estimated scf accuracy    <     410.27675843 Ry

     iteration # 72     ecut=    30.00 Ry     beta= 0.70
     Davidson diagonalization with overlap

---- Real-time Memory Report at c_bands before calling an iterative solver
          1152 MiB given to the printing process from OS
             0 MiB allocation reported by mallinfo(arena+hblkhd)
        168686 MiB available memory on the node where the printing process lives
------------------
     ethr =  1.00E-02,  avg # of iterations =  5.0

     negative rho (up, down):  1.367E-03 0.000E+00

     total cpu time spent up to now is      324.6 secs

     total energy              =   -6540.32963342 Ry
     estimated scf accuracy    <     484.26173215 Ry

     iteration # 73     ecut=    30.00 Ry     beta= 0.70
     Davidson diagonalization with overlap

---- Real-time Memory Report at c_bands before calling an iterative solver
          1153 MiB given to the printing process from OS
             0 MiB allocation reported by mallinfo(arena+hblkhd)
        168687 MiB available memory on the node where the printing process lives
------------------
     ethr =  1.00E-02,  avg # of iterations =  6.0

     negative rho (up, down):  5.462E-04 0.000E+00

     total cpu time spent up to now is      329.1 secs

     total energy              =   -6557.51002307 Ry
     estimated scf accuracy    <     331.64490008 Ry

     iteration # 74     ecut=    30.00 Ry     beta= 0.70
     Davidson diagonalization with overlap

---- Real-time Memory Report at c_bands before calling an iterative solver
          1153 MiB given to the printing process from OS
             0 MiB allocation reported by mallinfo(arena+hblkhd)
        168687 MiB available memory on the node where the printing process lives
------------------
     ethr =  1.00E-02,  avg # of iterations =  4.0

     negative rho (up, down):  3.247E-04 0.000E+00

     total cpu time spent up to now is      333.5 secs

     total energy              =   -6547.29805337 Ry
     estimated scf accuracy    <     412.39538110 Ry

     iteration # 75     ecut=    30.00 Ry     beta= 0.70
     Davidson diagonalization with overlap

---- Real-time Memory Report at c_bands before calling an iterative solver
          1153 MiB given to the printing process from OS
             0 MiB allocation reported by mallinfo(arena+hblkhd)
        168688 MiB available memory on the node where the printing process lives
------------------
     ethr =  1.00E-02,  avg # of iterations =  5.0

     total cpu time spent up to now is      338.0 secs

     total energy              =   -6550.46932468 Ry
     estimated scf accuracy    <     376.64761921 Ry

     iteration # 76     ecut=    30.00 Ry     beta= 0.70
     Davidson diagonalization with overlap

---- Real-time Memory Report at c_bands before calling an iterative solver
          1153 MiB given to the printing process from OS
             0 MiB allocation reported by mallinfo(arena+hblkhd)
        168687 MiB available memory on the node where the printing process lives
------------------
     ethr =  1.00E-02,  avg # of iterations =  4.0

     total cpu time spent up to now is      342.3 secs

     total energy              =   -6548.90116508 Ry
     estimated scf accuracy    <     358.24664745 Ry

     iteration # 77     ecut=    30.00 Ry     beta= 0.70
     Davidson diagonalization with overlap

---- Real-time Memory Report at c_bands before calling an iterative solver
          1153 MiB given to the printing process from OS
             0 MiB allocation reported by mallinfo(arena+hblkhd)
        168686 MiB available memory on the node where the printing process lives
------------------
     ethr =  1.00E-02,  avg # of iterations =  5.0

     total cpu time spent up to now is      346.7 secs

     total energy              =   -6539.32181158 Ry
     estimated scf accuracy    <     522.44434791 Ry

     iteration # 78     ecut=    30.00 Ry     beta= 0.70
     Davidson diagonalization with overlap

---- Real-time Memory Report at c_bands before calling an iterative solver
          1153 MiB given to the printing process from OS
             0 MiB allocation reported by mallinfo(arena+hblkhd)
        168686 MiB available memory on the node where the printing process lives
------------------
     ethr =  1.00E-02,  avg # of iterations =  6.0

     negative rho (up, down):  6.384E-04 0.000E+00

     total cpu time spent up to now is      351.3 secs

     total energy              =   -6549.34769807 Ry
     estimated scf accuracy    <     410.48220768 Ry

     iteration # 79     ecut=    30.00 Ry     beta= 0.70
     Davidson diagonalization with overlap

---- Real-time Memory Report at c_bands before calling an iterative solver
          1153 MiB given to the printing process from OS
             0 MiB allocation reported by mallinfo(arena+hblkhd)
        168687 MiB available memory on the node where the printing process lives
------------------
     ethr =  1.00E-02,  avg # of iterations =  5.0

     negative rho (up, down):  1.530E-03 0.000E+00

     total cpu time spent up to now is      355.7 secs

     total energy              =   -6558.61038413 Ry
     estimated scf accuracy    <     351.28844848 Ry

     iteration # 80     ecut=    30.00 Ry     beta= 0.70
     Davidson diagonalization with overlap

---- Real-time Memory Report at c_bands before calling an iterative solver
          1153 MiB given to the printing process from OS
             0 MiB allocation reported by mallinfo(arena+hblkhd)
        168687 MiB available memory on the node where the printing process lives
------------------
     ethr =  1.00E-02,  avg # of iterations =  4.0

     negative rho (up, down):  1.498E-03 0.000E+00

     total cpu time spent up to now is      360.5 secs

     total energy              =   -6552.44349844 Ry
     estimated scf accuracy    <     334.71788950 Ry

     iteration # 81     ecut=    30.00 Ry     beta= 0.70
     Davidson diagonalization with overlap

---- Real-time Memory Report at c_bands before calling an iterative solver
          1153 MiB given to the printing process from OS
             0 MiB allocation reported by mallinfo(arena+hblkhd)
        168688 MiB available memory on the node where the printing process lives
------------------
     ethr =  1.00E-02,  avg # of iterations =  4.0

     negative rho (up, down):  1.167E-03 0.000E+00

     total cpu time spent up to now is      364.8 secs

     total energy              =   -6543.16051227 Ry
     estimated scf accuracy    <     458.87020631 Ry

     iteration # 82     ecut=    30.00 Ry     beta= 0.70
     Davidson diagonalization with overlap

---- Real-time Memory Report at c_bands before calling an iterative solver
          1153 MiB given to the printing process from OS
             0 MiB allocation reported by mallinfo(arena+hblkhd)
        168688 MiB available memory on the node where the printing process lives
------------------
     ethr =  1.00E-02,  avg # of iterations =  5.0

     negative rho (up, down):  1.196E-03 0.000E+00

     total cpu time spent up to now is      369.3 secs

     total energy              =   -6541.48045550 Ry
     estimated scf accuracy    <     493.31378806 Ry

     iteration # 83     ecut=    30.00 Ry     beta= 0.70
     Davidson diagonalization with overlap

---- Real-time Memory Report at c_bands before calling an iterative solver
          1153 MiB given to the printing process from OS
             0 MiB allocation reported by mallinfo(arena+hblkhd)
        168688 MiB available memory on the node where the printing process lives
------------------
     ethr =  1.00E-02,  avg # of iterations =  6.0

     negative rho (up, down):  1.594E-04 0.000E+00

     total cpu time spent up to now is      373.8 secs

     total energy              =   -6555.56170708 Ry
     estimated scf accuracy    <     323.54572232 Ry

     iteration # 84     ecut=    30.00 Ry     beta= 0.70
     Davidson diagonalization with overlap

---- Real-time Memory Report at c_bands before calling an iterative solver
          1153 MiB given to the printing process from OS
             0 MiB allocation reported by mallinfo(arena+hblkhd)
        168689 MiB available memory on the node where the printing process lives
------------------
     ethr =  1.00E-02,  avg # of iterations =  4.0

     total cpu time spent up to now is      378.3 secs

     total energy              =   -6545.36518848 Ry
     estimated scf accuracy    <     477.32475261 Ry

     iteration # 85     ecut=    30.00 Ry     beta= 0.70
     Davidson diagonalization with overlap

---- Real-time Memory Report at c_bands before calling an iterative solver
          1153 MiB given to the printing process from OS
             0 MiB allocation reported by mallinfo(arena+hblkhd)
        168688 MiB available memory on the node where the printing process lives
------------------
     ethr =  1.00E-02,  avg # of iterations =  5.0

     total cpu time spent up to now is      382.9 secs

     total energy              =   -6549.46202331 Ry
     estimated scf accuracy    <     383.76298041 Ry

     iteration # 86     ecut=    30.00 Ry     beta= 0.70
     Davidson diagonalization with overlap

---- Real-time Memory Report at c_bands before calling an iterative solver
          1153 MiB given to the printing process from OS
             0 MiB allocation reported by mallinfo(arena+hblkhd)
        168684 MiB available memory on the node where the printing process lives
------------------
     ethr =  1.00E-02,  avg # of iterations =  4.0

     total cpu time spent up to now is      387.3 secs

     total energy              =   -6548.98209558 Ry
     estimated scf accuracy    <     361.75539709 Ry

     iteration # 87     ecut=    30.00 Ry     beta= 0.70
     Davidson diagonalization with overlap

---- Real-time Memory Report at c_bands before calling an iterative solver
          1153 MiB given to the printing process from OS
             0 MiB allocation reported by mallinfo(arena+hblkhd)
        168685 MiB available memory on the node where the printing process lives
------------------
     ethr =  1.00E-02,  avg # of iterations =  5.0

     negative rho (up, down):  5.529E-05 0.000E+00

     total cpu time spent up to now is      391.7 secs

     total energy              =   -6542.39382343 Ry
     estimated scf accuracy    <     546.62606699 Ry

     iteration # 88     ecut=    30.00 Ry     beta= 0.70
     Davidson diagonalization with overlap

---- Real-time Memory Report at c_bands before calling an iterative solver
          1153 MiB given to the printing process from OS
             0 MiB allocation reported by mallinfo(arena+hblkhd)
        168686 MiB available memory on the node where the printing process lives
------------------
     ethr =  1.00E-02,  avg # of iterations =  6.0

     negative rho (up, down):  5.949E-04 0.000E+00

     total cpu time spent up to now is      396.2 secs

     total energy              =   -6545.27190282 Ry
     estimated scf accuracy    <     422.22997570 Ry

     iteration # 89     ecut=    30.00 Ry     beta= 0.70
     Davidson diagonalization with overlap

---- Real-time Memory Report at c_bands before calling an iterative solver
          1153 MiB given to the printing process from OS
             0 MiB allocation reported by mallinfo(arena+hblkhd)
        168687 MiB available memory on the node where the printing process lives
------------------
     ethr =  1.00E-02,  avg # of iterations =  4.0

     negative rho (up, down):  1.495E-03 0.000E+00

     total cpu time spent up to now is      400.6 secs

     total energy              =   -6556.17204810 Ry
     estimated scf accuracy    <     392.87797472 Ry

     iteration # 90     ecut=    30.00 Ry     beta= 0.70
     Davidson diagonalization with overlap

---- Real-time Memory Report at c_bands before calling an iterative solver
          1153 MiB given to the printing process from OS
             0 MiB allocation reported by mallinfo(arena+hblkhd)
        168687 MiB available memory on the node where the printing process lives
------------------
     ethr =  1.00E-02,  avg # of iterations =  5.0

     negative rho (up, down):  1.636E-03 0.000E+00

     total cpu time spent up to now is      405.1 secs

     total energy              =   -6552.63943519 Ry
     estimated scf accuracy    <     354.93867528 Ry

     iteration # 91     ecut=    30.00 Ry     beta= 0.70
     Davidson diagonalization with overlap

---- Real-time Memory Report at c_bands before calling an iterative solver
          1153 MiB given to the printing process from OS
             0 MiB allocation reported by mallinfo(arena+hblkhd)
        168687 MiB available memory on the node where the printing process lives
------------------
     ethr =  1.00E-02,  avg # of iterations =  4.0

     negative rho (up, down):  1.308E-03 0.000E+00

     total cpu time spent up to now is      409.4 secs

     total energy              =   -6543.58031298 Ry
     estimated scf accuracy    <     455.67336048 Ry

     iteration # 92     ecut=    30.00 Ry     beta= 0.70
     Davidson diagonalization with overlap

---- Real-time Memory Report at c_bands before calling an iterative solver
          1153 MiB given to the printing process from OS
             0 MiB allocation reported by mallinfo(arena+hblkhd)
        168682 MiB available memory on the node where the printing process lives
------------------
     ethr =  1.00E-02,  avg # of iterations =  5.0

     negative rho (up, down):  1.161E-03 0.000E+00

     total cpu time spent up to now is      414.0 secs

     total energy              =   -6541.47731362 Ry
     estimated scf accuracy    <     468.78588104 Ry

     iteration # 93     ecut=    30.00 Ry     beta= 0.70
     Davidson diagonalization with overlap

---- Real-time Memory Report at c_bands before calling an iterative solver
          1153 MiB given to the printing process from OS
             0 MiB allocation reported by mallinfo(arena+hblkhd)
        168683 MiB available memory on the node where the printing process lives
------------------
     ethr =  1.00E-02,  avg # of iterations =  6.0

     negative rho (up, down):  2.115E-04 0.000E+00

     total cpu time spent up to now is      418.6 secs

     total energy              =   -6554.37479403 Ry
     estimated scf accuracy    <     325.27091295 Ry

     iteration # 94     ecut=    30.00 Ry     beta= 0.70
     Davidson diagonalization with overlap

---- Real-time Memory Report at c_bands before calling an iterative solver
          1153 MiB given to the printing process from OS
             0 MiB allocation reported by mallinfo(arena+hblkhd)
        168683 MiB available memory on the node where the printing process lives
------------------
     ethr =  1.00E-02,  avg # of iterations =  4.0

     total cpu time spent up to now is      423.0 secs

     total energy              =   -6545.49735471 Ry
     estimated scf accuracy    <     477.94262530 Ry

     iteration # 95     ecut=    30.00 Ry     beta= 0.70
     Davidson diagonalization with overlap

---- Real-time Memory Report at c_bands before calling an iterative solver
          1153 MiB given to the printing process from OS
             0 MiB allocation reported by mallinfo(arena+hblkhd)
        168683 MiB available memory on the node where the printing process lives
------------------
     ethr =  1.00E-02,  avg # of iterations =  5.0

     total cpu time spent up to now is      427.4 secs

     total energy              =   -6548.84050552 Ry
     estimated scf accuracy    <     414.18839240 Ry

     iteration # 96     ecut=    30.00 Ry     beta= 0.70
     Davidson diagonalization with overlap

---- Real-time Memory Report at c_bands before calling an iterative solver
          1153 MiB given to the printing process from OS
             0 MiB allocation reported by mallinfo(arena+hblkhd)
        168684 MiB available memory on the node where the printing process lives
------------------
     ethr =  1.00E-02,  avg # of iterations =  5.0

     total cpu time spent up to now is      431.8 secs

     total energy              =   -6548.94547132 Ry
     estimated scf accuracy    <     367.95938024 Ry

     iteration # 97     ecut=    30.00 Ry     beta= 0.70
     Davidson diagonalization with overlap

---- Real-time Memory Report at c_bands before calling an iterative solver
          1153 MiB given to the printing process from OS
             0 MiB allocation reported by mallinfo(arena+hblkhd)
        168683 MiB available memory on the node where the printing process lives
------------------
     ethr =  1.00E-02,  avg # of iterations =  6.0

     negative rho (up, down):  3.249E-05 0.000E+00

     total cpu time spent up to now is      436.2 secs

     total energy              =   -6544.73732084 Ry
     estimated scf accuracy    <     536.83512344 Ry

     iteration # 98     ecut=    30.00 Ry     beta= 0.70
     Davidson diagonalization with overlap

---- Real-time Memory Report at c_bands before calling an iterative solver
          1153 MiB given to the printing process from OS
             0 MiB allocation reported by mallinfo(arena+hblkhd)
        168683 MiB available memory on the node where the printing process lives
------------------
     ethr =  1.00E-02,  avg # of iterations =  4.0

     negative rho (up, down):  5.824E-04 0.000E+00

     total cpu time spent up to now is      440.6 secs

     total energy              =   -6543.63318496 Ry
     estimated scf accuracy    <     435.37989806 Ry

     iteration # 99     ecut=    30.00 Ry     beta= 0.70
     Davidson diagonalization with overlap

---- Real-time Memory Report at c_bands before calling an iterative solver
          1153 MiB given to the printing process from OS
             0 MiB allocation reported by mallinfo(arena+hblkhd)
        168686 MiB available memory on the node where the printing process lives
------------------
     ethr =  1.00E-02,  avg # of iterations =  3.0

     negative rho (up, down):  1.143E-03 0.000E+00

     total cpu time spent up to now is      445.0 secs

     total energy              =   -6556.92190709 Ry
     estimated scf accuracy    <     383.88337738 Ry

     iteration #100     ecut=    30.00 Ry     beta= 0.70
     Davidson diagonalization with overlap

---- Real-time Memory Report at c_bands before calling an iterative solver
          1153 MiB given to the printing process from OS
             0 MiB allocation reported by mallinfo(arena+hblkhd)
        168686 MiB available memory on the node where the printing process lives
------------------
     ethr =  1.00E-02,  avg # of iterations =  5.0

     negative rho (up, down):  1.604E-03 0.000E+00

     total cpu time spent up to now is      449.5 secs

     total energy              =   -6553.91652367 Ry
     estimated scf accuracy    <     350.09100667 Ry

     End of self-consistent calculation

     convergence NOT achieved after 100 iterations: stopping

     Writing config to output data dir new_calculations/myprefix.save/
     Message from routine punch:
     wavefunctions written to file
 
     init_run     :    176.98s CPU      7.98s WALL (       1 calls)
     electrons    :  13115.15s CPU    441.19s WALL (       1 calls)

     Called by init_run:
     wfcinit      :     43.24s CPU      1.39s WALL (       1 calls)
     wfcinit:atom :      0.11s CPU      0.00s WALL (       1 calls)
     wfcinit:wfcr :     42.17s CPU      1.35s WALL (       1 calls)
     potinit      :     59.99s CPU      1.99s WALL (       1 calls)
     hinit0       :     62.69s CPU      4.19s WALL (       1 calls)

     Called by electrons:
     c_bands      :   6293.44s CPU    200.28s WALL (     100 calls)
     sum_band     :   1569.66s CPU     65.51s WALL (     100 calls)
     v_of_rho     :     86.26s CPU      2.88s WALL (     101 calls)
     v_h          :      6.83s CPU      0.23s WALL (     101 calls)
     v_xc         :     79.18s CPU      2.65s WALL (     101 calls)
     newd         :    766.30s CPU     25.90s WALL (     101 calls)
     PAW_pot      :   4396.98s CPU    146.56s WALL (     101 calls)
     mix_rho      :     31.43s CPU      1.03s WALL (     100 calls)

     Called by c_bands:
     init_us_2    :      4.55s CPU      0.16s WALL (     201 calls)
     init_us_2:cp :      4.24s CPU      0.15s WALL (     201 calls)
     regterg      :   6262.56s CPU    199.26s WALL (     100 calls)

     Called by sum_band:
     sum_band:wei :      0.36s CPU      0.01s WALL (     100 calls)
     sum_band:loo :    912.07s CPU     28.99s WALL (     100 calls)
     sum_band:buf :      0.07s CPU      0.00s WALL (     100 calls)
     sum_band:ini :      2.26s CPU      0.07s WALL (     100 calls)
     sum_band:cal :      3.72s CPU      0.12s WALL (     100 calls)
     sum_band:bec :      1.32s CPU      0.04s WALL (     100 calls)
     addusdens    :    643.53s CPU     36.05s WALL (     100 calls)
     addusd:skk   :      4.95s CPU      0.30s WALL (     300 calls)
     addusd:dgemm :     56.68s CPU     16.65s WALL (     300 calls)
     addusd:qvan2 :    561.01s CPU     18.10s WALL (     300 calls)

     Called by *egterg:
     rdiaghg      :    495.70s CPU     16.57s WALL (     521 calls)
     regterg:over :     16.17s CPU      0.52s WALL (     421 calls)
     regterg:upda :     18.99s CPU      0.62s WALL (     421 calls)
     regterg:last :     50.68s CPU      1.68s WALL (     255 calls)
     h_psi        :   5644.88s CPU    178.59s WALL (     522 calls)
     s_psi        :      7.17s CPU      0.23s WALL (     522 calls)
     g_psi        :      0.87s CPU      0.03s WALL (     421 calls)

     Called by h_psi:
     h_psi:calbec :     13.48s CPU      0.44s WALL (     522 calls)
     vloc_psi     :   5616.27s CPU    177.65s WALL (     522 calls)
     add_vuspsi   :      9.23s CPU      0.31s WALL (     522 calls)

     General routines
     calbec       :     16.26s CPU      0.53s WALL (     622 calls)
     fft          :     55.37s CPU      1.95s WALL (    1111 calls)
     ffts         :     14.56s CPU      0.47s WALL (     201 calls)
     fftw         :   5973.61s CPU    188.51s WALL (   62974 calls)
     interpolate  :     19.61s CPU      0.65s WALL (     101 calls)
     davcio       :      2.16s CPU      0.23s WALL (      19 calls)
 
     Parallel routines

     PAW routines
     PAW_pot      :   4396.98s CPU    146.56s WALL (     101 calls)
     PAW_symme    :      2.71s CPU      0.09s WALL (     201 calls)
 
     PWSCF        :      3h41m CPU   7m29.91s WALL

 
   This run was terminated on:  23:58: 6  20May2023            

=------------------------------------------------------------------------------=
   JOB DONE.
=------------------------------------------------------------------------------=
