
     Program PWSCF v.7.0 starts on 20May2023 at 23:18:37 

     This program is part of the open-source Quantum ESPRESSO suite
     for quantum simulation of materials; please cite
         "P. Giannozzi et al., J. Phys.:Condens. Matter 21 395502 (2009);
         "P. Giannozzi et al., J. Phys.:Condens. Matter 29 465901 (2017);
         "P. Giannozzi et al., J. Chem. Phys. 152 154105 (2020);
          URL http://www.quantum-espresso.org", 
     in publications or presentations arising from this work. More details at
     http://www.quantum-espresso.org/quote

     Parallel version (MPI & OpenMP), running on      32 processor cores
     Number of MPI processes:                 1
     Threads/MPI process:                    32

     MPI processes distributed on     1 nodes
     143502 MiB available memory on the printing compute node when the environment starts
 
     Reading input from espresso_24199.pwi
Warning: card &CELL ignored
Warning: card / ignored

     Current dimensions of program PWSCF are:
     Max number of different atomic species (ntypx) = 10
     Max number of k-points (npk) =  40000
     Max angular momentum in pseudopotentials (lmaxx) =  4

     gamma-point specific algorithms are used
     Message from routine setup:
     using ibrav=0 with symmetry is DISCOURAGED, use correct ibrav instead

     Subspace diagonalization in iterative solution of the eigenvalue problem:
     a serial algorithm will be used

 
     G-vector sticks info
     --------------------
     sticks:   dense  smooth     PW     G-vecs:    dense   smooth      PW
     Sum        4507    2257    571               200833    70985    8873
 
     Using Slab Decomposition
 


     bravais-lattice index     =            0
     lattice parameter (alat)  =      16.5466  a.u.
     unit-cell volume          =    3203.3900 (a.u.)^3
     number of atoms/cell      =           10
     number of atomic types    =            4
     number of electrons       =        95.00
     number of Kohn-Sham states=           58
     kinetic-energy cutoff     =      30.0000  Ry
     charge density cutoff     =     240.0000  Ry
     scf convergence threshold =      1.0E-06
     mixing beta               =       0.7000
     number of iterations used =            8  plain     mixing
     Exchange-correlation= SLA  PW   PBX  PBC
                           (   1   4   3   4   0   0   0)

     celldm(1)=  16.546581  celldm(2)=   0.000000  celldm(3)=   0.000000
     celldm(4)=   0.000000  celldm(5)=   0.000000  celldm(6)=   0.000000

     crystal axes: (cart. coord. in units of alat)
               a(1) = (   1.000000   0.000000   0.000000 )  
               a(2) = (   0.500000   0.866025   0.000000 )  
               a(3) = (   0.500000   0.288675   0.816497 )  

     reciprocal axes: (cart. coord. in units 2 pi/alat)
               b(1) = (  1.000000 -0.577350 -0.408248 )  
               b(2) = (  0.000000  1.154701 -0.408248 )  
               b(3) = (  0.000000  0.000000  1.224745 )  


     PseudoPot. # 1 for Cs read from file:
     /home/pragov/projects/rrg-bengioy-ad/pragov/crystal_structure_design/SSSP/Cs_pbe_v1.uspp.F.UPF
     MD5 check sum: 3476d69cb178dfad3ffaa59df4e07ca4
     Pseudo is Ultrasoft + core correction, Zval =  9.0
     Generated by new atomic code, or converted to UPF format
     Using radial grid of  905 points,  6 beta functions with: 
                l(1) =   0
                l(2) =   0
                l(3) =   1
                l(4) =   1
                l(5) =   2
                l(6) =   2
     Q(r) pseudized with  6 coefficients,  rinner =    1.500   1.500   1.500
                                                       1.500   1.500

     PseudoPot. # 2 for Hg read from file:
     /home/pragov/projects/rrg-bengioy-ad/pragov/crystal_structure_design/SSSP/Hg_ONCV_PBE-1.0.oncvpsp.upf
     MD5 check sum: dd5a8773074bfcf4280086d4d95875c4
     Pseudo is Norm-conserving, Zval = 20.0
     Generated using ONCVPSP code by D. R. Hamann
     Using radial grid of 1262 points,  8 beta functions with: 
                l(1) =   0
                l(2) =   0
                l(3) =   1
                l(4) =   1
                l(5) =   2
                l(6) =   2
                l(7) =   3
                l(8) =   3

     PseudoPot. # 3 for Sb read from file:
     /home/pragov/projects/rrg-bengioy-ad/pragov/crystal_structure_design/SSSP/sb_pbe_v1.4.uspp.F.UPF
     MD5 check sum: 9bc50dfb53373b713f5709b9110fe27f
     Pseudo is Ultrasoft + core correction, Zval = 15.0
     Generated by new atomic code, or converted to UPF format
     Using radial grid of  891 points,  6 beta functions with: 
                l(1) =   0
                l(2) =   0
                l(3) =   1
                l(4) =   1
                l(5) =   2
                l(6) =   2
     Q(r) pseudized with  8 coefficients,  rinner =    1.350   1.350   1.350
                                                       1.350   1.350

     PseudoPot. # 4 for I  read from file:
     /home/pragov/projects/rrg-bengioy-ad/pragov/crystal_structure_design/SSSP/I.pbe-n-kjpaw_psl.0.2.UPF
     MD5 check sum: d4ef18d9c8f18dc85e5843bca1e50dc0
     Pseudo is Projector augmented-wave + core cor, Zval =  7.0
     Generated using "atomic" code by A. Dal Corso  v.5.0.99 svn rev. 10869
     Shape of augmentation charge: PSQ
     Using radial grid of 1247 points,  4 beta functions with: 
                l(1) =   0
                l(2) =   0
                l(3) =   1
                l(4) =   1
     Q(r) pseudized with 0 coefficients 


     atomic species   valence    mass     pseudopotential
        Cs             9.00   132.90545     Cs( 1.00)
        Hg            20.00   200.59200     Hg( 1.00)
        Sb            15.00   121.76000     Sb( 1.00)
        I              7.00   126.90447     I ( 1.00)

     12 Sym. Ops., with inversion, found


                                    s                        frac. trans.

      isym =  1     identity                                     

 cryst.   s( 1) = (     1          0          0      )
                  (     0          1          0      )
                  (     0          0          1      )

 cart.    s( 1) = (  1.0000000  0.0000000  0.0000000 )
                  (  0.0000000  1.0000000 -0.0000000 )
                  (  0.0000000  0.0000000  1.0000000 )


      isym =  2     180 deg rotation - cart. axis [1,0,0]        

 cryst.   s( 2) = (     1          0          0      )
                  (     1         -1          0      )
                  (     1          0         -1      )

 cart.    s( 2) = (  1.0000000  0.0000000 -0.0000000 )
                  (  0.0000000 -1.0000000  0.0000000 )
                  (  0.0000000  0.0000000 -1.0000000 )


      isym =  3     120 deg rotation - cryst. axis [0,0,1]       

 cryst.   s( 3) = (    -1          1          0      )
                  (    -1          0          0      )
                  (    -1          0          1      )

 cart.    s( 3) = ( -0.5000000 -0.8660254 -0.0000000 )
                  (  0.8660254 -0.5000000 -0.0000000 )
                  (  0.0000000  0.0000000  1.0000000 )


      isym =  4     120 deg rotation - cryst. axis [0,0,-1]      

 cryst.   s( 4) = (     0         -1          0      )
                  (     1         -1          0      )
                  (     0         -1          1      )

 cart.    s( 4) = ( -0.5000000  0.8660254  0.0000000 )
                  ( -0.8660254 -0.5000000 -0.0000000 )
                  (  0.0000000  0.0000000  1.0000000 )


      isym =  5     180 deg rotation - cryst. axis [0,1,0]       

 cryst.   s( 5) = (     0         -1          0      )
                  (    -1          0          0      )
                  (     0          0         -1      )

 cart.    s( 5) = ( -0.5000000 -0.8660254 -0.0000000 )
                  ( -0.8660254  0.5000000  0.0000000 )
                  (  0.0000000  0.0000000 -1.0000000 )


      isym =  6     180 deg rotation - cryst. axis [1,1,0]       

 cryst.   s( 6) = (    -1          1          0      )
                  (     0          1          0      )
                  (     0          1         -1      )

 cart.    s( 6) = ( -0.5000000  0.8660254  0.0000000 )
                  (  0.8660254  0.5000000  0.0000000 )
                  (  0.0000000  0.0000000 -1.0000000 )


      isym =  7     inversion                                    

 cryst.   s( 7) = (    -1          0          0      )
                  (     0         -1          0      )
                  (     0          0         -1      )

 cart.    s( 7) = ( -1.0000000  0.0000000  0.0000000 )
                  (  0.0000000 -1.0000000  0.0000000 )
                  (  0.0000000  0.0000000 -1.0000000 )


      isym =  8     inv. 180 deg rotation - cart. axis [1,0,0]   

 cryst.   s( 8) = (    -1          0          0      )
                  (    -1          1          0      )
                  (    -1          0          1      )

 cart.    s( 8) = ( -1.0000000  0.0000000  0.0000000 )
                  (  0.0000000  1.0000000 -0.0000000 )
                  (  0.0000000  0.0000000  1.0000000 )


      isym =  9     inv. 120 deg rotation - cryst. axis [0,0,1]  

 cryst.   s( 9) = (     1         -1          0      )
                  (     1          0          0      )
                  (     1          0         -1      )

 cart.    s( 9) = (  0.5000000  0.8660254  0.0000000 )
                  ( -0.8660254  0.5000000  0.0000000 )
                  (  0.0000000  0.0000000 -1.0000000 )


      isym = 10     inv. 120 deg rotation - cryst. axis [0,0,-1] 

 cryst.   s(10) = (     0          1          0      )
                  (    -1          1          0      )
                  (     0          1         -1      )

 cart.    s(10) = (  0.5000000 -0.8660254 -0.0000000 )
                  (  0.8660254  0.5000000  0.0000000 )
                  (  0.0000000  0.0000000 -1.0000000 )


      isym = 11     inv. 180 deg rotation - cryst. axis [0,1,0]  

 cryst.   s(11) = (     0          1          0      )
                  (     1          0          0      )
                  (     0          0          1      )

 cart.    s(11) = (  0.5000000  0.8660254  0.0000000 )
                  (  0.8660254 -0.5000000 -0.0000000 )
                  (  0.0000000  0.0000000  1.0000000 )


      isym = 12     inv. 180 deg rotation - cryst. axis [1,1,0]  

 cryst.   s(12) = (     1         -1          0      )
                  (     0         -1          0      )
                  (     0         -1          1      )

 cart.    s(12) = (  0.5000000 -0.8660254 -0.0000000 )
                  ( -0.8660254 -0.5000000 -0.0000000 )
                  (  0.0000000  0.0000000  1.0000000 )


   Cartesian axes

     site n.     atom                  positions (alat units)
         1           Cs  tau(   1) = (   1.5000000   0.8660254   0.6123724  )
         2           Cs  tau(   2) = (   0.5000000   0.2886751   0.2041241  )
         3           Hg  tau(   3) = (   1.0000000   0.5773503   0.4082483  )
         4           Sb  tau(   4) = (   0.0000000   0.0000000   0.0000000  )
         5           I   tau(   5) = (   1.0000000   0.2835933   0.2005307  )
         6           I   tau(   6) = (   0.7455990   0.4304718   0.6159658  )
         7           I   tau(   7) = (   1.0000000   0.8711072   0.6159658  )
         8           I   tau(   8) = (   0.7455990   0.7242288   0.2005307  )
         9           I   tau(   9) = (   1.2544010   0.4304718   0.6159658  )
        10           I   tau(  10) = (   1.2544010   0.7242288   0.2005307  )

   Crystallographic axes

     site n.     atom                  positions (cryst. coord.)
         1           Cs  tau(   1) = (  0.7500000  0.7500000  0.7500000  )
         2           Cs  tau(   2) = (  0.2500000  0.2500000  0.2500000  )
         3           Hg  tau(   3) = (  0.5000000  0.5000000  0.5000000  )
         4           Sb  tau(   4) = (  0.0000000  0.0000000  0.0000000  )
         5           I   tau(   5) = (  0.7544010  0.2455990  0.2455990  )
         6           I   tau(   6) = (  0.2455990  0.2455990  0.7544010  )
         7           I   tau(   7) = (  0.2455990  0.7544010  0.7544010  )
         8           I   tau(   8) = (  0.2455990  0.7544010  0.2455990  )
         9           I   tau(   9) = (  0.7544010  0.2455990  0.7544010  )
        10           I   tau(  10) = (  0.7544010  0.7544010  0.2455990  )

     number of k points=     1  Methfessel-Paxton smearing, width (Ry)=  0.0010
                       cart. coord. in units 2pi/alat
        k(    1) = (   0.0000000   0.0000000   0.0000000), wk =   2.0000000

                       cryst. coord.
        k(    1) = (   0.0000000   0.0000000   0.0000000), wk =   2.0000000

     Dense  grid:   100417 G-vectors     FFT dimensions: (  81,  81,  81)

     Smooth grid:    35493 G-vectors     FFT dimensions: (  60,  60,  60)

     Dynamical RAM for                 wfc:       3.93 MB

     Dynamical RAM for     wfc (w. buffer):       3.93 MB

     Dynamical RAM for           str. fact:       6.13 MB

     Dynamical RAM for           local pot:       0.00 MB

     Dynamical RAM for          nlocal pot:       9.09 MB

     Dynamical RAM for                qrad:      11.94 MB

     Dynamical RAM for          rho,v,vnew:      16.76 MB

     Dynamical RAM for               rhoin:       5.59 MB

     Dynamical RAM for            rho*nmix:      24.52 MB

     Dynamical RAM for           G-vectors:       6.02 MB

     Dynamical RAM for          h,s,v(r/c):       0.31 MB

     Dynamical RAM for          <psi|beta>:       0.06 MB

     Dynamical RAM for                 psi:       7.87 MB

     Dynamical RAM for                hpsi:       7.87 MB

     Dynamical RAM for                spsi:       7.87 MB

     Dynamical RAM for      wfcinit/wfcrot:       9.47 MB

     Dynamical RAM for           addusdens:     312.58 MB

     Dynamical RAM for          addusforce:     328.69 MB

     Dynamical RAM for         addusstress:     344.75 MB

     Estimated static dynamical RAM per process >      87.39 MB

     Estimated max dynamical RAM per process >     456.66 MB

     Check: negative core charge=   -0.000001

     Initial potential from superposition of free atoms

     starting charge      93.9207, renormalised to      95.0000
     Starting wfcs are   69 randomized atomic wfcs
     Checking if some PAW data can be deallocated... 

     total cpu time spent up to now is        9.6 secs

     Self-consistent Calculation

     iteration #  1     ecut=    30.00 Ry     beta= 0.70
     Davidson diagonalization with overlap

---- Real-time Memory Report at c_bands before calling an iterative solver
           617 MiB given to the printing process from OS
             0 MiB allocation reported by mallinfo(arena+hblkhd)
        143258 MiB available memory on the node where the printing process lives
------------------
     ethr =  1.00E-02,  avg # of iterations =  3.0

     negative rho (up, down):  3.177E-04 0.000E+00

     total cpu time spent up to now is       11.3 secs

     total energy              =   -2893.68525958 Ry
     estimated scf accuracy    <       1.80835962 Ry

     iteration #  2     ecut=    30.00 Ry     beta= 0.70
     Davidson diagonalization with overlap

---- Real-time Memory Report at c_bands before calling an iterative solver
           808 MiB given to the printing process from OS
             0 MiB allocation reported by mallinfo(arena+hblkhd)
        143221 MiB available memory on the node where the printing process lives
------------------
     ethr =  1.90E-03,  avg # of iterations =  5.0

     negative rho (up, down):  4.873E-07 0.000E+00

     total cpu time spent up to now is       13.1 secs

     total energy              =   -2893.63035325 Ry
     estimated scf accuracy    <       6.33187562 Ry

     iteration #  3     ecut=    30.00 Ry     beta= 0.70
     Davidson diagonalization with overlap

---- Real-time Memory Report at c_bands before calling an iterative solver
           813 MiB given to the printing process from OS
             0 MiB allocation reported by mallinfo(arena+hblkhd)
        143217 MiB available memory on the node where the printing process lives
------------------
     ethr =  1.90E-03,  avg # of iterations =  4.0

     negative rho (up, down):  4.751E-05 0.000E+00

     total cpu time spent up to now is       14.8 secs

     total energy              =   -2894.70182209 Ry
     estimated scf accuracy    <       0.15447418 Ry

     iteration #  4     ecut=    30.00 Ry     beta= 0.70
     Davidson diagonalization with overlap

---- Real-time Memory Report at c_bands before calling an iterative solver
           814 MiB given to the printing process from OS
             0 MiB allocation reported by mallinfo(arena+hblkhd)
        143194 MiB available memory on the node where the printing process lives
------------------
     ethr =  1.63E-04,  avg # of iterations =  3.0

     negative rho (up, down):  6.161E-05 0.000E+00

     total cpu time spent up to now is       16.5 secs

     total energy              =   -2894.72485238 Ry
     estimated scf accuracy    <       0.03265123 Ry

     iteration #  5     ecut=    30.00 Ry     beta= 0.70
     Davidson diagonalization with overlap

---- Real-time Memory Report at c_bands before calling an iterative solver
           815 MiB given to the printing process from OS
             0 MiB allocation reported by mallinfo(arena+hblkhd)
        143192 MiB available memory on the node where the printing process lives
------------------
     ethr =  3.44E-05,  avg # of iterations =  4.0

     negative rho (up, down):  7.200E-05 0.000E+00

     total cpu time spent up to now is       18.1 secs

     total energy              =   -2894.72830569 Ry
     estimated scf accuracy    <       0.02902835 Ry

     iteration #  6     ecut=    30.00 Ry     beta= 0.70
     Davidson diagonalization with overlap

---- Real-time Memory Report at c_bands before calling an iterative solver
           816 MiB given to the printing process from OS
             0 MiB allocation reported by mallinfo(arena+hblkhd)
        143214 MiB available memory on the node where the printing process lives
------------------
     ethr =  3.06E-05,  avg # of iterations =  1.0

     negative rho (up, down):  8.314E-05 0.000E+00

     total cpu time spent up to now is       19.6 secs

     total energy              =   -2894.72859024 Ry
     estimated scf accuracy    <       0.02178454 Ry

     iteration #  7     ecut=    30.00 Ry     beta= 0.70
     Davidson diagonalization with overlap

---- Real-time Memory Report at c_bands before calling an iterative solver
           818 MiB given to the printing process from OS
             0 MiB allocation reported by mallinfo(arena+hblkhd)
        143191 MiB available memory on the node where the printing process lives
------------------
     ethr =  2.29E-05,  avg # of iterations =  1.0

     negative rho (up, down):  8.520E-05 0.000E+00

     total cpu time spent up to now is       21.1 secs

     total energy              =   -2894.73041212 Ry
     estimated scf accuracy    <       0.02027679 Ry

     iteration #  8     ecut=    30.00 Ry     beta= 0.70
     Davidson diagonalization with overlap

---- Real-time Memory Report at c_bands before calling an iterative solver
           818 MiB given to the printing process from OS
             0 MiB allocation reported by mallinfo(arena+hblkhd)
        143188 MiB available memory on the node where the printing process lives
------------------
     ethr =  2.13E-05,  avg # of iterations =  1.0

     negative rho (up, down):  8.454E-05 0.000E+00

     total cpu time spent up to now is       22.6 secs

     total energy              =   -2894.73053808 Ry
     estimated scf accuracy    <       0.01822638 Ry

     iteration #  9     ecut=    30.00 Ry     beta= 0.70
     Davidson diagonalization with overlap

---- Real-time Memory Report at c_bands before calling an iterative solver
           822 MiB given to the printing process from OS
             0 MiB allocation reported by mallinfo(arena+hblkhd)
        143163 MiB available memory on the node where the printing process lives
------------------
     ethr =  1.92E-05,  avg # of iterations =  1.0

     negative rho (up, down):  8.286E-05 0.000E+00

     total cpu time spent up to now is       24.1 secs

     total energy              =   -2894.73066648 Ry
     estimated scf accuracy    <       0.00963320 Ry

     iteration # 10     ecut=    30.00 Ry     beta= 0.70
     Davidson diagonalization with overlap

---- Real-time Memory Report at c_bands before calling an iterative solver
           822 MiB given to the printing process from OS
             0 MiB allocation reported by mallinfo(arena+hblkhd)
        143161 MiB available memory on the node where the printing process lives
------------------
     ethr =  1.01E-05,  avg # of iterations =  1.0
     Minimization algorithm failed to find Fermi energy: reverting to bisection
     Possible cause: smearing is larger than the electronic band-gap.

     negative rho (up, down):  7.882E-05 0.000E+00

     total cpu time spent up to now is       25.6 secs

     total energy              =   -2894.73044088 Ry
     estimated scf accuracy    <       0.00463612 Ry

     iteration # 11     ecut=    30.00 Ry     beta= 0.70
     Davidson diagonalization with overlap

---- Real-time Memory Report at c_bands before calling an iterative solver
           822 MiB given to the printing process from OS
             0 MiB allocation reported by mallinfo(arena+hblkhd)
        143161 MiB available memory on the node where the printing process lives
------------------
     ethr =  4.88E-06,  avg # of iterations =  1.0
     Minimization algorithm failed to find Fermi energy: reverting to bisection
     Possible cause: smearing is larger than the electronic band-gap.

     negative rho (up, down):  7.862E-05 0.000E+00

     total cpu time spent up to now is       27.0 secs

     total energy              =   -2894.73062823 Ry
     estimated scf accuracy    <       0.00616210 Ry

     iteration # 12     ecut=    30.00 Ry     beta= 0.70
     Davidson diagonalization with overlap

---- Real-time Memory Report at c_bands before calling an iterative solver
           822 MiB given to the printing process from OS
             0 MiB allocation reported by mallinfo(arena+hblkhd)
        143163 MiB available memory on the node where the printing process lives
------------------
     ethr =  4.88E-06,  avg # of iterations =  1.0
     Minimization algorithm failed to find Fermi energy: reverting to bisection
     Possible cause: smearing is larger than the electronic band-gap.

     negative rho (up, down):  7.870E-05 0.000E+00

     total cpu time spent up to now is       28.6 secs

     total energy              =   -2894.73049329 Ry
     estimated scf accuracy    <       0.00616320 Ry

     iteration # 13     ecut=    30.00 Ry     beta= 0.70
     Davidson diagonalization with overlap

---- Real-time Memory Report at c_bands before calling an iterative solver
           822 MiB given to the printing process from OS
             0 MiB allocation reported by mallinfo(arena+hblkhd)
        143162 MiB available memory on the node where the printing process lives
------------------
     ethr =  4.88E-06,  avg # of iterations =  1.0
     Minimization algorithm failed to find Fermi energy: reverting to bisection
     Possible cause: smearing is larger than the electronic band-gap.

     negative rho (up, down):  7.892E-05 0.000E+00

     total cpu time spent up to now is       30.1 secs

     total energy              =   -2894.73067247 Ry
     estimated scf accuracy    <       0.00091531 Ry

     iteration # 14     ecut=    30.00 Ry     beta= 0.70
     Davidson diagonalization with overlap

---- Real-time Memory Report at c_bands before calling an iterative solver
           822 MiB given to the printing process from OS
             0 MiB allocation reported by mallinfo(arena+hblkhd)
        143162 MiB available memory on the node where the printing process lives
------------------
     ethr =  9.63E-07,  avg # of iterations =  1.0
     Minimization algorithm failed to find Fermi energy: reverting to bisection
     Possible cause: smearing is larger than the electronic band-gap.

     negative rho (up, down):  7.889E-05 0.000E+00

     total cpu time spent up to now is       31.6 secs

     total energy              =   -2894.73068670 Ry
     estimated scf accuracy    <       0.00014517 Ry

     iteration # 15     ecut=    30.00 Ry     beta= 0.70
     Davidson diagonalization with overlap

---- Real-time Memory Report at c_bands before calling an iterative solver
           822 MiB given to the printing process from OS
             0 MiB allocation reported by mallinfo(arena+hblkhd)
        143163 MiB available memory on the node where the printing process lives
------------------
     ethr =  1.53E-07,  avg # of iterations =  1.0
     Minimization algorithm failed to find Fermi energy: reverting to bisection
     Possible cause: smearing is larger than the electronic band-gap.

     negative rho (up, down):  7.875E-05 0.000E+00

     total cpu time spent up to now is       33.1 secs

     total energy              =   -2894.73068420 Ry
     estimated scf accuracy    <       0.00020440 Ry

     iteration # 16     ecut=    30.00 Ry     beta= 0.70
     Davidson diagonalization with overlap

---- Real-time Memory Report at c_bands before calling an iterative solver
           822 MiB given to the printing process from OS
             0 MiB allocation reported by mallinfo(arena+hblkhd)
        143144 MiB available memory on the node where the printing process lives
------------------
     ethr =  1.53E-07,  avg # of iterations =  1.0
     Minimization algorithm failed to find Fermi energy: reverting to bisection
     Possible cause: smearing is larger than the electronic band-gap.

     negative rho (up, down):  7.859E-05 0.000E+00

     total cpu time spent up to now is       34.7 secs

     total energy              =   -2894.73068879 Ry
     estimated scf accuracy    <       0.00000350 Ry

     iteration # 17     ecut=    30.00 Ry     beta= 0.70
     Davidson diagonalization with overlap

---- Real-time Memory Report at c_bands before calling an iterative solver
           822 MiB given to the printing process from OS
             0 MiB allocation reported by mallinfo(arena+hblkhd)
        143144 MiB available memory on the node where the printing process lives
------------------
     ethr =  3.69E-09,  avg # of iterations =  6.0
     Minimization algorithm failed to find Fermi energy: reverting to bisection
     Possible cause: smearing is larger than the electronic band-gap.

     negative rho (up, down):  7.854E-05 0.000E+00

     total cpu time spent up to now is       36.2 secs

     End of self-consistent calculation

          k = 0.0000 0.0000 0.0000 (  4437 PWs)   bands (ev):

  -112.0601 -59.9065 -59.9064 -59.9064 -25.9579 -25.9579 -25.9578 -25.9577
   -25.9577 -17.9526 -17.9515  -8.8105  -8.1341  -8.1341  -8.1340  -7.9620
    -7.9620  -5.2349  -4.7670  -4.7670  -4.7670  -4.7467  -4.7467  -4.7467
    -2.7858  -2.7858  -2.6598  -2.6598  -2.6598  -0.4424  -0.2386  -0.2386
    -0.2385   1.3834   1.3834   1.3835   2.2958   2.2958   2.2958   2.4338
     2.4338   2.4338   2.4511   2.4512   2.9114   2.9114   2.9114   5.0141
     5.0141   5.0142   5.1210   6.7203   7.4941   7.5811   7.5812   8.3811
     8.3815   8.3818

     occupation numbers 
     1.0000   1.0000   1.0000   1.0000   1.0000   1.0000   1.0000   1.0000
     1.0000   1.0000   1.0000   1.0000   1.0000   1.0000   1.0000   1.0000
     1.0000   1.0000   1.0000   1.0000   1.0000   1.0000   1.0000   1.0000
     1.0000   1.0000   1.0000   1.0000   1.0000   1.0000   1.0000   1.0000
     1.0000   1.0000   1.0000   1.0000   1.0000   1.0000   1.0000   1.0000
     1.0000   1.0000   1.0000   1.0000   1.0000   1.0000   1.0000   0.1678
     0.1668   0.1655  -0.0000  -0.0000  -0.0000  -0.0000  -0.0000  -0.0000
    -0.0000  -0.0000

     the Fermi energy is     5.0082 ev

!    total energy              =   -2894.73068891 Ry
     estimated scf accuracy    <       0.00000021 Ry
     smearing contrib. (-TS)   =      -0.00043272 Ry
     internal energy E=F+TS    =   -2894.73025619 Ry

     The total energy is F=E-TS. E is the sum of the following terms:
     one-electron contribution =    -464.48555237 Ry
     hartree contribution      =     259.34849006 Ry
     xc contribution           =    -382.57736301 Ry
     ewald contribution        =    -383.85205624 Ry
     one-center paw contrib.   =   -1923.16377464 Ry
      -> PAW hartree energy AE =      58.45288242 Ry
      -> PAW hartree energy PS =     -58.82256337 Ry
      -> PAW xc energy AE      =   -2165.75140094 Ry
      -> PAW xc energy PS      =     242.95730726 Ry
      -> total E_H with PAW    =     258.97880911 Ry
      -> total E_XC with PAW   =   -2305.37145669 Ry

     convergence has been achieved in  17 iterations

     negative rho (up, down):  7.854E-05 0.000E+00

     Forces acting on atoms (cartesian axes, Ry/au):

     atom    1 type  1   force =     0.00000000   -0.00000000    0.00000539
     atom    2 type  1   force =     0.00000000    0.00000000   -0.00000539
     atom    3 type  2   force =     0.00000000    0.00000000    0.00000000
     atom    4 type  3   force =    -0.00000000   -0.00000000    0.00000000
     atom    5 type  4   force =     0.00000000   -0.00530386   -0.00379401
     atom    6 type  4   force =    -0.00459328   -0.00265193    0.00379401
     atom    7 type  4   force =     0.00000000    0.00530386    0.00379401
     atom    8 type  4   force =    -0.00459328    0.00265193   -0.00379401
     atom    9 type  4   force =     0.00459328   -0.00265193    0.00379401
     atom   10 type  4   force =     0.00459328    0.00265193   -0.00379401
     The non-local contrib.  to forces
     atom    1 type  1   force =     0.00000000    0.00000000    0.00001336
     atom    2 type  1   force =     0.00000000    0.00000000   -0.00001336
     atom    3 type  2   force =    -0.00000000   -0.00000000    0.00000000
     atom    4 type  3   force =    -0.00000000   -0.00000000    0.00000000
     atom    5 type  4   force =     0.00000000   -0.02795745   -0.01978572
     atom    6 type  4   force =    -0.02421186   -0.01397872    0.01978572
     atom    7 type  4   force =     0.00000000    0.02795745    0.01978572
     atom    8 type  4   force =    -0.02421186    0.01397872   -0.01978572
     atom    9 type  4   force =     0.02421186   -0.01397872    0.01978572
     atom   10 type  4   force =     0.02421186    0.01397872   -0.01978572
     The ionic contribution  to forces
     atom    1 type  1   force =     0.00000000    0.00000000    0.00000000
     atom    2 type  1   force =     0.00000000    0.00000000   -0.00000000
     atom    3 type  2   force =    -0.00000000   -0.00000000    0.00000000
     atom    4 type  3   force =    -0.00000000    0.00000000    0.00000000
     atom    5 type  4   force =     0.00000000   -0.62605528   -0.44268794
     atom    6 type  4   force =    -0.54217978   -0.31302764    0.44268794
     atom    7 type  4   force =     0.00000000    0.62605528    0.44268794
     atom    8 type  4   force =    -0.54217978    0.31302764   -0.44268794
     atom    9 type  4   force =     0.54217978   -0.31302764    0.44268794
     atom   10 type  4   force =     0.54217978    0.31302764   -0.44268794
     The local contribution  to forces
     atom    1 type  1   force =     0.00001187   -0.00000607    0.00003065
     atom    2 type  1   force =     0.00000048   -0.00002421   -0.00001086
     atom    3 type  2   force =     0.00001271    0.00002096   -0.00000826
     atom    4 type  3   force =     0.00004770   -0.00005558   -0.00000754
     atom    5 type  4   force =     0.00004576    0.64427027    0.45551415
     atom    6 type  4   force =     0.55793913    0.32216200   -0.45550551
     atom    7 type  4   force =    -0.00003532   -0.64427083   -0.45552756
     atom    8 type  4   force =     0.55795286   -0.32212661    0.45554180
     atom    9 type  4   force =    -0.55795548    0.32211906   -0.45554693
     atom   10 type  4   force =    -0.55795241   -0.32216050    0.45550716
     The core correction contribution to forces
     atom    1 type  1   force =    -0.00000004    0.00000029   -0.00000188
     atom    2 type  1   force =     0.00000327   -0.00000369    0.00000329
     atom    3 type  2   force =     0.00000000    0.00000000    0.00000000
     atom    4 type  3   force =     0.00000151   -0.00000084   -0.00000075
     atom    5 type  4   force =     0.00000510    0.00448944    0.00316688
     atom    6 type  4   force =     0.00389277    0.00225247   -0.00317256
     atom    7 type  4   force =    -0.00000549   -0.00448815   -0.00316925
     atom    8 type  4   force =     0.00388714   -0.00224357    0.00317109
     atom    9 type  4   force =    -0.00388675    0.00224207   -0.00317074
     atom   10 type  4   force =    -0.00389489   -0.00225178    0.00317274
     The Hubbard contrib.    to forces
     atom    1 type  1   force =     0.00000000    0.00000000    0.00000000
     atom    2 type  1   force =     0.00000000    0.00000000    0.00000000
     atom    3 type  2   force =     0.00000000    0.00000000    0.00000000
     atom    4 type  3   force =     0.00000000    0.00000000    0.00000000
     atom    5 type  4   force =     0.00000000    0.00000000    0.00000000
     atom    6 type  4   force =     0.00000000    0.00000000    0.00000000
     atom    7 type  4   force =     0.00000000    0.00000000    0.00000000
     atom    8 type  4   force =     0.00000000    0.00000000    0.00000000
     atom    9 type  4   force =     0.00000000    0.00000000    0.00000000
     atom   10 type  4   force =     0.00000000    0.00000000    0.00000000
     The SCF correction term to forces
     atom    1 type  1   force =    -0.00001646    0.00000096   -0.00002947
     atom    2 type  1   force =     0.00001546    0.00000220    0.00002280
     atom    3 type  2   force =    -0.00002240   -0.00001501    0.00003915
     atom    4 type  3   force =    -0.00005541    0.00005730    0.00000897
     atom    5 type  4   force =    -0.00001741   -0.00005000   -0.00001127
     atom    6 type  4   force =    -0.00003902   -0.00003483    0.00000889
     atom    7 type  4   force =     0.00001287    0.00004523    0.00001022
     atom    8 type  4   force =    -0.00005138    0.00002265   -0.00001964
     atom    9 type  4   force =     0.00005052   -0.00001943    0.00002941
     atom   10 type  4   force =     0.00004833    0.00003804   -0.00000908

     Total force =     0.015974     Total SCF correction =     0.000173


     Computing stress (Cartesian axis) and pressure


     negative rho (up, down):  7.854E-05 0.000E+00
          total   stress  (Ry/bohr**3)                   (kbar)     P=      -48.85
  -0.00033197   0.00000000   0.00000000          -48.83        0.00        0.00
   0.00000000  -0.00033197  -0.00000000            0.00      -48.83       -0.00
   0.00000000  -0.00000000  -0.00033229            0.00       -0.00      -48.88

     kinetic stress (kbar)   5860.53     -0.00      0.00
                               -0.00   5860.53      0.00
                                0.00      0.00   5860.56

     local   stress (kbar)  -3421.58      0.23      0.07
                                0.23  -3421.52     -0.06
                                0.07     -0.06  -3421.95

     nonloc. stress (kbar)   1215.41      0.00      0.00
                                0.00   1215.41      0.00
                                0.00      0.00   1215.49

     hartree stress (kbar)   3969.84     -0.14     -0.04
                               -0.14   3969.81      0.03
                               -0.04      0.03   3970.06

     exc-cor stress (kbar)  11525.76     -0.00     -0.00
                               -0.00  11525.76      0.00
                               -0.00      0.00  11525.76

     corecor stress (kbar) -13323.10      0.00      0.00
                                0.00 -13323.10     -0.00
                                0.00     -0.00 -13323.10

     ewald   stress (kbar)  -5875.71      0.00      0.00
                                0.00  -5875.71      0.00
                                0.00      0.00  -5875.71

     hubbard stress (kbar)      0.00      0.00      0.00
                                0.00      0.00      0.00
                                0.00      0.00      0.00

     DFT-D   stress (kbar)      0.00      0.00      0.00
                                0.00      0.00      0.00
                                0.00      0.00      0.00

     XDM     stress (kbar)      0.00      0.00      0.00
                                0.00      0.00      0.00
                                0.00      0.00      0.00

     dft-nl  stress (kbar)      0.00      0.00      0.00
                                0.00      0.00      0.00
                                0.00      0.00      0.00

     TS-vdW  stress (kbar)      0.00      0.00      0.00
                                0.00      0.00      0.00
                                0.00      0.00      0.00


                                0.00      0.00      0.00
                                0.00      0.00      0.00


                                0.00      0.00      0.00


     Writing all to output data dir new_calculations/myprefix.save/
 
     init_run     :    247.41s CPU      9.28s WALL (       1 calls)
     electrons    :    794.78s CPU     26.75s WALL (       1 calls)
     forces       :     10.26s CPU      0.35s WALL (       1 calls)
     stress       :     29.49s CPU      1.00s WALL (       1 calls)

     Called by init_run:
     wfcinit      :     42.89s CPU      1.38s WALL (       1 calls)
     wfcinit:atom :      0.12s CPU      0.00s WALL (       1 calls)
     wfcinit:wfcr :     42.02s CPU      1.35s WALL (       1 calls)
     potinit      :     46.44s CPU      1.60s WALL (       1 calls)
     hinit0       :    150.60s CPU      6.03s WALL (       1 calls)

     Called by electrons:
     c_bands      :    418.80s CPU     13.27s WALL (      17 calls)
     sum_band     :    183.85s CPU      7.02s WALL (      17 calls)
     v_of_rho     :     36.96s CPU      1.22s WALL (      18 calls)
     v_h          :      3.04s CPU      0.10s WALL (      18 calls)
     v_xc         :     37.47s CPU      1.24s WALL (      20 calls)
     newd         :    108.82s CPU      3.73s WALL (      18 calls)
     PAW_pot      :     38.83s CPU      1.27s WALL (      18 calls)
     mix_rho      :      9.41s CPU      0.31s WALL (      17 calls)

     Called by c_bands:
     init_us_2    :      0.55s CPU      0.02s WALL (      35 calls)
     init_us_2:cp :      0.50s CPU      0.02s WALL (      35 calls)
     regterg      :    416.43s CPU     13.20s WALL (      17 calls)

     Called by sum_band:
     sum_band:wei :      0.17s CPU      0.01s WALL (      17 calls)
     sum_band:loo :     86.42s CPU      2.73s WALL (      17 calls)
     sum_band:buf :      0.01s CPU      0.00s WALL (      17 calls)
     sum_band:ini :      0.27s CPU      0.01s WALL (      17 calls)
     sum_band:cal :      0.26s CPU      0.01s WALL (      17 calls)
     sum_band:bec :      0.06s CPU      0.00s WALL (      17 calls)
     addusdens    :     92.49s CPU      4.13s WALL (      17 calls)
     addusd:skk   :      0.67s CPU      0.04s WALL (      51 calls)
     addusd:dgemm :     13.74s CPU      1.45s WALL (      51 calls)
     addusd:qvan2 :     74.36s CPU      2.40s WALL (      51 calls)

     Called by *egterg:
     rdiaghg      :      5.40s CPU      0.17s WALL (      53 calls)
     regterg:over :      0.56s CPU      0.02s WALL (      36 calls)
     regterg:upda :      1.04s CPU      0.03s WALL (      36 calls)
     regterg:last :      1.65s CPU      0.05s WALL (      23 calls)
     h_psi        :    442.63s CPU     14.03s WALL (      54 calls)
     s_psi        :      0.27s CPU      0.01s WALL (      54 calls)
     g_psi        :      0.07s CPU      0.00s WALL (      36 calls)

     Called by h_psi:
     h_psi:calbec :      0.75s CPU      0.03s WALL (      54 calls)
     vloc_psi     :    440.83s CPU     13.96s WALL (      54 calls)
     add_vuspsi   :      0.51s CPU      0.02s WALL (      54 calls)

     General routines
     calbec       :      0.95s CPU      0.03s WALL (      76 calls)
     fft          :    144.62s CPU      5.26s WALL (     216 calls)
     ffts         :     37.84s CPU      1.30s WALL (      35 calls)
     fftw         :    464.69s CPU     14.65s WALL (    2689 calls)
     interpolate  :     40.38s CPU      1.39s WALL (      18 calls)
 
     Parallel routines

     PAW routines
     PAW_pot      :     38.83s CPU      1.27s WALL (      18 calls)
     PAW_symme    :      0.12s CPU      0.00s WALL (      35 calls)
 
     PWSCF        :  18m 9.26s CPU     38.31s WALL

 
   This run was terminated on:  23:19:16  20May2023            

=------------------------------------------------------------------------------=
   JOB DONE.
=------------------------------------------------------------------------------=
