
     Program PWSCF v.7.1 starts on 16Jul2023 at 17:12: 8 

     This program is part of the open-source Quantum ESPRESSO suite
     for quantum simulation of materials; please cite
         "P. Giannozzi et al., J. Phys.:Condens. Matter 21 395502 (2009);
         "P. Giannozzi et al., J. Phys.:Condens. Matter 29 465901 (2017);
         "P. Giannozzi et al., J. Chem. Phys. 152 154105 (2020);
          URL http://www.quantum-espresso.org", 
     in publications or presentations arising from this work. More details at
     http://www.quantum-espresso.org/quote

     Parallel version (MPI & OpenMP), running on      32 processor cores
     Number of MPI processes:                 8
     Threads/MPI process:                     4

     MPI processes distributed on     1 nodes
     124495 MiB available memory on the printing compute node when the environment starts
 
     Reading input from espresso_15925.pwi
Warning: card &CELL ignored
Warning: card / ignored

     Current dimensions of program PWSCF are:
     Max number of different atomic species (ntypx) = 10
     Max number of k-points (npk) =  40000
     Max angular momentum in pseudopotentials (lmaxx) =  4
     Message from routine setup:
     using ibrav=0 with symmetry is DISCOURAGED, use correct ibrav instead
 
     K-points division:     npool     =       2
     R & G space division:  proc/nbgrp/npool/nimage =       4
     Subspace diagonalization in iterative solution of the eigenvalue problem:
     a serial algorithm will be used

 
     Parallelization info
     --------------------
     sticks:   dense  smooth     PW     G-vecs:    dense   smooth      PW
     Min         281     139     46                 3809     1349     255
     Max         283     140     47                 3810     1351     256
     Sum        1127     559    187                15239     5401    1023
 
     Using Slab Decomposition
 


     bravais-lattice index     =            0
     lattice parameter (alat)  =       8.2259  a.u.
     unit-cell volume          =     241.6615 (a.u.)^3
     number of atoms/cell      =            3
     number of atomic types    =            2
     number of electrons       =        22.00
     number of Kohn-Sham states=           15
     kinetic-energy cutoff     =      30.0000  Ry
     charge density cutoff     =     240.0000  Ry
     scf convergence threshold =      1.0E-06
     mixing beta               =       0.7000
     number of iterations used =            8  plain     mixing
     Exchange-correlation= PBE
                           (   1   4   3   4   0   0   0)

     celldm(1)=   8.225895  celldm(2)=   0.000000  celldm(3)=   0.000000
     celldm(4)=   0.000000  celldm(5)=   0.000000  celldm(6)=   0.000000

     crystal axes: (cart. coord. in units of alat)
               a(1) = (   1.000000   0.000000   0.000000 )  
               a(2) = (   0.498398   0.866948   0.000000 )  
               a(3) = (  -0.749199  -0.433474   0.500800 )  

     reciprocal axes: (cart. coord. in units 2 pi/alat)
               b(1) = (  1.000000 -0.574888  0.998402 )  
               b(2) = (  0.000000  1.153471  0.998402 )  
               b(3) = (  0.000000  0.000000  1.996804 )  


     PseudoPot. # 1 for Cr read from file:
     /lustre07/scratch/pragov/crystal_structure_design/utils/SSSP/cr_pbe_v1.5.uspp.F.UPF
     MD5 check sum: 0d52af634a40206e4dee301ad30da4bf
     Pseudo is Ultrasoft + core correction, Zval = 14.0
     Generated by new atomic code, or converted to UPF format
     Using radial grid of  857 points,  6 beta functions with: 
                l(1) =   0
                l(2) =   0
                l(3) =   1
                l(4) =   1
                l(5) =   2
                l(6) =   2
     Q(r) pseudized with  8 coefficients,  rinner =    0.950   0.950   0.950
                                                       0.950   0.950

     PseudoPot. # 2 for Si read from file:
     /lustre07/scratch/pragov/crystal_structure_design/utils/SSSP/Si.pbe-n-rrkjus_psl.1.0.0.UPF
     MD5 check sum: 0b0bb1205258b0d07b9f9672cf965d36
     Pseudo is Ultrasoft + core correction, Zval =  4.0
     Generated using "atomic" code by A. Dal Corso  v.5.1
     Using radial grid of 1141 points,  6 beta functions with: 
                l(1) =   0
                l(2) =   0
                l(3) =   1
                l(4) =   1
                l(5) =   2
                l(6) =   2
     Q(r) pseudized with 0 coefficients 


     atomic species   valence    mass     pseudopotential
        Cr            14.00    51.99610     Cr( 1.00)
        Si             4.00    28.08500     Si( 1.00)

      4 Sym. Ops., with inversion, found


                                    s                        frac. trans.

      isym =  1     identity                                     

 cryst.   s( 1) = (     1          0          0      )
                  (     0          1          0      )
                  (     0          0          1      )

 cart.    s( 1) = (  1.0000000  0.0000000  0.0000000 )
                  (  0.0000000  1.0000000  0.0000000 )
                  (  0.0000000  0.0000000  1.0000000 )


      isym =  2     180 deg rotation - cart. axis [0,0,1]        

 cryst.   s( 2) = (    -1          0          0      )
                  (     0         -1          0      )
                  (     1          1          1      )

 cart.    s( 2) = ( -1.0000000  0.0000000  0.0000000 )
                  (  0.0000000 -1.0000000  0.0000000 )
                  (  0.0000000  0.0000000  1.0000000 )


      isym =  3     inversion                                    

 cryst.   s( 3) = (    -1          0          0      )
                  (     0         -1          0      )
                  (     0          0         -1      )

 cart.    s( 3) = ( -1.0000000  0.0000000 -0.0000000 )
                  (  0.0000000 -1.0000000 -0.0000000 )
                  (  0.0000000  0.0000000 -1.0000000 )


      isym =  4     inv. 180 deg rotation - cart. axis [0,0,1]   

 cryst.   s( 4) = (     1          0          0      )
                  (     0          1          0      )
                  (    -1         -1         -1      )

 cart.    s( 4) = (  1.0000000  0.0000000 -0.0000000 )
                  (  0.0000000  1.0000000 -0.0000000 )
                  (  0.0000000  0.0000000 -1.0000000 )


   Cartesian axes

     site n.     atom                  positions (alat units)
         1           Cr  tau(   1) = (   0.0000000   0.0000000   0.0000000  )
         2           Si  tau(   2) = (   0.9933854   0.5747564   0.0000000  )
         3           Si  tau(   3) = (   0.5050126   0.2921919   0.0000000  )

   Crystallographic axes

     site n.     atom                  positions (cryst. coord.)
         1           Cr  tau(   1) = (  0.0000000  0.0000000  0.0000000  )
         2           Si  tau(   2) = (  0.6629650  0.6629650  0.0000000  )
         3           Si  tau(   3) = (  0.3370350  0.3370350  0.0000000  )

     number of k points=    10  Gaussian smearing, width (Ry)=  0.0010
                       cart. coord. in units 2pi/alat
        k(    1) = (   0.0000000   0.0000000   0.0000000), wk =   0.0740741
        k(    2) = (   0.0000000   0.0000000   0.6656012), wk =   0.1481481
        k(    3) = (   0.0000000   0.3844904   0.3328006), wk =   0.2962963
        k(    4) = (   0.0000000   0.3844904   0.9984018), wk =   0.1481481
        k(    5) = (   0.3333333  -0.1916292   0.3328006), wk =   0.2962963
        k(    6) = (   0.3333333  -0.1916292   0.9984018), wk =   0.1481481
        k(    7) = (   0.3333333   0.1928612   0.6656012), wk =   0.2962963
        k(    8) = (   0.3333333   0.1928612  -0.0000000), wk =   0.1481481
        k(    9) = (   0.3333333  -0.5761196   0.0000000), wk =   0.1481481
        k(   10) = (   0.3333333  -0.5761196   0.6656012), wk =   0.2962963

                       cryst. coord.
        k(    1) = (   0.0000000   0.0000000   0.0000000), wk =   0.0740741
        k(    2) = (   0.0000000   0.0000000   0.3333333), wk =   0.1481481
        k(    3) = (   0.0000000   0.3333333   0.0000000), wk =   0.2962963
        k(    4) = (   0.0000000   0.3333333   0.3333333), wk =   0.1481481
        k(    5) = (   0.3333333   0.0000000   0.0000000), wk =   0.2962963
        k(    6) = (   0.3333333   0.0000000   0.3333333), wk =   0.1481481
        k(    7) = (   0.3333333   0.3333333   0.0000000), wk =   0.2962963
        k(    8) = (   0.3333333   0.3333333  -0.3333333), wk =   0.1481481
        k(    9) = (   0.3333333  -0.3333333  -0.0000000), wk =   0.1481481
        k(   10) = (   0.3333333  -0.3333333   0.3333333), wk =   0.2962963

     Dense  grid:    15239 G-vectors     FFT dimensions: (  45,  45,  45)

     Smooth grid:     5401 G-vectors     FFT dimensions: (  30,  30,  30)

     Dynamical RAM for                 wfc:       0.04 MB

     Dynamical RAM for     wfc (w. buffer):       0.23 MB

     Dynamical RAM for           str. fact:       0.12 MB

     Dynamical RAM for           local pot:       0.00 MB

     Dynamical RAM for          nlocal pot:       0.14 MB

     Dynamical RAM for                qrad:       2.49 MB

     Dynamical RAM for          rho,v,vnew:       0.73 MB

     Dynamical RAM for               rhoin:       0.24 MB

     Dynamical RAM for            rho*nmix:       0.93 MB

     Dynamical RAM for           G-vectors:       0.23 MB

     Dynamical RAM for          h,s,v(r/c):       0.04 MB

     Dynamical RAM for          <psi|beta>:       0.01 MB

     Dynamical RAM for                 psi:       0.08 MB

     Dynamical RAM for                hpsi:       0.08 MB

     Dynamical RAM for                spsi:       0.08 MB

     Dynamical RAM for      wfcinit/wfcrot:       0.10 MB

     Dynamical RAM for           addusdens:       5.49 MB

     Estimated static dynamical RAM per process >       5.28 MB

     Estimated max dynamical RAM per process >      11.70 MB

     Estimated total dynamical RAM >      89.87 MB

     Check: negative core charge=   -0.000006

     Initial potential from superposition of free atoms

     starting charge      20.9989, renormalised to      22.0000

     negative rho (up, down):  8.784E-04 0.000E+00
     Starting wfcs are   18 randomized atomic wfcs

     total cpu time spent up to now is        0.4 secs

     Self-consistent Calculation

     iteration #  1     ecut=    30.00 Ry     beta= 0.70
     Davidson diagonalization with overlap

---- Real-time Memory Report at c_bands before calling an iterative solver
           188 MiB given to the printing process from OS
             0 MiB allocation reported by mallinfo(arena+hblkhd)
        124301 MiB available memory on the node where the printing process lives
------------------
     ethr =  1.00E-02,  avg # of iterations =  4.3

     negative rho (up, down):  2.897E-03 0.000E+00

     total cpu time spent up to now is        0.5 secs

     total energy              =    -196.96970727 Ry
     estimated scf accuracy    <       2.08780188 Ry

     iteration #  2     ecut=    30.00 Ry     beta= 0.70
     Davidson diagonalization with overlap

---- Real-time Memory Report at c_bands before calling an iterative solver
           192 MiB given to the printing process from OS
             0 MiB allocation reported by mallinfo(arena+hblkhd)
        124255 MiB available memory on the node where the printing process lives
------------------
     ethr =  9.49E-03,  avg # of iterations =  4.0

     negative rho (up, down):  7.846E-04 0.000E+00

     total cpu time spent up to now is        0.5 secs

     total energy              =    -195.42886398 Ry
     estimated scf accuracy    <      29.87576166 Ry

     iteration #  3     ecut=    30.00 Ry     beta= 0.70
     Davidson diagonalization with overlap

---- Real-time Memory Report at c_bands before calling an iterative solver
           193 MiB given to the printing process from OS
             0 MiB allocation reported by mallinfo(arena+hblkhd)
        124254 MiB available memory on the node where the printing process lives
------------------
     ethr =  9.49E-03,  avg # of iterations =  3.7

     negative rho (up, down):  8.155E-04 0.000E+00

     total cpu time spent up to now is        0.6 secs

     total energy              =    -198.37773589 Ry
     estimated scf accuracy    <       0.02742533 Ry

     iteration #  4     ecut=    30.00 Ry     beta= 0.70
     Davidson diagonalization with overlap

---- Real-time Memory Report at c_bands before calling an iterative solver
           193 MiB given to the printing process from OS
             0 MiB allocation reported by mallinfo(arena+hblkhd)
        124253 MiB available memory on the node where the printing process lives
------------------
     ethr =  1.25E-04,  avg # of iterations =  5.9

     negative rho (up, down):  8.483E-04 0.000E+00

     total cpu time spent up to now is        0.7 secs

     total energy              =    -198.38644937 Ry
     estimated scf accuracy    <       0.02514277 Ry

     iteration #  5     ecut=    30.00 Ry     beta= 0.70
     Davidson diagonalization with overlap

---- Real-time Memory Report at c_bands before calling an iterative solver
           193 MiB given to the printing process from OS
             0 MiB allocation reported by mallinfo(arena+hblkhd)
        124252 MiB available memory on the node where the printing process lives
------------------
     ethr =  1.14E-04,  avg # of iterations =  2.3

     negative rho (up, down):  8.923E-04 0.000E+00

     total cpu time spent up to now is        0.8 secs

     total energy              =    -198.38943244 Ry
     estimated scf accuracy    <       0.00719255 Ry

     iteration #  6     ecut=    30.00 Ry     beta= 0.70
     Davidson diagonalization with overlap

---- Real-time Memory Report at c_bands before calling an iterative solver
           193 MiB given to the printing process from OS
             0 MiB allocation reported by mallinfo(arena+hblkhd)
        124252 MiB available memory on the node where the printing process lives
------------------
     ethr =  3.27E-05,  avg # of iterations =  3.0

     negative rho (up, down):  8.879E-04 0.000E+00

     total cpu time spent up to now is        0.8 secs

     total energy              =    -198.38913986 Ry
     estimated scf accuracy    <       0.00505054 Ry

     iteration #  7     ecut=    30.00 Ry     beta= 0.70
     Davidson diagonalization with overlap

---- Real-time Memory Report at c_bands before calling an iterative solver
           193 MiB given to the printing process from OS
             0 MiB allocation reported by mallinfo(arena+hblkhd)
        124252 MiB available memory on the node where the printing process lives
------------------
     ethr =  2.30E-05,  avg # of iterations =  1.3

     negative rho (up, down):  8.860E-04 0.000E+00

     total cpu time spent up to now is        0.9 secs

     total energy              =    -198.38957376 Ry
     estimated scf accuracy    <       0.00010663 Ry

     iteration #  8     ecut=    30.00 Ry     beta= 0.70
     Davidson diagonalization with overlap

---- Real-time Memory Report at c_bands before calling an iterative solver
           193 MiB given to the printing process from OS
             0 MiB allocation reported by mallinfo(arena+hblkhd)
        124252 MiB available memory on the node where the printing process lives
------------------
     ethr =  4.85E-07,  avg # of iterations =  4.0

     negative rho (up, down):  8.858E-04 0.000E+00

     total cpu time spent up to now is        0.9 secs

     total energy              =    -198.38961703 Ry
     estimated scf accuracy    <       0.00000335 Ry

     iteration #  9     ecut=    30.00 Ry     beta= 0.70
     Davidson diagonalization with overlap

---- Real-time Memory Report at c_bands before calling an iterative solver
           193 MiB given to the printing process from OS
             0 MiB allocation reported by mallinfo(arena+hblkhd)
        124251 MiB available memory on the node where the printing process lives
------------------
     ethr =  1.52E-08,  avg # of iterations =  3.0

     negative rho (up, down):  8.859E-04 0.000E+00

     total cpu time spent up to now is        1.0 secs

     End of self-consistent calculation

          k = 0.0000 0.0000 0.0000 (   649 PWs)   bands (ev):

   -56.2060 -27.5610 -27.5558 -27.5558   0.9316   9.1795  11.6535  13.1042
    13.1642  13.1642  15.3114  17.7231  18.7531  18.7531  19.0457

     occupation numbers 
     1.0000   1.0000   1.0000   1.0000   1.0000   1.0000   1.0000   1.0000
     1.0000   1.0000   1.0000   0.0000   0.0000   0.0000   0.0000

          k = 0.0000 0.0000 0.6656 (   673 PWs)   bands (ev):

   -56.1975 -27.6222 -27.6154 -27.5538   4.1568   9.5136   9.6395  10.4401
    12.6492  12.8448  12.9389  17.0446  17.3110  17.3862  17.7663

     occupation numbers 
     1.0000   1.0000   1.0000   1.0000   1.0000   1.0000   1.0000   1.0000
     1.0000   1.0000   1.0000   0.0000   0.0000   0.0000   0.0000

          k = 0.0000 0.3845 0.3328 (   667 PWs)   bands (ev):

   -56.2019 -27.6265 -27.5604 -27.5542   2.8827   7.7596   9.8426  11.5595
    13.2687  13.5702  14.3739  16.2542  17.6405  18.6718  18.8230

     occupation numbers 
     1.0000   1.0000   1.0000   1.0000   1.0000   1.0000   1.0000   1.0000
     1.0000   1.0000   1.0000   0.0000   0.0000   0.0000   0.0000

          k = 0.0000 0.3845 0.9984 (   671 PWs)   bands (ev):

   -56.1974 -27.6192 -27.6176 -27.5542   5.0556   7.3480   9.3936  10.6967
    12.7165  13.2225  13.6870  15.9880  16.0707  17.5933  19.5834

     occupation numbers 
     1.0000   1.0000   1.0000   1.0000   1.0000   1.0000   1.0000   1.0000
     1.0000   1.0000   1.0000   0.0000   0.0000   0.0000   0.0000

          k = 0.3333-0.1916 0.3328 (   667 PWs)   bands (ev):

   -56.2019 -27.6265 -27.5604 -27.5542   2.8827   7.7596   9.8426  11.5595
    13.2688  13.5702  14.3739  16.2542  17.6405  18.6718  18.8229

     occupation numbers 
     1.0000   1.0000   1.0000   1.0000   1.0000   1.0000   1.0000   1.0000
     1.0000   1.0000   1.0000   0.0000   0.0000   0.0000   0.0000

          k = 0.3333-0.1916 0.9984 (   671 PWs)   bands (ev):

   -56.1974 -27.6192 -27.6176 -27.5542   5.0556   7.3480   9.3936  10.6967
    12.7165  13.2225  13.6870  15.9880  16.0707  17.5933  19.5834

     occupation numbers 
     1.0000   1.0000   1.0000   1.0000   1.0000   1.0000   1.0000   1.0000
     1.0000   1.0000   1.0000   0.0000   0.0000   0.0000   0.0000

          k = 0.3333 0.1929 0.6656 (   671 PWs)   bands (ev):

   -56.1974 -27.6193 -27.6175 -27.5542   5.0556   7.3480   9.3936  10.6967
    12.7165  13.2225  13.6870  15.9880  16.0707  17.5933  19.5834

     occupation numbers 
     1.0000   1.0000   1.0000   1.0000   1.0000   1.0000   1.0000   1.0000
     1.0000   1.0000   1.0000   0.0000   0.0000   0.0000   0.0000

          k = 0.3333 0.1929-0.0000 (   664 PWs)   bands (ev):

   -56.2065 -27.5721 -27.5599 -27.5598   1.9933   5.7124  12.6925  13.4977
    13.8817  13.8817  15.3621  15.9065  15.9066  19.0129  19.8856

     occupation numbers 
     1.0000   1.0000   1.0000   1.0000   1.0000   1.0000   1.0000   1.0000
     1.0000   1.0000   1.0000   0.0000   0.0000   0.0000   0.0000

          k = 0.3333-0.5761 0.0000 (   673 PWs)   bands (ev):

   -56.1975 -27.6221 -27.6155 -27.5538   4.1568   9.5136   9.6395  10.4402
    12.6492  12.8448  12.9389  17.0446  17.3110  17.3861  17.7664

     occupation numbers 
     1.0000   1.0000   1.0000   1.0000   1.0000   1.0000   1.0000   1.0000
     1.0000   1.0000   1.0000   0.0000   0.0000   0.0000   0.0000

          k = 0.3333-0.5761 0.6656 (   679 PWs)   bands (ev):

   -56.2022 -27.6279 -27.5640 -27.5585   4.2312   5.8474   8.1477  13.3449
    13.4840  13.6614  14.9284  15.8194  17.6285  18.3736  20.6346

     occupation numbers 
     1.0000   1.0000   1.0000   1.0000   1.0000   1.0000   1.0000   1.0000
     1.0000   1.0000   1.0000   0.0000   0.0000   0.0000   0.0000

     the Fermi energy is    15.6499 ev

!    total energy              =    -198.38961724 Ry
     estimated scf accuracy    <       0.00000072 Ry
     smearing contrib. (-TS)   =      -0.00000000 Ry
     internal energy E=F+TS    =    -198.38961724 Ry

     The total energy is F=E-TS. E is the sum of the following terms:
     one-electron contribution =     -90.05474055 Ry
     hartree contribution      =      57.13378266 Ry
     xc contribution           =     -35.14783796 Ry
     ewald contribution        =    -130.32082139 Ry

     convergence has been achieved in   9 iterations

     Writing all to output data dir energy_m/myprefix.save/
 
     init_run     :      0.52s CPU      0.25s WALL (       1 calls)
     electrons    :      2.43s CPU      0.64s WALL (       1 calls)

     Called by init_run:
     wfcinit      :      0.06s CPU      0.01s WALL (       1 calls)
     wfcinit:atom :      0.00s CPU      0.00s WALL (       5 calls)
     wfcinit:wfcr :      0.05s CPU      0.01s WALL (       5 calls)
     potinit      :      0.04s CPU      0.02s WALL (       1 calls)
     hinit0       :      0.39s CPU      0.20s WALL (       1 calls)

     Called by electrons:
     c_bands      :      1.42s CPU      0.37s WALL (       9 calls)
     sum_band     :      0.48s CPU      0.12s WALL (       9 calls)
     v_of_rho     :      0.17s CPU      0.04s WALL (      10 calls)
     v_h          :      0.01s CPU      0.00s WALL (      10 calls)
     v_xc         :      0.15s CPU      0.04s WALL (      10 calls)
     newd         :      0.19s CPU      0.05s WALL (      10 calls)
     mix_rho      :      0.03s CPU      0.01s WALL (       9 calls)

     Called by c_bands:
     init_us_2    :      0.02s CPU      0.01s WALL (      95 calls)
     init_us_2:cp :      0.02s CPU      0.01s WALL (      95 calls)
     cegterg      :      1.19s CPU      0.31s WALL (      45 calls)

     Called by sum_band:
     sum_band:wei :      0.00s CPU      0.00s WALL (       9 calls)
     sum_band:loo :      0.20s CPU      0.05s WALL (       9 calls)
     sum_band:buf :      0.00s CPU      0.00s WALL (      45 calls)
     sum_band:ini :      0.01s CPU      0.00s WALL (      45 calls)
     sum_band:cal :      0.01s CPU      0.00s WALL (      45 calls)
     sum_band:bec :      0.00s CPU      0.00s WALL (      45 calls)
     addusdens    :      0.22s CPU      0.06s WALL (       9 calls)
     addusd:skk   :      0.00s CPU      0.00s WALL (      18 calls)
     addusd:dgemm :      0.05s CPU      0.01s WALL (      18 calls)
     addusd:qvan2 :      0.15s CPU      0.04s WALL (      18 calls)

     Called by *egterg:
     cdiaghg      :      0.19s CPU      0.04s WALL (     196 calls)
     cegterg:over :      0.05s CPU      0.01s WALL (     151 calls)
     cegterg:upda :      0.01s CPU      0.00s WALL (     151 calls)
     cegterg:last :      0.01s CPU      0.01s WALL (     101 calls)
     h_psi        :      0.93s CPU      0.24s WALL (     201 calls)
     s_psi        :      0.01s CPU      0.01s WALL (     201 calls)
     g_psi        :      0.00s CPU      0.00s WALL (     151 calls)

     Called by h_psi:
     h_psi:calbec :      0.04s CPU      0.01s WALL (     201 calls)
     vloc_psi     :      0.87s CPU      0.22s WALL (     201 calls)
     add_vuspsi   :      0.02s CPU      0.01s WALL (     201 calls)

     General routines
     calbec       :      0.06s CPU      0.01s WALL (     246 calls)
     fft          :      0.12s CPU      0.03s WALL (     128 calls)
     ffts         :      0.01s CPU      0.00s WALL (      19 calls)
     fftw         :      1.00s CPU      0.22s WALL (    4503 calls)
     interpolate  :      0.01s CPU      0.00s WALL (      10 calls)
 
     Parallel routines
 
     PWSCF        :      3.98s CPU      1.40s WALL

 
   This run was terminated on:  17:12:10  16Jul2023            

=------------------------------------------------------------------------------=
   JOB DONE.
=------------------------------------------------------------------------------=
