
     Program PWSCF v.7.0 starts on 20May2023 at 14:21:42 

     This program is part of the open-source Quantum ESPRESSO suite
     for quantum simulation of materials; please cite
         "P. Giannozzi et al., J. Phys.:Condens. Matter 21 395502 (2009);
         "P. Giannozzi et al., J. Phys.:Condens. Matter 29 465901 (2017);
         "P. Giannozzi et al., J. Chem. Phys. 152 154105 (2020);
          URL http://www.quantum-espresso.org", 
     in publications or presentations arising from this work. More details at
     http://www.quantum-espresso.org/quote

     Parallel version (MPI & OpenMP), running on      32 processor cores
     Number of MPI processes:                 1
     Threads/MPI process:                    32

     MPI processes distributed on     1 nodes
     129448 MiB available memory on the printing compute node when the environment starts
 
     Reading input from espresso_19337.pwi
Warning: card &CELL ignored
Warning: card / ignored

     Current dimensions of program PWSCF are:
     Max number of different atomic species (ntypx) = 10
     Max number of k-points (npk) =  40000
     Max angular momentum in pseudopotentials (lmaxx) =  4
     file In.pbe-dn-rrkjus_psl.0.2.2.UPF: wavefunction(s)  5S renormalized

     gamma-point specific algorithms are used
     Message from routine setup:
     using ibrav=0 with symmetry is DISCOURAGED, use correct ibrav instead

     Subspace diagonalization in iterative solution of the eigenvalue problem:
     a serial algorithm will be used

 
     G-vector sticks info
     --------------------
     sticks:   dense  smooth     PW     G-vecs:    dense   smooth      PW
     Sum        1813     925    235                51493    18197    2277
 
     Using Slab Decomposition
 


     bravais-lattice index     =            0
     lattice parameter (alat)  =      10.5189  a.u.
     unit-cell volume          =     823.0012 (a.u.)^3
     number of atoms/cell      =            4
     number of atomic types    =            3
     number of electrons       =        50.00
     number of Kohn-Sham states=           30
     kinetic-energy cutoff     =      30.0000  Ry
     charge density cutoff     =     240.0000  Ry
     scf convergence threshold =      1.0E-06
     mixing beta               =       0.7000
     number of iterations used =            8  plain     mixing
     Exchange-correlation= PBE
                           (   1   4   3   4   0   0   0)

     celldm(1)=  10.518936  celldm(2)=   0.000000  celldm(3)=   0.000000
     celldm(4)=   0.000000  celldm(5)=   0.000000  celldm(6)=   0.000000

     crystal axes: (cart. coord. in units of alat)
               a(1) = (   1.000000   0.000000   0.000000 )  
               a(2) = (   0.500000   0.866025   0.000000 )  
               a(3) = (   0.500000   0.288675   0.816497 )  

     reciprocal axes: (cart. coord. in units 2 pi/alat)
               b(1) = (  1.000000 -0.577350 -0.408248 )  
               b(2) = (  0.000000  1.154701 -0.408248 )  
               b(3) = (  0.000000  0.000000  1.224745 )  


     PseudoPot. # 1 for La read from file:
     /home/pragov/projects/rrg-bengioy-ad/pragov/crystal_structure_design/SSSP/La.GGA-PBE-paw-v1.0.UPF
     MD5 check sum: 436541e95c1ad8901025bd0b0ed42ae2
     Pseudo is Projector augmented-wave + core cor, Zval = 11.0
     Generated using ATOMPAW code
     Shape of augmentation charge: BESSEL
     Using radial grid of 1101 points,  8 beta functions with: 
                l(1) =   0
                l(2) =   0
                l(3) =   1
                l(4) =   1
                l(5) =   2
                l(6) =   2
                l(7) =   3
                l(8) =   3
     Q(r) pseudized with 0 coefficients 


     PseudoPot. # 2 for Pr read from file:
     /home/pragov/projects/rrg-bengioy-ad/pragov/crystal_structure_design/SSSP/Pr.GGA-PBE-paw-v1.0.UPF
     MD5 check sum: b5e1e58e76df433569641143f671cc27
     Pseudo is Projector augmented-wave + core cor, Zval = 13.0
     Generated using ATOMPAW code
     Shape of augmentation charge: BESSEL
     Using radial grid of 1103 points,  8 beta functions with: 
                l(1) =   0
                l(2) =   0
                l(3) =   1
                l(4) =   1
                l(5) =   2
                l(6) =   2
                l(7) =   3
                l(8) =   3
     Q(r) pseudized with 0 coefficients 


     PseudoPot. # 3 for In read from file:
     /home/pragov/projects/rrg-bengioy-ad/pragov/crystal_structure_design/SSSP/In.pbe-dn-rrkjus_psl.0.2.2.UPF
     MD5 check sum: 25e7c42c3b55b68f4bf926be2e7201a4
     Pseudo is Ultrasoft + core correction, Zval = 13.0
     Generated using "atomic" code by A. Dal Corso  v.5.0.99 svn rev. 10869
     Using radial grid of 1241 points,  6 beta functions with: 
                l(1) =   0
                l(2) =   0
                l(3) =   1
                l(4) =   1
                l(5) =   2
                l(6) =   2
     Q(r) pseudized with 0 coefficients 


     atomic species   valence    mass     pseudopotential
        La            11.00   138.90547     La( 1.00)
        Pr            13.00   140.90766     Pr( 1.00)
        In            13.00   114.81800     In( 1.00)

     12 Sym. Ops., with inversion, found


                                    s                        frac. trans.

      isym =  1     identity                                     

 cryst.   s( 1) = (     1          0          0      )
                  (     0          1          0      )
                  (     0          0          1      )

 cart.    s( 1) = (  1.0000000  0.0000000  0.0000000 )
                  (  0.0000000  1.0000000 -0.0000000 )
                  (  0.0000000  0.0000000  1.0000000 )


      isym =  2     180 deg rotation - cart. axis [1,0,0]        

 cryst.   s( 2) = (     1          0          0      )
                  (     1         -1          0      )
                  (     1          0         -1      )

 cart.    s( 2) = (  1.0000000  0.0000000  0.0000000 )
                  (  0.0000000 -1.0000000  0.0000000 )
                  (  0.0000000  0.0000000 -1.0000000 )


      isym =  3     120 deg rotation - cryst. axis [0,0,1]       

 cryst.   s( 3) = (    -1          1          0      )
                  (    -1          0          0      )
                  (    -1          0          1      )

 cart.    s( 3) = ( -0.5000000 -0.8660254  0.0000000 )
                  (  0.8660254 -0.5000000  0.0000000 )
                  (  0.0000000  0.0000000  1.0000000 )


      isym =  4     120 deg rotation - cryst. axis [0,0,-1]      

 cryst.   s( 4) = (     0         -1          0      )
                  (     1         -1          0      )
                  (     0         -1          1      )

 cart.    s( 4) = ( -0.5000000  0.8660254 -0.0000000 )
                  ( -0.8660254 -0.5000000  0.0000000 )
                  (  0.0000000  0.0000000  1.0000000 )


      isym =  5     180 deg rotation - cryst. axis [0,1,0]       

 cryst.   s( 5) = (     0         -1          0      )
                  (    -1          0          0      )
                  (     0          0         -1      )

 cart.    s( 5) = ( -0.5000000 -0.8660254  0.0000000 )
                  ( -0.8660254  0.5000000 -0.0000000 )
                  (  0.0000000  0.0000000 -1.0000000 )


      isym =  6     180 deg rotation - cryst. axis [1,1,0]       

 cryst.   s( 6) = (    -1          1          0      )
                  (     0          1          0      )
                  (     0          1         -1      )

 cart.    s( 6) = ( -0.5000000  0.8660254 -0.0000000 )
                  (  0.8660254  0.5000000 -0.0000000 )
                  (  0.0000000  0.0000000 -1.0000000 )


      isym =  7     inversion                                    

 cryst.   s( 7) = (    -1          0          0      )
                  (     0         -1          0      )
                  (     0          0         -1      )

 cart.    s( 7) = ( -1.0000000  0.0000000  0.0000000 )
                  (  0.0000000 -1.0000000  0.0000000 )
                  (  0.0000000  0.0000000 -1.0000000 )


      isym =  8     inv. 180 deg rotation - cart. axis [1,0,0]   

 cryst.   s( 8) = (    -1          0          0      )
                  (    -1          1          0      )
                  (    -1          0          1      )

 cart.    s( 8) = ( -1.0000000  0.0000000  0.0000000 )
                  (  0.0000000  1.0000000 -0.0000000 )
                  (  0.0000000  0.0000000  1.0000000 )


      isym =  9     inv. 120 deg rotation - cryst. axis [0,0,1]  

 cryst.   s( 9) = (     1         -1          0      )
                  (     1          0          0      )
                  (     1          0         -1      )

 cart.    s( 9) = (  0.5000000  0.8660254 -0.0000000 )
                  ( -0.8660254  0.5000000 -0.0000000 )
                  (  0.0000000  0.0000000 -1.0000000 )


      isym = 10     inv. 120 deg rotation - cryst. axis [0,0,-1] 

 cryst.   s(10) = (     0          1          0      )
                  (    -1          1          0      )
                  (     0          1         -1      )

 cart.    s(10) = (  0.5000000 -0.8660254  0.0000000 )
                  (  0.8660254  0.5000000 -0.0000000 )
                  (  0.0000000  0.0000000 -1.0000000 )


      isym = 11     inv. 180 deg rotation - cryst. axis [0,1,0]  

 cryst.   s(11) = (     0          1          0      )
                  (     1          0          0      )
                  (     0          0          1      )

 cart.    s(11) = (  0.5000000  0.8660254 -0.0000000 )
                  (  0.8660254 -0.5000000  0.0000000 )
                  (  0.0000000  0.0000000  1.0000000 )


      isym = 12     inv. 180 deg rotation - cryst. axis [1,1,0]  

 cryst.   s(12) = (     1         -1          0      )
                  (     0         -1          0      )
                  (     0         -1          1      )

 cart.    s(12) = (  0.5000000 -0.8660254  0.0000000 )
                  ( -0.8660254 -0.5000000  0.0000000 )
                  (  0.0000000  0.0000000  1.0000000 )


   Cartesian axes

     site n.     atom                  positions (alat units)
         1           La  tau(   1) = (   1.0000000   0.5773503   0.4082483  )
         2           Pr  tau(   2) = (   0.0000000   0.0000000   0.0000000  )
         3           In  tau(   3) = (   1.5000000   0.8660254   0.6123724  )
         4           In  tau(   4) = (   0.5000000   0.2886751   0.2041241  )

   Crystallographic axes

     site n.     atom                  positions (cryst. coord.)
         1           La  tau(   1) = (  0.5000000  0.5000000  0.5000000  )
         2           Pr  tau(   2) = (  0.0000000  0.0000000  0.0000000  )
         3           In  tau(   3) = (  0.7500000  0.7500000  0.7500000  )
         4           In  tau(   4) = (  0.2500000  0.2500000  0.2500000  )

     number of k points=     1  Methfessel-Paxton smearing, width (Ry)=  0.0010
                       cart. coord. in units 2pi/alat
        k(    1) = (   0.0000000   0.0000000   0.0000000), wk =   2.0000000

                       cryst. coord.
        k(    1) = (   0.0000000   0.0000000   0.0000000), wk =   2.0000000

     Dense  grid:    25747 G-vectors     FFT dimensions: (  54,  54,  54)

     Smooth grid:     9099 G-vectors     FFT dimensions: (  40,  40,  40)

     Dynamical RAM for                 wfc:       0.52 MB

     Dynamical RAM for     wfc (w. buffer):       0.52 MB

     Dynamical RAM for           str. fact:       1.18 MB

     Dynamical RAM for           local pot:       0.00 MB

     Dynamical RAM for          nlocal pot:       1.74 MB

     Dynamical RAM for                qrad:       8.96 MB

     Dynamical RAM for          rho,v,vnew:       4.78 MB

     Dynamical RAM for               rhoin:       1.59 MB

     Dynamical RAM for            rho*nmix:       6.29 MB

     Dynamical RAM for           G-vectors:       1.54 MB

     Dynamical RAM for          h,s,v(r/c):       0.08 MB

     Dynamical RAM for          <psi|beta>:       0.02 MB

     Dynamical RAM for                 psi:       1.05 MB

     Dynamical RAM for                hpsi:       1.05 MB

     Dynamical RAM for                spsi:       1.05 MB

     Dynamical RAM for      wfcinit/wfcrot:       3.01 MB

     Dynamical RAM for           addusdens:     218.83 MB

     Dynamical RAM for          addusforce:     219.83 MB

     Dynamical RAM for         addusstress:     228.65 MB

     Estimated static dynamical RAM per process >      27.90 MB

     Estimated max dynamical RAM per process >     262.83 MB

     Initial potential from superposition of free atoms

     starting charge      49.9766, renormalised to      50.0000
     Starting wfcs are   82 randomized atomic wfcs
     Checking if some PAW data can be deallocated... 

     total cpu time spent up to now is       15.6 secs

     Self-consistent Calculation

     iteration #  1     ecut=    30.00 Ry     beta= 0.70
     Davidson diagonalization with overlap

---- Real-time Memory Report at c_bands before calling an iterative solver
           539 MiB given to the printing process from OS
             0 MiB allocation reported by mallinfo(arena+hblkhd)
        129146 MiB available memory on the node where the printing process lives
------------------
     ethr =  1.00E-02,  avg # of iterations =  1.0

     total cpu time spent up to now is       18.0 secs

     total energy              =   -1254.74631988 Ry
     estimated scf accuracy    <       1.91189547 Ry

     iteration #  2     ecut=    30.00 Ry     beta= 0.70
     Davidson diagonalization with overlap

---- Real-time Memory Report at c_bands before calling an iterative solver
           702 MiB given to the printing process from OS
             0 MiB allocation reported by mallinfo(arena+hblkhd)
        129124 MiB available memory on the node where the printing process lives
------------------
     ethr =  3.82E-03,  avg # of iterations =  5.0

     total cpu time spent up to now is       21.5 secs

     total energy              =   -1254.41625636 Ry
     estimated scf accuracy    <     114.08879008 Ry

     iteration #  3     ecut=    30.00 Ry     beta= 0.70
     Davidson diagonalization with overlap

---- Real-time Memory Report at c_bands before calling an iterative solver
           709 MiB given to the printing process from OS
             0 MiB allocation reported by mallinfo(arena+hblkhd)
        129121 MiB available memory on the node where the printing process lives
------------------
     ethr =  3.82E-03,  avg # of iterations =  8.0

     total cpu time spent up to now is       24.9 secs

     total energy              =   -1256.63510174 Ry
     estimated scf accuracy    <       3.40948906 Ry

     iteration #  4     ecut=    30.00 Ry     beta= 0.70
     Davidson diagonalization with overlap

---- Real-time Memory Report at c_bands before calling an iterative solver
           709 MiB given to the printing process from OS
             0 MiB allocation reported by mallinfo(arena+hblkhd)
        129124 MiB available memory on the node where the printing process lives
------------------
     ethr =  3.82E-03,  avg # of iterations =  1.0

     total cpu time spent up to now is       27.5 secs

     total energy              =   -1256.62829553 Ry
     estimated scf accuracy    <       3.03481216 Ry

     iteration #  5     ecut=    30.00 Ry     beta= 0.70
     Davidson diagonalization with overlap

---- Real-time Memory Report at c_bands before calling an iterative solver
           710 MiB given to the printing process from OS
             0 MiB allocation reported by mallinfo(arena+hblkhd)
        129126 MiB available memory on the node where the printing process lives
------------------
     ethr =  3.82E-03,  avg # of iterations =  1.0

     total cpu time spent up to now is       28.7 secs

     total energy              =   -1256.61634444 Ry
     estimated scf accuracy    <       2.75565804 Ry

     iteration #  6     ecut=    30.00 Ry     beta= 0.70
     Davidson diagonalization with overlap

---- Real-time Memory Report at c_bands before calling an iterative solver
           711 MiB given to the printing process from OS
             0 MiB allocation reported by mallinfo(arena+hblkhd)
        129126 MiB available memory on the node where the printing process lives
------------------
     ethr =  3.82E-03,  avg # of iterations =  1.0
     Minimization algorithm failed to find Fermi energy: reverting to bisection
     Possible cause: smearing is larger than the electronic band-gap.

     negative rho (up, down):  8.605E-07 0.000E+00

     total cpu time spent up to now is       30.1 secs

     total energy              =   -1256.51395580 Ry
     estimated scf accuracy    <       2.48261710 Ry

     iteration #  7     ecut=    30.00 Ry     beta= 0.70
     Davidson diagonalization with overlap

---- Real-time Memory Report at c_bands before calling an iterative solver
           711 MiB given to the printing process from OS
             0 MiB allocation reported by mallinfo(arena+hblkhd)
        129127 MiB available memory on the node where the printing process lives
------------------
     ethr =  3.82E-03,  avg # of iterations =  1.0

     negative rho (up, down):  2.763E-06 0.000E+00

     total cpu time spent up to now is       32.6 secs

     total energy              =   -1256.44965147 Ry
     estimated scf accuracy    <       2.00838686 Ry

     iteration #  8     ecut=    30.00 Ry     beta= 0.70
     Davidson diagonalization with overlap

---- Real-time Memory Report at c_bands before calling an iterative solver
           711 MiB given to the printing process from OS
             0 MiB allocation reported by mallinfo(arena+hblkhd)
        129128 MiB available memory on the node where the printing process lives
------------------
     ethr =  3.82E-03,  avg # of iterations =  1.0

     negative rho (up, down):  3.012E-06 0.000E+00

     total cpu time spent up to now is       35.1 secs

     total energy              =   -1256.43325604 Ry
     estimated scf accuracy    <       1.88866109 Ry

     iteration #  9     ecut=    30.00 Ry     beta= 0.70
     Davidson diagonalization with overlap

---- Real-time Memory Report at c_bands before calling an iterative solver
           711 MiB given to the printing process from OS
             0 MiB allocation reported by mallinfo(arena+hblkhd)
        129130 MiB available memory on the node where the printing process lives
------------------
     ethr =  3.78E-03,  avg # of iterations =  1.0

     negative rho (up, down):  3.043E-06 0.000E+00

     total cpu time spent up to now is       37.4 secs

     total energy              =   -1256.42576885 Ry
     estimated scf accuracy    <       1.52017460 Ry

     iteration # 10     ecut=    30.00 Ry     beta= 0.70
     Davidson diagonalization with overlap

---- Real-time Memory Report at c_bands before calling an iterative solver
           711 MiB given to the printing process from OS
             0 MiB allocation reported by mallinfo(arena+hblkhd)
        129130 MiB available memory on the node where the printing process lives
------------------
     ethr =  3.04E-03,  avg # of iterations =  1.0

     negative rho (up, down):  8.302E-06 0.000E+00

     total cpu time spent up to now is       39.8 secs

     total energy              =   -1256.18235010 Ry
     estimated scf accuracy    <       1.19827780 Ry

     iteration # 11     ecut=    30.00 Ry     beta= 0.70
     Davidson diagonalization with overlap

---- Real-time Memory Report at c_bands before calling an iterative solver
           711 MiB given to the printing process from OS
             0 MiB allocation reported by mallinfo(arena+hblkhd)
        129111 MiB available memory on the node where the printing process lives
------------------
     ethr =  2.40E-03,  avg # of iterations = 10.0

     total cpu time spent up to now is       42.8 secs

     total energy              =   -1256.76431769 Ry
     estimated scf accuracy    <      12.31623690 Ry

     iteration # 12     ecut=    30.00 Ry     beta= 0.70
     Davidson diagonalization with overlap

---- Real-time Memory Report at c_bands before calling an iterative solver
           711 MiB given to the printing process from OS
             0 MiB allocation reported by mallinfo(arena+hblkhd)
        129112 MiB available memory on the node where the printing process lives
------------------
     ethr =  2.40E-03,  avg # of iterations = 14.0

     total cpu time spent up to now is       45.2 secs

     total energy              =   -1257.15693091 Ry
     estimated scf accuracy    <       4.36973236 Ry

     iteration # 13     ecut=    30.00 Ry     beta= 0.70
     Davidson diagonalization with overlap

---- Real-time Memory Report at c_bands before calling an iterative solver
           711 MiB given to the printing process from OS
             0 MiB allocation reported by mallinfo(arena+hblkhd)
        129112 MiB available memory on the node where the printing process lives
------------------
     ethr =  2.40E-03,  avg # of iterations =  2.0

     total cpu time spent up to now is       46.4 secs

     total energy              =   -1256.96671995 Ry
     estimated scf accuracy    <       3.33215828 Ry

     iteration # 14     ecut=    30.00 Ry     beta= 0.70
     Davidson diagonalization with overlap

---- Real-time Memory Report at c_bands before calling an iterative solver
           711 MiB given to the printing process from OS
             0 MiB allocation reported by mallinfo(arena+hblkhd)
        129113 MiB available memory on the node where the printing process lives
------------------
     ethr =  2.40E-03,  avg # of iterations =  4.0

     total cpu time spent up to now is       47.6 secs

     total energy              =   -1257.02810423 Ry
     estimated scf accuracy    <       2.95750233 Ry

     iteration # 15     ecut=    30.00 Ry     beta= 0.70
     Davidson diagonalization with overlap

---- Real-time Memory Report at c_bands before calling an iterative solver
           711 MiB given to the printing process from OS
             0 MiB allocation reported by mallinfo(arena+hblkhd)
        129113 MiB available memory on the node where the printing process lives
------------------
     ethr =  2.40E-03,  avg # of iterations =  1.0

     total cpu time spent up to now is       49.2 secs

     total energy              =   -1257.03596385 Ry
     estimated scf accuracy    <       2.98661083 Ry

     iteration # 16     ecut=    30.00 Ry     beta= 0.70
     Davidson diagonalization with overlap

---- Real-time Memory Report at c_bands before calling an iterative solver
           711 MiB given to the printing process from OS
             0 MiB allocation reported by mallinfo(arena+hblkhd)
        129112 MiB available memory on the node where the printing process lives
------------------
     ethr =  2.40E-03,  avg # of iterations =  1.0

     total cpu time spent up to now is       50.4 secs

     total energy              =   -1257.17344942 Ry
     estimated scf accuracy    <       2.97429002 Ry

     iteration # 17     ecut=    30.00 Ry     beta= 0.70
     Davidson diagonalization with overlap

---- Real-time Memory Report at c_bands before calling an iterative solver
           711 MiB given to the printing process from OS
             0 MiB allocation reported by mallinfo(arena+hblkhd)
        129111 MiB available memory on the node where the printing process lives
------------------
     ethr =  2.40E-03,  avg # of iterations =  1.0

     total cpu time spent up to now is       51.6 secs

     total energy              =   -1257.24753361 Ry
     estimated scf accuracy    <       3.20000130 Ry

     iteration # 18     ecut=    30.00 Ry     beta= 0.70
     Davidson diagonalization with overlap

---- Real-time Memory Report at c_bands before calling an iterative solver
           711 MiB given to the printing process from OS
             0 MiB allocation reported by mallinfo(arena+hblkhd)
        129141 MiB available memory on the node where the printing process lives
------------------
     ethr =  2.40E-03,  avg # of iterations =  1.0

     negative rho (up, down):  2.523E-05 0.000E+00

     total cpu time spent up to now is       52.8 secs

     total energy              =   -1257.30465683 Ry
     estimated scf accuracy    <       3.33500061 Ry

     iteration # 19     ecut=    30.00 Ry     beta= 0.70
     Davidson diagonalization with overlap

---- Real-time Memory Report at c_bands before calling an iterative solver
           711 MiB given to the printing process from OS
             0 MiB allocation reported by mallinfo(arena+hblkhd)
        129142 MiB available memory on the node where the printing process lives
------------------
     ethr =  2.40E-03,  avg # of iterations =  2.0

     negative rho (up, down):  4.866E-03 0.000E+00

     total cpu time spent up to now is       54.0 secs

     total energy              =   -1254.49841181 Ry
     estimated scf accuracy    <       3.45199638 Ry

     iteration # 20     ecut=    30.00 Ry     beta= 0.70
     Davidson diagonalization with overlap

---- Real-time Memory Report at c_bands before calling an iterative solver
           711 MiB given to the printing process from OS
             0 MiB allocation reported by mallinfo(arena+hblkhd)
        129141 MiB available memory on the node where the printing process lives
------------------
     ethr =  2.40E-03,  avg # of iterations =  7.0

     total cpu time spent up to now is       55.4 secs

     total energy              =   -1254.55677682 Ry
     estimated scf accuracy    <     108.74815007 Ry

     iteration # 21     ecut=    30.00 Ry     beta= 0.70
     Davidson diagonalization with overlap

---- Real-time Memory Report at c_bands before calling an iterative solver
           711 MiB given to the printing process from OS
             0 MiB allocation reported by mallinfo(arena+hblkhd)
        129140 MiB available memory on the node where the printing process lives
------------------
     ethr =  2.40E-03,  avg # of iterations =  5.0

     negative rho (up, down):  8.548E-06 0.000E+00

     total cpu time spent up to now is       56.7 secs

     total energy              =   -1256.56254395 Ry
     estimated scf accuracy    <       3.47288335 Ry

     iteration # 22     ecut=    30.00 Ry     beta= 0.70
     Davidson diagonalization with overlap

---- Real-time Memory Report at c_bands before calling an iterative solver
           711 MiB given to the printing process from OS
             0 MiB allocation reported by mallinfo(arena+hblkhd)
        129194 MiB available memory on the node where the printing process lives
------------------
     ethr =  2.40E-03,  avg # of iterations =  2.0

     negative rho (up, down):  1.377E-06 0.000E+00

     total cpu time spent up to now is       57.8 secs

     total energy              =   -1256.57128596 Ry
     estimated scf accuracy    <       2.64121652 Ry

     iteration # 23     ecut=    30.00 Ry     beta= 0.70
     Davidson diagonalization with overlap

---- Real-time Memory Report at c_bands before calling an iterative solver
           711 MiB given to the printing process from OS
             0 MiB allocation reported by mallinfo(arena+hblkhd)
        129195 MiB available memory on the node where the printing process lives
------------------
     ethr =  2.40E-03,  avg # of iterations =  1.0

     negative rho (up, down):  5.776E-07 0.000E+00

     total cpu time spent up to now is       58.9 secs

     total energy              =   -1256.56428217 Ry
     estimated scf accuracy    <       2.51781196 Ry

     iteration # 24     ecut=    30.00 Ry     beta= 0.70
     Davidson diagonalization with overlap

---- Real-time Memory Report at c_bands before calling an iterative solver
           711 MiB given to the printing process from OS
             0 MiB allocation reported by mallinfo(arena+hblkhd)
        129195 MiB available memory on the node where the printing process lives
------------------
     ethr =  2.40E-03,  avg # of iterations =  1.0
     Minimization algorithm failed to find Fermi energy: reverting to bisection
     Possible cause: smearing is larger than the electronic band-gap.

     negative rho (up, down):  4.832E-06 0.000E+00

     total cpu time spent up to now is       60.1 secs

     total energy              =   -1256.57350920 Ry
     estimated scf accuracy    <       2.07546745 Ry

     iteration # 25     ecut=    30.00 Ry     beta= 0.70
     Davidson diagonalization with overlap

---- Real-time Memory Report at c_bands before calling an iterative solver
           711 MiB given to the printing process from OS
             0 MiB allocation reported by mallinfo(arena+hblkhd)
        129196 MiB available memory on the node where the printing process lives
------------------
     ethr =  2.40E-03,  avg # of iterations =  1.0

     negative rho (up, down):  3.711E-06 0.000E+00

     total cpu time spent up to now is       61.2 secs

     total energy              =   -1256.46033390 Ry
     estimated scf accuracy    <       2.04243327 Ry

     iteration # 26     ecut=    30.00 Ry     beta= 0.70
     Davidson diagonalization with overlap

---- Real-time Memory Report at c_bands before calling an iterative solver
           711 MiB given to the printing process from OS
             0 MiB allocation reported by mallinfo(arena+hblkhd)
        129196 MiB available memory on the node where the printing process lives
------------------
     ethr =  2.40E-03,  avg # of iterations =  1.0

     negative rho (up, down):  6.495E-06 0.000E+00

     total cpu time spent up to now is       62.3 secs

     total energy              =   -1256.46903103 Ry
     estimated scf accuracy    <       1.62242985 Ry

     iteration # 27     ecut=    30.00 Ry     beta= 0.70
     Davidson diagonalization with overlap

---- Real-time Memory Report at c_bands before calling an iterative solver
           711 MiB given to the printing process from OS
             0 MiB allocation reported by mallinfo(arena+hblkhd)
        129196 MiB available memory on the node where the printing process lives
------------------
     ethr =  2.40E-03,  avg # of iterations =  1.0

     negative rho (up, down):  8.807E-06 0.000E+00

     total cpu time spent up to now is       63.5 secs

     total energy              =   -1256.47078512 Ry
     estimated scf accuracy    <       1.47090357 Ry

     iteration # 28     ecut=    30.00 Ry     beta= 0.70
     Davidson diagonalization with overlap

---- Real-time Memory Report at c_bands before calling an iterative solver
           711 MiB given to the printing process from OS
             0 MiB allocation reported by mallinfo(arena+hblkhd)
        129193 MiB available memory on the node where the printing process lives
------------------
     ethr =  2.40E-03,  avg # of iterations =  1.0

     total cpu time spent up to now is       65.8 secs

     total energy              =   -1256.17343840 Ry
     estimated scf accuracy    <       1.42599124 Ry

     iteration # 29     ecut=    30.00 Ry     beta= 0.70
     Davidson diagonalization with overlap

---- Real-time Memory Report at c_bands before calling an iterative solver
           711 MiB given to the printing process from OS
             0 MiB allocation reported by mallinfo(arena+hblkhd)
        129167 MiB available memory on the node where the printing process lives
------------------
     ethr =  2.40E-03,  avg # of iterations = 12.0

     total cpu time spent up to now is       68.5 secs

     total energy              =   -1256.68986051 Ry
     estimated scf accuracy    <      11.77998911 Ry

     iteration # 30     ecut=    30.00 Ry     beta= 0.70
     Davidson diagonalization with overlap

---- Real-time Memory Report at c_bands before calling an iterative solver
           711 MiB given to the printing process from OS
             0 MiB allocation reported by mallinfo(arena+hblkhd)
        129166 MiB available memory on the node where the printing process lives
------------------
     c_bands:  4 eigenvalues not converged
     ethr =  2.40E-03,  avg # of iterations = 20.0

     total cpu time spent up to now is       72.0 secs

     total energy              =   -1256.82304974 Ry
     estimated scf accuracy    <       3.93832591 Ry

     iteration # 31     ecut=    30.00 Ry     beta= 0.70
     Davidson diagonalization with overlap

---- Real-time Memory Report at c_bands before calling an iterative solver
           711 MiB given to the printing process from OS
             0 MiB allocation reported by mallinfo(arena+hblkhd)
        129147 MiB available memory on the node where the printing process lives
------------------
     ethr =  2.40E-03,  avg # of iterations =  7.0

     total cpu time spent up to now is       73.8 secs

     total energy              =   -1256.98727931 Ry
     estimated scf accuracy    <       2.97189518 Ry

     iteration # 32     ecut=    30.00 Ry     beta= 0.70
     Davidson diagonalization with overlap

---- Real-time Memory Report at c_bands before calling an iterative solver
           711 MiB given to the printing process from OS
             0 MiB allocation reported by mallinfo(arena+hblkhd)
        129153 MiB available memory on the node where the printing process lives
------------------
     ethr =  2.40E-03,  avg # of iterations =  1.0

     total cpu time spent up to now is       75.0 secs

     total energy              =   -1256.78185083 Ry
     estimated scf accuracy    <       2.88730258 Ry

     iteration # 33     ecut=    30.00 Ry     beta= 0.70
     Davidson diagonalization with overlap

---- Real-time Memory Report at c_bands before calling an iterative solver
           711 MiB given to the printing process from OS
             0 MiB allocation reported by mallinfo(arena+hblkhd)
        129154 MiB available memory on the node where the printing process lives
------------------
     ethr =  2.40E-03,  avg # of iterations =  2.0

     negative rho (up, down):  3.718E-04 0.000E+00

     total cpu time spent up to now is       76.1 secs

     total energy              =   -1256.44552145 Ry
     estimated scf accuracy    <       2.50015901 Ry

     iteration # 34     ecut=    30.00 Ry     beta= 0.70
     Davidson diagonalization with overlap

---- Real-time Memory Report at c_bands before calling an iterative solver
           711 MiB given to the printing process from OS
             0 MiB allocation reported by mallinfo(arena+hblkhd)
        129156 MiB available memory on the node where the printing process lives
------------------
     ethr =  2.40E-03,  avg # of iterations =  6.0

     negative rho (up, down):  3.875E-04 0.000E+00

     total cpu time spent up to now is       77.3 secs

     total energy              =   -1256.80282552 Ry
     estimated scf accuracy    <       2.06428566 Ry

     iteration # 35     ecut=    30.00 Ry     beta= 0.70
     Davidson diagonalization with overlap

---- Real-time Memory Report at c_bands before calling an iterative solver
           711 MiB given to the printing process from OS
             0 MiB allocation reported by mallinfo(arena+hblkhd)
        129173 MiB available memory on the node where the printing process lives
------------------
     ethr =  2.40E-03,  avg # of iterations =  6.0

     negative rho (up, down):  1.610E-05 0.000E+00

     total cpu time spent up to now is       78.5 secs

     total energy              =   -1256.47407898 Ry
     estimated scf accuracy    <       2.50231491 Ry

     iteration # 36     ecut=    30.00 Ry     beta= 0.70
     Davidson diagonalization with overlap

---- Real-time Memory Report at c_bands before calling an iterative solver
           711 MiB given to the printing process from OS
             0 MiB allocation reported by mallinfo(arena+hblkhd)
        129173 MiB available memory on the node where the printing process lives
------------------
     ethr =  2.40E-03,  avg # of iterations =  1.0

     negative rho (up, down):  1.200E-05 0.000E+00

     total cpu time spent up to now is       79.7 secs

     total energy              =   -1256.67955664 Ry
     estimated scf accuracy    <       2.00726227 Ry

     iteration # 37     ecut=    30.00 Ry     beta= 0.70
     Davidson diagonalization with overlap

---- Real-time Memory Report at c_bands before calling an iterative solver
           711 MiB given to the printing process from OS
             0 MiB allocation reported by mallinfo(arena+hblkhd)
        129175 MiB available memory on the node where the printing process lives
------------------
     ethr =  2.40E-03,  avg # of iterations =  1.0

     total cpu time spent up to now is       80.8 secs

     total energy              =   -1256.54943582 Ry
     estimated scf accuracy    <       1.95882457 Ry

     iteration # 38     ecut=    30.00 Ry     beta= 0.70
     Davidson diagonalization with overlap

---- Real-time Memory Report at c_bands before calling an iterative solver
           711 MiB given to the printing process from OS
             0 MiB allocation reported by mallinfo(arena+hblkhd)
        129176 MiB available memory on the node where the printing process lives
------------------
     ethr =  2.40E-03,  avg # of iterations =  1.0

     total cpu time spent up to now is       81.9 secs

     total energy              =   -1256.52722095 Ry
     estimated scf accuracy    <       1.93968482 Ry

     iteration # 39     ecut=    30.00 Ry     beta= 0.70
     Davidson diagonalization with overlap

---- Real-time Memory Report at c_bands before calling an iterative solver
           711 MiB given to the printing process from OS
             0 MiB allocation reported by mallinfo(arena+hblkhd)
        129170 MiB available memory on the node where the printing process lives
------------------
     ethr =  2.40E-03,  avg # of iterations =  1.0

     negative rho (up, down):  2.158E-06 0.000E+00

     total cpu time spent up to now is       83.1 secs

     total energy              =   -1256.59681545 Ry
     estimated scf accuracy    <       1.90892231 Ry

     iteration # 40     ecut=    30.00 Ry     beta= 0.70
     Davidson diagonalization with overlap

---- Real-time Memory Report at c_bands before calling an iterative solver
           711 MiB given to the printing process from OS
             0 MiB allocation reported by mallinfo(arena+hblkhd)
        129172 MiB available memory on the node where the printing process lives
------------------
     ethr =  2.40E-03,  avg # of iterations =  1.0

     negative rho (up, down):  3.749E-06 0.000E+00

     total cpu time spent up to now is       84.2 secs

     total energy              =   -1256.62287946 Ry
     estimated scf accuracy    <       1.74651632 Ry

     iteration # 41     ecut=    30.00 Ry     beta= 0.70
     Davidson diagonalization with overlap

---- Real-time Memory Report at c_bands before calling an iterative solver
           711 MiB given to the printing process from OS
             0 MiB allocation reported by mallinfo(arena+hblkhd)
        129173 MiB available memory on the node where the printing process lives
------------------
     ethr =  2.40E-03,  avg # of iterations =  1.0

     negative rho (up, down):  5.719E-06 0.000E+00

     total cpu time spent up to now is       85.4 secs

     total energy              =   -1256.63972843 Ry
     estimated scf accuracy    <       1.29887962 Ry

     iteration # 42     ecut=    30.00 Ry     beta= 0.70
     Davidson diagonalization with overlap

---- Real-time Memory Report at c_bands before calling an iterative solver
           711 MiB given to the printing process from OS
             0 MiB allocation reported by mallinfo(arena+hblkhd)
        129173 MiB available memory on the node where the printing process lives
------------------
     ethr =  2.40E-03,  avg # of iterations =  1.0

     negative rho (up, down):  5.634E-06 0.000E+00

     total cpu time spent up to now is       86.5 secs

     total energy              =   -1256.62015547 Ry
     estimated scf accuracy    <       1.77322005 Ry

     iteration # 43     ecut=    30.00 Ry     beta= 0.70
     Davidson diagonalization with overlap

---- Real-time Memory Report at c_bands before calling an iterative solver
           711 MiB given to the printing process from OS
             0 MiB allocation reported by mallinfo(arena+hblkhd)
        129171 MiB available memory on the node where the printing process lives
------------------
     ethr =  2.40E-03,  avg # of iterations =  1.0

     negative rho (up, down):  3.344E-06 0.000E+00

     total cpu time spent up to now is       87.6 secs

     total energy              =   -1256.58070736 Ry
     estimated scf accuracy    <       1.75308407 Ry

     iteration # 44     ecut=    30.00 Ry     beta= 0.70
     Davidson diagonalization with overlap

---- Real-time Memory Report at c_bands before calling an iterative solver
           711 MiB given to the printing process from OS
             0 MiB allocation reported by mallinfo(arena+hblkhd)
        129172 MiB available memory on the node where the printing process lives
------------------
     ethr =  2.40E-03,  avg # of iterations =  2.0

     negative rho (up, down):  5.680E-06 0.000E+00

     total cpu time spent up to now is       88.8 secs

     total energy              =   -1256.61462608 Ry
     estimated scf accuracy    <       1.85538277 Ry

     iteration # 45     ecut=    30.00 Ry     beta= 0.70
     Davidson diagonalization with overlap

---- Real-time Memory Report at c_bands before calling an iterative solver
           711 MiB given to the printing process from OS
             0 MiB allocation reported by mallinfo(arena+hblkhd)
        129173 MiB available memory on the node where the printing process lives
------------------
     ethr =  2.40E-03,  avg # of iterations =  1.0

     negative rho (up, down):  5.902E-06 0.000E+00

     total cpu time spent up to now is       89.9 secs

     total energy              =   -1256.62005743 Ry
     estimated scf accuracy    <       0.11678421 Ry

     iteration # 46     ecut=    30.00 Ry     beta= 0.70
     Davidson diagonalization with overlap

---- Real-time Memory Report at c_bands before calling an iterative solver
           711 MiB given to the printing process from OS
             0 MiB allocation reported by mallinfo(arena+hblkhd)
        129175 MiB available memory on the node where the printing process lives
------------------
     ethr =  2.34E-04,  avg # of iterations =  7.0

     negative rho (up, down):  5.748E-06 0.000E+00

     total cpu time spent up to now is       91.1 secs

     total energy              =   -1256.62056223 Ry
     estimated scf accuracy    <       0.63770626 Ry

     iteration # 47     ecut=    30.00 Ry     beta= 0.70
     Davidson diagonalization with overlap

---- Real-time Memory Report at c_bands before calling an iterative solver
           711 MiB given to the printing process from OS
             0 MiB allocation reported by mallinfo(arena+hblkhd)
        129145 MiB available memory on the node where the printing process lives
------------------
     ethr =  2.34E-04,  avg # of iterations =  1.0

     negative rho (up, down):  5.657E-06 0.000E+00

     total cpu time spent up to now is       92.3 secs

     total energy              =   -1256.62058777 Ry
     estimated scf accuracy    <       0.09673450 Ry

     iteration # 48     ecut=    30.00 Ry     beta= 0.70
     Davidson diagonalization with overlap

---- Real-time Memory Report at c_bands before calling an iterative solver
           711 MiB given to the printing process from OS
             0 MiB allocation reported by mallinfo(arena+hblkhd)
        129144 MiB available memory on the node where the printing process lives
------------------
     ethr =  1.93E-04,  avg # of iterations =  1.0

     negative rho (up, down):  6.019E-06 0.000E+00

     total cpu time spent up to now is       93.4 secs

     total energy              =   -1256.62025030 Ry
     estimated scf accuracy    <       0.08141871 Ry

     iteration # 49     ecut=    30.00 Ry     beta= 0.70
     Davidson diagonalization with overlap

---- Real-time Memory Report at c_bands before calling an iterative solver
           711 MiB given to the printing process from OS
             0 MiB allocation reported by mallinfo(arena+hblkhd)
        129144 MiB available memory on the node where the printing process lives
------------------
     ethr =  1.63E-04,  avg # of iterations =  1.0

     negative rho (up, down):  4.605E-06 0.000E+00

     total cpu time spent up to now is       94.6 secs

     total energy              =   -1256.61983885 Ry
     estimated scf accuracy    <       0.06492806 Ry

     iteration # 50     ecut=    30.00 Ry     beta= 0.70
     Davidson diagonalization with overlap

---- Real-time Memory Report at c_bands before calling an iterative solver
           711 MiB given to the printing process from OS
             0 MiB allocation reported by mallinfo(arena+hblkhd)
        129144 MiB available memory on the node where the printing process lives
------------------
     ethr =  1.30E-04,  avg # of iterations =  1.0

     negative rho (up, down):  4.513E-06 0.000E+00

     total cpu time spent up to now is       95.7 secs

     total energy              =   -1256.62145898 Ry
     estimated scf accuracy    <       0.11302083 Ry

     iteration # 51     ecut=    30.00 Ry     beta= 0.70
     Davidson diagonalization with overlap

---- Real-time Memory Report at c_bands before calling an iterative solver
           711 MiB given to the printing process from OS
             0 MiB allocation reported by mallinfo(arena+hblkhd)
        129145 MiB available memory on the node where the printing process lives
------------------
     ethr =  1.30E-04,  avg # of iterations =  1.0

     negative rho (up, down):  4.686E-06 0.000E+00

     total cpu time spent up to now is       96.9 secs

     total energy              =   -1256.61837484 Ry
     estimated scf accuracy    <       0.11498216 Ry

     iteration # 52     ecut=    30.00 Ry     beta= 0.70
     Davidson diagonalization with overlap

---- Real-time Memory Report at c_bands before calling an iterative solver
           711 MiB given to the printing process from OS
             0 MiB allocation reported by mallinfo(arena+hblkhd)
        129146 MiB available memory on the node where the printing process lives
------------------
     ethr =  1.30E-04,  avg # of iterations =  1.0

     negative rho (up, down):  4.595E-06 0.000E+00

     total cpu time spent up to now is       98.0 secs

     total energy              =   -1256.59265284 Ry
     estimated scf accuracy    <       0.50547396 Ry

     iteration # 53     ecut=    30.00 Ry     beta= 0.70
     Davidson diagonalization with overlap

---- Real-time Memory Report at c_bands before calling an iterative solver
           711 MiB given to the printing process from OS
             0 MiB allocation reported by mallinfo(arena+hblkhd)
        129145 MiB available memory on the node where the printing process lives
------------------
     ethr =  1.30E-04,  avg # of iterations =  1.0

     negative rho (up, down):  2.993E-06 0.000E+00

     total cpu time spent up to now is       99.2 secs

     total energy              =   -1256.60331904 Ry
     estimated scf accuracy    <       0.20386762 Ry

     iteration # 54     ecut=    30.00 Ry     beta= 0.70
     Davidson diagonalization with overlap

---- Real-time Memory Report at c_bands before calling an iterative solver
           711 MiB given to the printing process from OS
             0 MiB allocation reported by mallinfo(arena+hblkhd)
        129145 MiB available memory on the node where the printing process lives
------------------
     ethr =  1.30E-04,  avg # of iterations =  1.0

     negative rho (up, down):  3.822E-06 0.000E+00

     total cpu time spent up to now is      100.3 secs

     total energy              =   -1256.61836835 Ry
     estimated scf accuracy    <       1.27771797 Ry

     iteration # 55     ecut=    30.00 Ry     beta= 0.70
     Davidson diagonalization with overlap

---- Real-time Memory Report at c_bands before calling an iterative solver
           711 MiB given to the printing process from OS
             0 MiB allocation reported by mallinfo(arena+hblkhd)
        129146 MiB available memory on the node where the printing process lives
------------------
     ethr =  1.30E-04,  avg # of iterations =  1.0

     negative rho (up, down):  3.760E-06 0.000E+00

     total cpu time spent up to now is      101.5 secs

     total energy              =   -1256.61780119 Ry
     estimated scf accuracy    <       0.49618449 Ry

     iteration # 56     ecut=    30.00 Ry     beta= 0.70
     Davidson diagonalization with overlap

---- Real-time Memory Report at c_bands before calling an iterative solver
           711 MiB given to the printing process from OS
             0 MiB allocation reported by mallinfo(arena+hblkhd)
        129144 MiB available memory on the node where the printing process lives
------------------
     ethr =  1.30E-04,  avg # of iterations =  1.0

     negative rho (up, down):  3.199E-06 0.000E+00

     total cpu time spent up to now is      102.9 secs

     total energy              =   -1256.61075066 Ry
     estimated scf accuracy    <       1.06593177 Ry

     iteration # 57     ecut=    30.00 Ry     beta= 0.70
     Davidson diagonalization with overlap

---- Real-time Memory Report at c_bands before calling an iterative solver
           711 MiB given to the printing process from OS
             0 MiB allocation reported by mallinfo(arena+hblkhd)
        129143 MiB available memory on the node where the printing process lives
------------------
     ethr =  1.30E-04,  avg # of iterations =  1.0

     negative rho (up, down):  3.548E-06 0.000E+00

     total cpu time spent up to now is      104.1 secs

     total energy              =   -1256.61296965 Ry
     estimated scf accuracy    <       1.58916623 Ry

     iteration # 58     ecut=    30.00 Ry     beta= 0.70
     Davidson diagonalization with overlap

---- Real-time Memory Report at c_bands before calling an iterative solver
           711 MiB given to the printing process from OS
             0 MiB allocation reported by mallinfo(arena+hblkhd)
        129203 MiB available memory on the node where the printing process lives
------------------
     ethr =  1.30E-04,  avg # of iterations =  1.0

     negative rho (up, down):  3.779E-06 0.000E+00

     total cpu time spent up to now is      105.2 secs

     total energy              =   -1256.61755124 Ry
     estimated scf accuracy    <       0.08167700 Ry

     iteration # 59     ecut=    30.00 Ry     beta= 0.70
     Davidson diagonalization with overlap

---- Real-time Memory Report at c_bands before calling an iterative solver
           711 MiB given to the printing process from OS
             0 MiB allocation reported by mallinfo(arena+hblkhd)
        129204 MiB available memory on the node where the printing process lives
------------------
     ethr =  1.30E-04,  avg # of iterations =  1.0

     negative rho (up, down):  3.902E-06 0.000E+00

     total cpu time spent up to now is      107.1 secs

     total energy              =   -1256.61808038 Ry
     estimated scf accuracy    <       0.02045911 Ry

     iteration # 60     ecut=    30.00 Ry     beta= 0.70
     Davidson diagonalization with overlap

---- Real-time Memory Report at c_bands before calling an iterative solver
           711 MiB given to the printing process from OS
             0 MiB allocation reported by mallinfo(arena+hblkhd)
        129206 MiB available memory on the node where the printing process lives
------------------
     ethr =  4.09E-05,  avg # of iterations =  1.0

     negative rho (up, down):  3.992E-06 0.000E+00

     total cpu time spent up to now is      109.4 secs

     total energy              =   -1256.61762504 Ry
     estimated scf accuracy    <       0.01768978 Ry

     iteration # 61     ecut=    30.00 Ry     beta= 0.70
     Davidson diagonalization with overlap

---- Real-time Memory Report at c_bands before calling an iterative solver
           711 MiB given to the printing process from OS
             0 MiB allocation reported by mallinfo(arena+hblkhd)
        129159 MiB available memory on the node where the printing process lives
------------------
     ethr =  3.54E-05,  avg # of iterations =  1.0

     negative rho (up, down):  4.591E-06 0.000E+00

     total cpu time spent up to now is      111.8 secs

     total energy              =   -1256.61704661 Ry
     estimated scf accuracy    <       0.56088834 Ry

     iteration # 62     ecut=    30.00 Ry     beta= 0.70
     Davidson diagonalization with overlap

---- Real-time Memory Report at c_bands before calling an iterative solver
           711 MiB given to the printing process from OS
             0 MiB allocation reported by mallinfo(arena+hblkhd)
        129159 MiB available memory on the node where the printing process lives
------------------
     ethr =  3.54E-05,  avg # of iterations = 13.0

     negative rho (up, down):  4.462E-06 0.000E+00

     total cpu time spent up to now is      115.5 secs

     total energy              =   -1256.58823258 Ry
     estimated scf accuracy    <       2.05024981 Ry

     iteration # 63     ecut=    30.00 Ry     beta= 0.70
     Davidson diagonalization with overlap

---- Real-time Memory Report at c_bands before calling an iterative solver
           711 MiB given to the printing process from OS
             0 MiB allocation reported by mallinfo(arena+hblkhd)
        129159 MiB available memory on the node where the printing process lives
------------------
     ethr =  3.54E-05,  avg # of iterations =  2.0

     negative rho (up, down):  4.257E-06 0.000E+00

     total cpu time spent up to now is      118.0 secs

     total energy              =   -1256.61586001 Ry
     estimated scf accuracy    <       0.73101689 Ry

     iteration # 64     ecut=    30.00 Ry     beta= 0.70
     Davidson diagonalization with overlap

---- Real-time Memory Report at c_bands before calling an iterative solver
           711 MiB given to the printing process from OS
             0 MiB allocation reported by mallinfo(arena+hblkhd)
        129110 MiB available memory on the node where the printing process lives
------------------
     ethr =  3.54E-05,  avg # of iterations =  1.0

     negative rho (up, down):  4.511E-06 0.000E+00

     total cpu time spent up to now is      120.5 secs

     total energy              =   -1256.61743495 Ry
     estimated scf accuracy    <       0.17141051 Ry

     iteration # 65     ecut=    30.00 Ry     beta= 0.70
     Davidson diagonalization with overlap

---- Real-time Memory Report at c_bands before calling an iterative solver
           711 MiB given to the printing process from OS
             0 MiB allocation reported by mallinfo(arena+hblkhd)
        129109 MiB available memory on the node where the printing process lives
------------------
     ethr =  3.54E-05,  avg # of iterations =  1.0

     negative rho (up, down):  4.372E-06 0.000E+00

     total cpu time spent up to now is      122.9 secs

     total energy              =   -1256.61662420 Ry
     estimated scf accuracy    <       0.09917923 Ry

     iteration # 66     ecut=    30.00 Ry     beta= 0.70
     Davidson diagonalization with overlap

---- Real-time Memory Report at c_bands before calling an iterative solver
           712 MiB given to the printing process from OS
             0 MiB allocation reported by mallinfo(arena+hblkhd)
        129109 MiB available memory on the node where the printing process lives
------------------
     ethr =  3.54E-05,  avg # of iterations =  1.0

     negative rho (up, down):  4.390E-06 0.000E+00

     total cpu time spent up to now is      124.1 secs

     total energy              =   -1256.61845721 Ry
     estimated scf accuracy    <       0.86431668 Ry

     iteration # 67     ecut=    30.00 Ry     beta= 0.70
     Davidson diagonalization with overlap

---- Real-time Memory Report at c_bands before calling an iterative solver
           712 MiB given to the printing process from OS
             0 MiB allocation reported by mallinfo(arena+hblkhd)
        129107 MiB available memory on the node where the printing process lives
------------------
     ethr =  3.54E-05,  avg # of iterations =  1.0

     negative rho (up, down):  4.468E-06 0.000E+00

     total cpu time spent up to now is      125.3 secs

     total energy              =   -1256.61408181 Ry
     estimated scf accuracy    <       1.54978682 Ry

     iteration # 68     ecut=    30.00 Ry     beta= 0.70
     Davidson diagonalization with overlap

---- Real-time Memory Report at c_bands before calling an iterative solver
           712 MiB given to the printing process from OS
             0 MiB allocation reported by mallinfo(arena+hblkhd)
        129108 MiB available memory on the node where the printing process lives
------------------
     ethr =  3.54E-05,  avg # of iterations =  1.0

     negative rho (up, down):  4.482E-06 0.000E+00

     total cpu time spent up to now is      126.6 secs

     total energy              =   -1256.61705104 Ry
     estimated scf accuracy    <       0.10553795 Ry

     iteration # 69     ecut=    30.00 Ry     beta= 0.70
     Davidson diagonalization with overlap

---- Real-time Memory Report at c_bands before calling an iterative solver
           712 MiB given to the printing process from OS
             0 MiB allocation reported by mallinfo(arena+hblkhd)
        129106 MiB available memory on the node where the printing process lives
------------------
     ethr =  3.54E-05,  avg # of iterations =  1.0

     negative rho (up, down):  4.646E-06 0.000E+00

     total cpu time spent up to now is      127.8 secs

     total energy              =   -1256.61665285 Ry
     estimated scf accuracy    <       0.16850426 Ry

     iteration # 70     ecut=    30.00 Ry     beta= 0.70
     Davidson diagonalization with overlap

---- Real-time Memory Report at c_bands before calling an iterative solver
           712 MiB given to the printing process from OS
             0 MiB allocation reported by mallinfo(arena+hblkhd)
        129108 MiB available memory on the node where the printing process lives
------------------
     ethr =  3.54E-05,  avg # of iterations =  2.0

     negative rho (up, down):  4.832E-06 0.000E+00

     total cpu time spent up to now is      129.0 secs

     total energy              =   -1256.61123310 Ry
     estimated scf accuracy    <       0.08990927 Ry

     iteration # 71     ecut=    30.00 Ry     beta= 0.70
     Davidson diagonalization with overlap

---- Real-time Memory Report at c_bands before calling an iterative solver
           712 MiB given to the printing process from OS
             0 MiB allocation reported by mallinfo(arena+hblkhd)
        129107 MiB available memory on the node where the printing process lives
------------------
     ethr =  3.54E-05,  avg # of iterations =  2.0

     negative rho (up, down):  4.757E-06 0.000E+00

     total cpu time spent up to now is      130.2 secs

     total energy              =   -1256.61682778 Ry
     estimated scf accuracy    <       1.31352696 Ry

     iteration # 72     ecut=    30.00 Ry     beta= 0.70
     Davidson diagonalization with overlap

---- Real-time Memory Report at c_bands before calling an iterative solver
           712 MiB given to the printing process from OS
             0 MiB allocation reported by mallinfo(arena+hblkhd)
        129142 MiB available memory on the node where the printing process lives
------------------
     ethr =  3.54E-05,  avg # of iterations =  1.0

     negative rho (up, down):  4.264E-06 0.000E+00

     total cpu time spent up to now is      131.4 secs

     total energy              =   -1256.60281155 Ry
     estimated scf accuracy    <       2.03041807 Ry

     iteration # 73     ecut=    30.00 Ry     beta= 0.70
     Davidson diagonalization with overlap

---- Real-time Memory Report at c_bands before calling an iterative solver
           712 MiB given to the printing process from OS
             0 MiB allocation reported by mallinfo(arena+hblkhd)
        129143 MiB available memory on the node where the printing process lives
------------------
     ethr =  3.54E-05,  avg # of iterations =  1.0

     negative rho (up, down):  4.351E-06 0.000E+00

     total cpu time spent up to now is      132.6 secs

     total energy              =   -1256.61809455 Ry
     estimated scf accuracy    <       1.00071865 Ry

     iteration # 74     ecut=    30.00 Ry     beta= 0.70
     Davidson diagonalization with overlap

---- Real-time Memory Report at c_bands before calling an iterative solver
           712 MiB given to the printing process from OS
             0 MiB allocation reported by mallinfo(arena+hblkhd)
        129141 MiB available memory on the node where the printing process lives
------------------
     ethr =  3.54E-05,  avg # of iterations =  1.0

     negative rho (up, down):  4.398E-06 0.000E+00

     total cpu time spent up to now is      133.8 secs

     total energy              =   -1256.61689009 Ry
     estimated scf accuracy    <       0.81721661 Ry

     iteration # 75     ecut=    30.00 Ry     beta= 0.70
     Davidson diagonalization with overlap

---- Real-time Memory Report at c_bands before calling an iterative solver
           712 MiB given to the printing process from OS
             0 MiB allocation reported by mallinfo(arena+hblkhd)
        129140 MiB available memory on the node where the printing process lives
------------------
     ethr =  3.54E-05,  avg # of iterations =  1.0

     negative rho (up, down):  4.453E-06 0.000E+00

     total cpu time spent up to now is      135.0 secs

     total energy              =   -1256.61540574 Ry
     estimated scf accuracy    <       0.29734508 Ry

     iteration # 76     ecut=    30.00 Ry     beta= 0.70
     Davidson diagonalization with overlap

---- Real-time Memory Report at c_bands before calling an iterative solver
           712 MiB given to the printing process from OS
             0 MiB allocation reported by mallinfo(arena+hblkhd)
        129141 MiB available memory on the node where the printing process lives
------------------
     ethr =  3.54E-05,  avg # of iterations =  1.0

     negative rho (up, down):  4.055E-06 0.000E+00

     total cpu time spent up to now is      136.2 secs

     total energy              =   -1256.61587743 Ry
     estimated scf accuracy    <       0.25210925 Ry

     iteration # 77     ecut=    30.00 Ry     beta= 0.70
     Davidson diagonalization with overlap

---- Real-time Memory Report at c_bands before calling an iterative solver
           712 MiB given to the printing process from OS
             0 MiB allocation reported by mallinfo(arena+hblkhd)
        129146 MiB available memory on the node where the printing process lives
------------------
     ethr =  3.54E-05,  avg # of iterations =  1.0

     negative rho (up, down):  4.412E-06 0.000E+00

     total cpu time spent up to now is      137.3 secs

     total energy              =   -1256.61449604 Ry
     estimated scf accuracy    <       1.43347858 Ry

     iteration # 78     ecut=    30.00 Ry     beta= 0.70
     Davidson diagonalization with overlap

---- Real-time Memory Report at c_bands before calling an iterative solver
           712 MiB given to the printing process from OS
             0 MiB allocation reported by mallinfo(arena+hblkhd)
        129188 MiB available memory on the node where the printing process lives
------------------
     ethr =  3.54E-05,  avg # of iterations =  1.0

     negative rho (up, down):  4.383E-06 0.000E+00

     total cpu time spent up to now is      138.4 secs

     total energy              =   -1256.61774138 Ry
     estimated scf accuracy    <       0.14103466 Ry

     iteration # 79     ecut=    30.00 Ry     beta= 0.70
     Davidson diagonalization with overlap

---- Real-time Memory Report at c_bands before calling an iterative solver
           712 MiB given to the printing process from OS
             0 MiB allocation reported by mallinfo(arena+hblkhd)
        129174 MiB available memory on the node where the printing process lives
------------------
     ethr =  3.54E-05,  avg # of iterations =  1.0

     negative rho (up, down):  4.583E-06 0.000E+00

     total cpu time spent up to now is      139.6 secs

     total energy              =   -1256.61540192 Ry
     estimated scf accuracy    <       0.06899046 Ry

     iteration # 80     ecut=    30.00 Ry     beta= 0.70
     Davidson diagonalization with overlap

---- Real-time Memory Report at c_bands before calling an iterative solver
           712 MiB given to the printing process from OS
             0 MiB allocation reported by mallinfo(arena+hblkhd)
        129172 MiB available memory on the node where the printing process lives
------------------
     ethr =  3.54E-05,  avg # of iterations =  1.0

     negative rho (up, down):  4.578E-06 0.000E+00

     total cpu time spent up to now is      140.7 secs

     total energy              =   -1256.61690361 Ry
     estimated scf accuracy    <       0.19677506 Ry

     iteration # 81     ecut=    30.00 Ry     beta= 0.70
     Davidson diagonalization with overlap

---- Real-time Memory Report at c_bands before calling an iterative solver
           712 MiB given to the printing process from OS
             0 MiB allocation reported by mallinfo(arena+hblkhd)
        129174 MiB available memory on the node where the printing process lives
------------------
     ethr =  3.54E-05,  avg # of iterations =  1.0

     negative rho (up, down):  4.985E-06 0.000E+00

     total cpu time spent up to now is      141.9 secs

     total energy              =   -1256.61609549 Ry
     estimated scf accuracy    <       0.02559505 Ry

     iteration # 82     ecut=    30.00 Ry     beta= 0.70
     Davidson diagonalization with overlap

---- Real-time Memory Report at c_bands before calling an iterative solver
           712 MiB given to the printing process from OS
             0 MiB allocation reported by mallinfo(arena+hblkhd)
        129175 MiB available memory on the node where the printing process lives
------------------
     ethr =  3.54E-05,  avg # of iterations =  1.0

     negative rho (up, down):  4.490E-06 0.000E+00

     total cpu time spent up to now is      143.0 secs

     total energy              =   -1256.60478304 Ry
     estimated scf accuracy    <       2.03168447 Ry

     iteration # 83     ecut=    30.00 Ry     beta= 0.70
     Davidson diagonalization with overlap

---- Real-time Memory Report at c_bands before calling an iterative solver
           712 MiB given to the printing process from OS
             0 MiB allocation reported by mallinfo(arena+hblkhd)
        129175 MiB available memory on the node where the printing process lives
------------------
     ethr =  3.54E-05,  avg # of iterations =  1.0

     negative rho (up, down):  4.631E-06 0.000E+00

     total cpu time spent up to now is      144.2 secs

     total energy              =   -1256.61738968 Ry
     estimated scf accuracy    <       0.01395445 Ry

     iteration # 84     ecut=    30.00 Ry     beta= 0.70
     Davidson diagonalization with overlap

---- Real-time Memory Report at c_bands before calling an iterative solver
           712 MiB given to the printing process from OS
             0 MiB allocation reported by mallinfo(arena+hblkhd)
        129149 MiB available memory on the node where the printing process lives
------------------
     ethr =  2.79E-05,  avg # of iterations =  1.0

     negative rho (up, down):  4.767E-06 0.000E+00

     total cpu time spent up to now is      145.3 secs

     total energy              =   -1256.61632570 Ry
     estimated scf accuracy    <       0.20305973 Ry

     iteration # 85     ecut=    30.00 Ry     beta= 0.70
     Davidson diagonalization with overlap

---- Real-time Memory Report at c_bands before calling an iterative solver
           712 MiB given to the printing process from OS
             0 MiB allocation reported by mallinfo(arena+hblkhd)
        129149 MiB available memory on the node where the printing process lives
------------------
     ethr =  2.79E-05,  avg # of iterations =  1.0

     negative rho (up, down):  4.648E-06 0.000E+00

     total cpu time spent up to now is      146.5 secs

     total energy              =   -1256.61651695 Ry
     estimated scf accuracy    <       0.56422303 Ry

     iteration # 86     ecut=    30.00 Ry     beta= 0.70
     Davidson diagonalization with overlap

---- Real-time Memory Report at c_bands before calling an iterative solver
           712 MiB given to the printing process from OS
             0 MiB allocation reported by mallinfo(arena+hblkhd)
        129147 MiB available memory on the node where the printing process lives
------------------
     ethr =  2.79E-05,  avg # of iterations =  1.0

     negative rho (up, down):  4.675E-06 0.000E+00

     total cpu time spent up to now is      147.7 secs

     total energy              =   -1256.61734719 Ry
     estimated scf accuracy    <       0.01348515 Ry

     iteration # 87     ecut=    30.00 Ry     beta= 0.70
     Davidson diagonalization with overlap

---- Real-time Memory Report at c_bands before calling an iterative solver
           712 MiB given to the printing process from OS
             0 MiB allocation reported by mallinfo(arena+hblkhd)
        129147 MiB available memory on the node where the printing process lives
------------------
     ethr =  2.70E-05,  avg # of iterations =  1.0

     negative rho (up, down):  4.686E-06 0.000E+00

     total cpu time spent up to now is      148.8 secs

     total energy              =   -1256.61739122 Ry
     estimated scf accuracy    <       0.03434496 Ry

     iteration # 88     ecut=    30.00 Ry     beta= 0.70
     Davidson diagonalization with overlap

---- Real-time Memory Report at c_bands before calling an iterative solver
           712 MiB given to the printing process from OS
             0 MiB allocation reported by mallinfo(arena+hblkhd)
        129148 MiB available memory on the node where the printing process lives
------------------
     ethr =  2.70E-05,  avg # of iterations =  1.0

     negative rho (up, down):  4.723E-06 0.000E+00

     total cpu time spent up to now is      150.0 secs

     total energy              =   -1256.61744507 Ry
     estimated scf accuracy    <       0.00598214 Ry

     iteration # 89     ecut=    30.00 Ry     beta= 0.70
     Davidson diagonalization with overlap

---- Real-time Memory Report at c_bands before calling an iterative solver
           712 MiB given to the printing process from OS
             0 MiB allocation reported by mallinfo(arena+hblkhd)
        129149 MiB available memory on the node where the printing process lives
------------------
     ethr =  1.20E-05,  avg # of iterations =  1.0

     negative rho (up, down):  4.737E-06 0.000E+00

     total cpu time spent up to now is      151.2 secs

     total energy              =   -1256.61733987 Ry
     estimated scf accuracy    <       0.04599076 Ry

     iteration # 90     ecut=    30.00 Ry     beta= 0.70
     Davidson diagonalization with overlap

---- Real-time Memory Report at c_bands before calling an iterative solver
           712 MiB given to the printing process from OS
             0 MiB allocation reported by mallinfo(arena+hblkhd)
        129148 MiB available memory on the node where the printing process lives
------------------
     ethr =  1.20E-05,  avg # of iterations =  1.0

     negative rho (up, down):  4.722E-06 0.000E+00

     total cpu time spent up to now is      152.3 secs

     total energy              =   -1256.61742552 Ry
     estimated scf accuracy    <       0.01006097 Ry

     iteration # 91     ecut=    30.00 Ry     beta= 0.70
     Davidson diagonalization with overlap

---- Real-time Memory Report at c_bands before calling an iterative solver
           712 MiB given to the printing process from OS
             0 MiB allocation reported by mallinfo(arena+hblkhd)
        129148 MiB available memory on the node where the printing process lives
------------------
     ethr =  1.20E-05,  avg # of iterations =  1.0

     negative rho (up, down):  5.018E-06 0.000E+00

     total cpu time spent up to now is      153.5 secs

     total energy              =   -1256.61708859 Ry
     estimated scf accuracy    <       0.00918499 Ry

     iteration # 92     ecut=    30.00 Ry     beta= 0.70
     Davidson diagonalization with overlap

---- Real-time Memory Report at c_bands before calling an iterative solver
           712 MiB given to the printing process from OS
             0 MiB allocation reported by mallinfo(arena+hblkhd)
        129147 MiB available memory on the node where the printing process lives
------------------
     ethr =  1.20E-05,  avg # of iterations =  1.0

     negative rho (up, down):  4.626E-06 0.000E+00

     total cpu time spent up to now is      154.7 secs

     total energy              =   -1256.60795050 Ry
     estimated scf accuracy    <       2.02714881 Ry

     iteration # 93     ecut=    30.00 Ry     beta= 0.70
     Davidson diagonalization with overlap

---- Real-time Memory Report at c_bands before calling an iterative solver
           712 MiB given to the printing process from OS
             0 MiB allocation reported by mallinfo(arena+hblkhd)
        129148 MiB available memory on the node where the printing process lives
------------------
     ethr =  1.20E-05,  avg # of iterations =  1.0

     negative rho (up, down):  4.779E-06 0.000E+00

     total cpu time spent up to now is      155.8 secs

     total energy              =   -1256.61727074 Ry
     estimated scf accuracy    <       0.01482211 Ry

     iteration # 94     ecut=    30.00 Ry     beta= 0.70
     Davidson diagonalization with overlap

---- Real-time Memory Report at c_bands before calling an iterative solver
           712 MiB given to the printing process from OS
             0 MiB allocation reported by mallinfo(arena+hblkhd)
        129148 MiB available memory on the node where the printing process lives
------------------
     ethr =  1.20E-05,  avg # of iterations =  1.0

     negative rho (up, down):  4.804E-06 0.000E+00

     total cpu time spent up to now is      157.0 secs

     total energy              =   -1256.61627633 Ry
     estimated scf accuracy    <       0.24491194 Ry

     iteration # 95     ecut=    30.00 Ry     beta= 0.70
     Davidson diagonalization with overlap

---- Real-time Memory Report at c_bands before calling an iterative solver
           712 MiB given to the printing process from OS
             0 MiB allocation reported by mallinfo(arena+hblkhd)
        129174 MiB available memory on the node where the printing process lives
------------------
     ethr =  1.20E-05,  avg # of iterations =  1.0

     negative rho (up, down):  4.869E-06 0.000E+00

     total cpu time spent up to now is      158.1 secs

     total energy              =   -1256.61697921 Ry
     estimated scf accuracy    <       0.12470877 Ry

     iteration # 96     ecut=    30.00 Ry     beta= 0.70
     Davidson diagonalization with overlap

---- Real-time Memory Report at c_bands before calling an iterative solver
           712 MiB given to the printing process from OS
             0 MiB allocation reported by mallinfo(arena+hblkhd)
        129173 MiB available memory on the node where the printing process lives
------------------
     ethr =  1.20E-05,  avg # of iterations =  1.0

     negative rho (up, down):  4.838E-06 0.000E+00

     total cpu time spent up to now is      159.3 secs

     total energy              =   -1256.61575894 Ry
     estimated scf accuracy    <       0.39640628 Ry

     iteration # 97     ecut=    30.00 Ry     beta= 0.70
     Davidson diagonalization with overlap

---- Real-time Memory Report at c_bands before calling an iterative solver
           712 MiB given to the printing process from OS
             0 MiB allocation reported by mallinfo(arena+hblkhd)
        129173 MiB available memory on the node where the printing process lives
------------------
     ethr =  1.20E-05,  avg # of iterations =  1.0

     negative rho (up, down):  4.799E-06 0.000E+00

     total cpu time spent up to now is      160.4 secs

     total energy              =   -1256.61695148 Ry
     estimated scf accuracy    <       0.08872453 Ry

     iteration # 98     ecut=    30.00 Ry     beta= 0.70
     Davidson diagonalization with overlap

---- Real-time Memory Report at c_bands before calling an iterative solver
           712 MiB given to the printing process from OS
             0 MiB allocation reported by mallinfo(arena+hblkhd)
        129172 MiB available memory on the node where the printing process lives
------------------
     ethr =  1.20E-05,  avg # of iterations =  1.0

     negative rho (up, down):  4.846E-06 0.000E+00

     total cpu time spent up to now is      162.7 secs

     total energy              =   -1256.61747356 Ry
     estimated scf accuracy    <       0.00949209 Ry

     iteration # 99     ecut=    30.00 Ry     beta= 0.70
     Davidson diagonalization with overlap

---- Real-time Memory Report at c_bands before calling an iterative solver
           712 MiB given to the printing process from OS
             0 MiB allocation reported by mallinfo(arena+hblkhd)
        129153 MiB available memory on the node where the printing process lives
------------------
     ethr =  1.20E-05,  avg # of iterations =  1.0

     negative rho (up, down):  4.913E-06 0.000E+00

     total cpu time spent up to now is      163.8 secs

     total energy              =   -1256.61718480 Ry
     estimated scf accuracy    <       0.03959528 Ry

     iteration #100     ecut=    30.00 Ry     beta= 0.70
     Davidson diagonalization with overlap

---- Real-time Memory Report at c_bands before calling an iterative solver
           712 MiB given to the printing process from OS
             0 MiB allocation reported by mallinfo(arena+hblkhd)
        129157 MiB available memory on the node where the printing process lives
------------------
     ethr =  1.20E-05,  avg # of iterations =  1.0

     negative rho (up, down):  4.856E-06 0.000E+00

     total cpu time spent up to now is      165.1 secs

     total energy              =   -1256.61631756 Ry
     estimated scf accuracy    <       0.26605452 Ry

     End of self-consistent calculation

     convergence NOT achieved after 100 iterations: stopping

     Writing config to output data dir new_calculations/myprefix.save/
     Message from routine punch:
     wavefunctions written to file
 
     init_run     :    299.35s CPU     15.10s WALL (       1 calls)
     electrons    :   4431.83s CPU    149.77s WALL (       1 calls)

     Called by init_run:
     wfcinit      :    111.35s CPU      4.39s WALL (       1 calls)
     wfcinit:atom :      0.02s CPU      0.00s WALL (       1 calls)
     wfcinit:wfcr :    111.21s CPU      4.39s WALL (       1 calls)
     potinit      :     66.31s CPU      2.99s WALL (       1 calls)
     hinit0       :     96.86s CPU      6.49s WALL (       1 calls)

     Called by electrons:
     c_bands      :   1067.43s CPU     35.43s WALL (     100 calls)
     sum_band     :    826.77s CPU     28.84s WALL (     100 calls)
     v_of_rho     :     51.31s CPU      1.72s WALL (     101 calls)
     v_h          :      4.63s CPU      0.16s WALL (     101 calls)
     v_xc         :     46.43s CPU      1.55s WALL (     101 calls)
     newd         :    906.63s CPU     30.83s WALL (     101 calls)
     PAW_pot      :   1567.02s CPU     52.79s WALL (     101 calls)
     mix_rho      :     16.55s CPU      0.55s WALL (     100 calls)

     Called by c_bands:
     init_us_2    :      2.36s CPU      0.08s WALL (     201 calls)
     init_us_2:cp :      2.06s CPU      0.07s WALL (     201 calls)
     regterg      :   1045.56s CPU     34.69s WALL (     100 calls)

     Called by sum_band:
     sum_band:wei :      0.35s CPU      0.01s WALL (     100 calls)
     sum_band:loo :    199.16s CPU      6.54s WALL (     100 calls)
     sum_band:buf :      0.07s CPU      0.00s WALL (     100 calls)
     sum_band:ini :      1.19s CPU      0.04s WALL (     100 calls)
     sum_band:cal :      4.62s CPU      0.16s WALL (     100 calls)
     sum_band:bec :      0.34s CPU      0.01s WALL (     100 calls)
     addusdens    :    616.29s CPU     21.92s WALL (     100 calls)
     addusd:skk   :      0.76s CPU      0.02s WALL (     300 calls)
     addusd:dgemm :     33.85s CPU      2.63s WALL (     300 calls)
     addusd:qvan2 :    568.64s CPU     18.64s WALL (     300 calls)

     Called by *egterg:
     rdiaghg      :     10.19s CPU      0.35s WALL (     318 calls)
     regterg:over :     23.13s CPU      0.81s WALL (     218 calls)
     regterg:upda :      1.46s CPU      0.05s WALL (     218 calls)
     regterg:last :      1.43s CPU      0.05s WALL (     130 calls)
     h_psi        :   1099.94s CPU     37.11s WALL (     319 calls)
     s_psi        :      0.71s CPU      0.02s WALL (     319 calls)
     g_psi        :      0.39s CPU      0.01s WALL (     218 calls)

     Called by h_psi:
     h_psi:calbec :     20.51s CPU      0.71s WALL (     319 calls)
     vloc_psi     :   1076.10s CPU     36.29s WALL (     319 calls)
     add_vuspsi   :      1.41s CPU      0.05s WALL (     319 calls)

     General routines
     calbec       :     24.52s CPU      0.85s WALL (     419 calls)
     fft          :     91.89s CPU      4.39s WALL (    1111 calls)
     ffts         :     48.97s CPU      2.16s WALL (     201 calls)
     fftw         :   1205.41s CPU     40.49s WALL (    8060 calls)
     interpolate  :     53.14s CPU      2.30s WALL (     101 calls)
     davcio       :      0.00s CPU      0.04s WALL (      19 calls)
 
     Parallel routines

     PAW routines
     PAW_pot      :   1567.02s CPU     52.79s WALL (     101 calls)
     PAW_symme    :      5.50s CPU      0.18s WALL (     201 calls)
 
     PWSCF        :      1h18m CPU   2m45.54s WALL

 
   This run was terminated on:  14:24:28  20May2023            

=------------------------------------------------------------------------------=
   JOB DONE.
=------------------------------------------------------------------------------=
