
     Program PWSCF v.7.0 starts on 21May2023 at 15:51:29 

     This program is part of the open-source Quantum ESPRESSO suite
     for quantum simulation of materials; please cite
         "P. Giannozzi et al., J. Phys.:Condens. Matter 21 395502 (2009);
         "P. Giannozzi et al., J. Phys.:Condens. Matter 29 465901 (2017);
         "P. Giannozzi et al., J. Chem. Phys. 152 154105 (2020);
          URL http://www.quantum-espresso.org", 
     in publications or presentations arising from this work. More details at
     http://www.quantum-espresso.org/quote

     Parallel version (MPI & OpenMP), running on      32 processor cores
     Number of MPI processes:                 1
     Threads/MPI process:                    32

     MPI processes distributed on     1 nodes
     78448 MiB available memory on the printing compute node when the environment starts
 
     Reading input from espresso_21039.pwi
Warning: card &CELL ignored
Warning: card / ignored

     Current dimensions of program PWSCF are:
     Max number of different atomic species (ntypx) = 10
     Max number of k-points (npk) =  40000
     Max angular momentum in pseudopotentials (lmaxx) =  4

     gamma-point specific algorithms are used
     Message from routine setup:
     using ibrav=0 with symmetry is DISCOURAGED, use correct ibrav instead

     Subspace diagonalization in iterative solution of the eigenvalue problem:
     a serial algorithm will be used

 
     G-vector sticks info
     --------------------
     sticks:   dense  smooth     PW     G-vecs:    dense   smooth      PW
     Sum        1613     813    205                56575    20035    2499
 
     Using Slab Decomposition
 


     bravais-lattice index     =            0
     lattice parameter (alat)  =       7.0326  a.u.
     unit-cell volume          =     900.7278 (a.u.)^3
     number of atoms/cell      =            9
     number of atomic types    =            3
     number of electrons       =       123.00
     number of Kohn-Sham states=           74
     kinetic-energy cutoff     =      30.0000  Ry
     charge density cutoff     =     240.0000  Ry
     scf convergence threshold =      1.0E-06
     mixing beta               =       0.7000
     number of iterations used =            8  plain     mixing
     Exchange-correlation= PBE
                           (   1   4   3   4   0   0   0)

     celldm(1)=   7.032604  celldm(2)=   0.000000  celldm(3)=   0.000000
     celldm(4)=   0.000000  celldm(5)=   0.000000  celldm(6)=   0.000000

     crystal axes: (cart. coord. in units of alat)
               a(1) = (   1.000000   0.000000   0.000000 )  
               a(2) = (   0.000000   1.701085   0.000000 )  
               a(3) = (   0.000000  -0.942404   1.522366 )  

     reciprocal axes: (cart. coord. in units 2 pi/alat)
               b(1) = (  1.000000  0.000000  0.000000 )  
               b(2) = (  0.000000  0.587860  0.363908 )  
               b(3) = (  0.000000  0.000000  0.656872 )  


     PseudoPot. # 1 for Ni read from file:
     /home/pragov/projects/rrg-bengioy-ad/pragov/crystal_structure_design/SSSP/ni_pbe_v1.4.uspp.F.UPF
     MD5 check sum: 1ee80287db30b12d2bc1f57a5b5d6409
     Pseudo is Ultrasoft + core correction, Zval = 18.0
     Generated by new atomic code, or converted to UPF format
     Using radial grid of  865 points,  6 beta functions with: 
                l(1) =   0
                l(2) =   0
                l(3) =   1
                l(4) =   1
                l(5) =   2
                l(6) =   2
     Q(r) pseudized with 10 coefficients,  rinner =    0.980   0.980   0.980
                                                       0.980   0.980

     PseudoPot. # 2 for As read from file:
     /home/pragov/projects/rrg-bengioy-ad/pragov/crystal_structure_design/SSSP/As.pbe-n-rrkjus_psl.0.2.UPF
     MD5 check sum: 767315de957beeeb34f87d97bf945c8f
     Pseudo is Ultrasoft + core correction, Zval =  5.0
     Generated using "atomic" code by A. Dal Corso  v.5.0.99 svn rev. 10869
     Using radial grid of 1209 points,  4 beta functions with: 
                l(1) =   0
                l(2) =   0
                l(3) =   1
                l(4) =   1
     Q(r) pseudized with 0 coefficients 


     PseudoPot. # 3 for Pd read from file:
     /home/pragov/projects/rrg-bengioy-ad/pragov/crystal_structure_design/SSSP/Pd_ONCV_PBE-1.0.oncvpsp.upf
     MD5 check sum: eb77f42b51d86fb18e25f68156a31cf1
     Pseudo is Norm-conserving, Zval = 18.0
     Generated using ONCVPSP code by D. R. Hamann
     Using radial grid of 1410 points,  6 beta functions with: 
                l(1) =   0
                l(2) =   0
                l(3) =   1
                l(4) =   1
                l(5) =   2
                l(6) =   2

     atomic species   valence    mass     pseudopotential
        Ni            18.00    58.69340     Ni( 1.00)
        As             5.00    74.92159     As( 1.00)
        Pd            18.00   106.42000     Pd( 1.00)

      2 Sym. Ops. (no inversion) found


                                    s                        frac. trans.

      isym =  1     identity                                     

 cryst.   s( 1) = (     1          0          0      )
                  (     0          1          0      )
                  (     0          0          1      )

 cart.    s( 1) = (  1.0000000  0.0000000  0.0000000 )
                  (  0.0000000  1.0000000  0.0000000 )
                  (  0.0000000  0.0000000  1.0000000 )


      isym =  2     inv. 180 deg rotation - cart. axis [1,0,0]   

 cryst.   s( 2) = (    -1          0          0      )
                  (     0          1          0      )
                  (     0          0          1      )

 cart.    s( 2) = ( -1.0000000  0.0000000  0.0000000 )
                  (  0.0000000  1.0000000  0.0000000 )
                  (  0.0000000  0.0000000  1.0000000 )


   Cartesian axes

     site n.     atom                  positions (alat units)
         1           Ni  tau(   1) = (   0.0000000  -0.5045111   1.5149366  )
         2           Ni  tau(   2) = (   0.0000000   0.5704176   1.1269358  )
         3           As  tau(   3) = (   0.5000000   0.7759942   1.4943435  )
         4           As  tau(   4) = (   0.0000000  -0.0619496   1.0419513  )
         5           As  tau(   5) = (   0.0000000   0.7959693   0.5200965  )
         6           Pd  tau(   6) = (   0.0000000   1.4597987   0.3896739  )
         7           Pd  tau(   7) = (   0.5000000   0.0706988   1.5154314  )
         8           Pd  tau(   8) = (   0.5000000   0.3129172   0.6126913  )
         9           Pd  tau(   9) = (   0.5000000   1.1325856   0.9181327  )

   Crystallographic axes

     site n.     atom                  positions (cryst. coord.)
         1           Ni  tau(   1) = (  0.0000000  0.2547160  0.9951200  )
         2           Ni  tau(   2) = (  0.0000000  0.7454270  0.7402530  )
         3           As  tau(   3) = (  0.5000000  0.9999800  0.9815930  )
         4           As  tau(   4) = (  0.0000000  0.3427570  0.6844290  )
         5           As  tau(   5) = (  0.0000000  0.6571860  0.3416370  )
         6           Pd  tau(   6) = (  0.0000000  0.9999630  0.2559660  )
         7           Pd  tau(   7) = (  0.5000000  0.5930390  0.9954450  )
         8           Pd  tau(   8) = (  0.5000000  0.4069150  0.4024600  )
         9           Pd  tau(   9) = (  0.5000000  0.9999180  0.6030960  )

     number of k points=     1  Methfessel-Paxton smearing, width (Ry)=  0.0010
                       cart. coord. in units 2pi/alat
        k(    1) = (   0.0000000   0.0000000   0.0000000), wk =   2.0000000

                       cryst. coord.
        k(    1) = (   0.0000000   0.0000000   0.0000000), wk =   2.0000000

     Dense  grid:    28288 G-vectors     FFT dimensions: (  36,  60,  64)

     Smooth grid:    10018 G-vectors     FFT dimensions: (  25,  45,  45)

     Dynamical RAM for                 wfc:       1.41 MB

     Dynamical RAM for     wfc (w. buffer):       1.41 MB

     Dynamical RAM for           str. fact:       1.29 MB

     Dynamical RAM for           local pot:       0.00 MB

     Dynamical RAM for          nlocal pot:       2.52 MB

     Dynamical RAM for                qrad:       3.73 MB

     Dynamical RAM for          rho,v,vnew:       4.46 MB

     Dynamical RAM for               rhoin:       1.49 MB

     Dynamical RAM for            rho*nmix:       6.91 MB

     Dynamical RAM for           G-vectors:       1.70 MB

     Dynamical RAM for          h,s,v(r/c):       0.50 MB

     Dynamical RAM for          <psi|beta>:       0.07 MB

     Dynamical RAM for                 psi:       2.82 MB

     Dynamical RAM for                hpsi:       2.82 MB

     Dynamical RAM for                spsi:       2.82 MB

     Dynamical RAM for      wfcinit/wfcrot:       3.12 MB

     Dynamical RAM for           addusdens:      81.58 MB

     Dynamical RAM for          addusforce:      83.53 MB

     Dynamical RAM for         addusstress:      86.76 MB

     Estimated static dynamical RAM per process >      23.60 MB

     Estimated max dynamical RAM per process >     117.26 MB

     Check: negative core charge=   -0.000002

     Initial potential from superposition of free atoms

     starting charge     118.9979, renormalised to     123.0000
     Starting wfcs are   78 randomized atomic wfcs

     total cpu time spent up to now is        3.1 secs

     Self-consistent Calculation

     iteration #  1     ecut=    30.00 Ry     beta= 0.70
     Davidson diagonalization with overlap

---- Real-time Memory Report at c_bands before calling an iterative solver
           431 MiB given to the printing process from OS
             0 MiB allocation reported by mallinfo(arena+hblkhd)
         78194 MiB available memory on the node where the printing process lives
------------------
     ethr =  1.00E-02,  avg # of iterations =  5.0

     total cpu time spent up to now is        3.7 secs

     total energy              =   -1738.10658781 Ry
     estimated scf accuracy    <      22.04725481 Ry

     iteration #  2     ecut=    30.00 Ry     beta= 0.70
     Davidson diagonalization with overlap

---- Real-time Memory Report at c_bands before calling an iterative solver
           819 MiB given to the printing process from OS
             0 MiB allocation reported by mallinfo(arena+hblkhd)
         77880 MiB available memory on the node where the printing process lives
------------------
     ethr =  1.00E-02,  avg # of iterations =  5.0

     total cpu time spent up to now is        4.4 secs

     total energy              =   -1720.73779569 Ry
     estimated scf accuracy    <     226.01566936 Ry

     iteration #  3     ecut=    30.00 Ry     beta= 0.70
     Davidson diagonalization with overlap

---- Real-time Memory Report at c_bands before calling an iterative solver
           825 MiB given to the printing process from OS
             0 MiB allocation reported by mallinfo(arena+hblkhd)
         77873 MiB available memory on the node where the printing process lives
------------------
     ethr =  1.00E-02,  avg # of iterations =  3.0

     total cpu time spent up to now is        5.0 secs

     total energy              =   -1751.83079103 Ry
     estimated scf accuracy    <      34.64811708 Ry

     iteration #  4     ecut=    30.00 Ry     beta= 0.70
     Davidson diagonalization with overlap

---- Real-time Memory Report at c_bands before calling an iterative solver
           827 MiB given to the printing process from OS
             0 MiB allocation reported by mallinfo(arena+hblkhd)
         77875 MiB available memory on the node where the printing process lives
------------------
     ethr =  1.00E-02,  avg # of iterations =  2.0

     total cpu time spent up to now is        5.5 secs

     total energy              =   -1753.15948897 Ry
     estimated scf accuracy    <       5.48536755 Ry

     iteration #  5     ecut=    30.00 Ry     beta= 0.70
     Davidson diagonalization with overlap

---- Real-time Memory Report at c_bands before calling an iterative solver
           828 MiB given to the printing process from OS
             0 MiB allocation reported by mallinfo(arena+hblkhd)
         77873 MiB available memory on the node where the printing process lives
------------------
     ethr =  4.46E-03,  avg # of iterations =  1.0

     total cpu time spent up to now is        6.0 secs

     total energy              =   -1753.18334697 Ry
     estimated scf accuracy    <       1.30167818 Ry

     iteration #  6     ecut=    30.00 Ry     beta= 0.70
     Davidson diagonalization with overlap

---- Real-time Memory Report at c_bands before calling an iterative solver
           828 MiB given to the printing process from OS
             0 MiB allocation reported by mallinfo(arena+hblkhd)
         77874 MiB available memory on the node where the printing process lives
------------------
     ethr =  1.06E-03,  avg # of iterations =  6.0

     total cpu time spent up to now is        6.7 secs

     total energy              =   -1753.22813597 Ry
     estimated scf accuracy    <       0.35894106 Ry

     iteration #  7     ecut=    30.00 Ry     beta= 0.70
     Davidson diagonalization with overlap

---- Real-time Memory Report at c_bands before calling an iterative solver
           828 MiB given to the printing process from OS
             0 MiB allocation reported by mallinfo(arena+hblkhd)
         77876 MiB available memory on the node where the printing process lives
------------------
     ethr =  2.92E-04,  avg # of iterations =  6.0

     total cpu time spent up to now is        7.3 secs

     total energy              =   -1753.21077684 Ry
     estimated scf accuracy    <       1.05637642 Ry

     iteration #  8     ecut=    30.00 Ry     beta= 0.70
     Davidson diagonalization with overlap

---- Real-time Memory Report at c_bands before calling an iterative solver
           828 MiB given to the printing process from OS
             0 MiB allocation reported by mallinfo(arena+hblkhd)
         77875 MiB available memory on the node where the printing process lives
------------------
     ethr =  2.92E-04,  avg # of iterations =  2.0

     total cpu time spent up to now is        7.7 secs

     total energy              =   -1753.22070434 Ry
     estimated scf accuracy    <       0.24401605 Ry

     iteration #  9     ecut=    30.00 Ry     beta= 0.70
     Davidson diagonalization with overlap

---- Real-time Memory Report at c_bands before calling an iterative solver
           828 MiB given to the printing process from OS
             0 MiB allocation reported by mallinfo(arena+hblkhd)
         77876 MiB available memory on the node where the printing process lives
------------------
     ethr =  1.98E-04,  avg # of iterations =  2.0

     total cpu time spent up to now is        8.2 secs

     total energy              =   -1753.23255814 Ry
     estimated scf accuracy    <       0.19949711 Ry

     iteration # 10     ecut=    30.00 Ry     beta= 0.70
     Davidson diagonalization with overlap

---- Real-time Memory Report at c_bands before calling an iterative solver
           828 MiB given to the printing process from OS
             0 MiB allocation reported by mallinfo(arena+hblkhd)
         77875 MiB available memory on the node where the printing process lives
------------------
     ethr =  1.62E-04,  avg # of iterations =  1.0

     total cpu time spent up to now is        8.6 secs

     total energy              =   -1753.23823131 Ry
     estimated scf accuracy    <       0.13555661 Ry

     iteration # 11     ecut=    30.00 Ry     beta= 0.70
     Davidson diagonalization with overlap

---- Real-time Memory Report at c_bands before calling an iterative solver
           828 MiB given to the printing process from OS
             0 MiB allocation reported by mallinfo(arena+hblkhd)
         77876 MiB available memory on the node where the printing process lives
------------------
     ethr =  1.10E-04,  avg # of iterations =  1.0

     total cpu time spent up to now is        9.1 secs

     total energy              =   -1753.24150151 Ry
     estimated scf accuracy    <       0.14278912 Ry

     iteration # 12     ecut=    30.00 Ry     beta= 0.70
     Davidson diagonalization with overlap

---- Real-time Memory Report at c_bands before calling an iterative solver
           829 MiB given to the printing process from OS
             0 MiB allocation reported by mallinfo(arena+hblkhd)
         77877 MiB available memory on the node where the printing process lives
------------------
     ethr =  1.10E-04,  avg # of iterations =  1.0

     total cpu time spent up to now is        9.5 secs

     total energy              =   -1753.23077730 Ry
     estimated scf accuracy    <       0.11846861 Ry

     iteration # 13     ecut=    30.00 Ry     beta= 0.70
     Davidson diagonalization with overlap

---- Real-time Memory Report at c_bands before calling an iterative solver
           829 MiB given to the printing process from OS
             0 MiB allocation reported by mallinfo(arena+hblkhd)
         77877 MiB available memory on the node where the printing process lives
------------------
     ethr =  9.63E-05,  avg # of iterations =  1.0

     total cpu time spent up to now is       10.0 secs

     total energy              =   -1753.23451769 Ry
     estimated scf accuracy    <       0.02969169 Ry

     iteration # 14     ecut=    30.00 Ry     beta= 0.70
     Davidson diagonalization with overlap

---- Real-time Memory Report at c_bands before calling an iterative solver
           829 MiB given to the printing process from OS
             0 MiB allocation reported by mallinfo(arena+hblkhd)
         77878 MiB available memory on the node where the printing process lives
------------------
     ethr =  2.41E-05,  avg # of iterations =  1.0

     total cpu time spent up to now is       10.4 secs

     total energy              =   -1753.23324844 Ry
     estimated scf accuracy    <       0.05051447 Ry

     iteration # 15     ecut=    30.00 Ry     beta= 0.70
     Davidson diagonalization with overlap

---- Real-time Memory Report at c_bands before calling an iterative solver
           829 MiB given to the printing process from OS
             0 MiB allocation reported by mallinfo(arena+hblkhd)
         77877 MiB available memory on the node where the printing process lives
------------------
     ethr =  2.41E-05,  avg # of iterations =  1.0

     total cpu time spent up to now is       10.8 secs

     total energy              =   -1753.23426054 Ry
     estimated scf accuracy    <       0.02966876 Ry

     iteration # 16     ecut=    30.00 Ry     beta= 0.70
     Davidson diagonalization with overlap

---- Real-time Memory Report at c_bands before calling an iterative solver
           829 MiB given to the printing process from OS
             0 MiB allocation reported by mallinfo(arena+hblkhd)
         77878 MiB available memory on the node where the printing process lives
------------------
     ethr =  2.41E-05,  avg # of iterations = 11.0

     total cpu time spent up to now is       11.4 secs

     total energy              =   -1753.23444770 Ry
     estimated scf accuracy    <       0.00854924 Ry

     iteration # 17     ecut=    30.00 Ry     beta= 0.70
     Davidson diagonalization with overlap

---- Real-time Memory Report at c_bands before calling an iterative solver
           829 MiB given to the printing process from OS
             0 MiB allocation reported by mallinfo(arena+hblkhd)
         77877 MiB available memory on the node where the printing process lives
------------------
     ethr =  6.95E-06,  avg # of iterations =  1.0

     total cpu time spent up to now is       11.8 secs

     total energy              =   -1753.23425668 Ry
     estimated scf accuracy    <       0.03843998 Ry

     iteration # 18     ecut=    30.00 Ry     beta= 0.70
     Davidson diagonalization with overlap

---- Real-time Memory Report at c_bands before calling an iterative solver
           829 MiB given to the printing process from OS
             0 MiB allocation reported by mallinfo(arena+hblkhd)
         77878 MiB available memory on the node where the printing process lives
------------------
     ethr =  6.95E-06,  avg # of iterations =  1.0

     total cpu time spent up to now is       12.3 secs

     total energy              =   -1753.23428668 Ry
     estimated scf accuracy    <       0.02590910 Ry

     iteration # 19     ecut=    30.00 Ry     beta= 0.70
     Davidson diagonalization with overlap

---- Real-time Memory Report at c_bands before calling an iterative solver
           829 MiB given to the printing process from OS
             0 MiB allocation reported by mallinfo(arena+hblkhd)
         77878 MiB available memory on the node where the printing process lives
------------------
     ethr =  6.95E-06,  avg # of iterations =  1.0

     total cpu time spent up to now is       12.7 secs

     total energy              =   -1753.23410390 Ry
     estimated scf accuracy    <       0.03213321 Ry

     iteration # 20     ecut=    30.00 Ry     beta= 0.70
     Davidson diagonalization with overlap

---- Real-time Memory Report at c_bands before calling an iterative solver
           829 MiB given to the printing process from OS
             0 MiB allocation reported by mallinfo(arena+hblkhd)
         77879 MiB available memory on the node where the printing process lives
------------------
     ethr =  6.95E-06,  avg # of iterations =  1.0

     total cpu time spent up to now is       13.2 secs

     total energy              =   -1753.23397421 Ry
     estimated scf accuracy    <       0.00983075 Ry

     iteration # 21     ecut=    30.00 Ry     beta= 0.70
     Davidson diagonalization with overlap

---- Real-time Memory Report at c_bands before calling an iterative solver
           829 MiB given to the printing process from OS
             0 MiB allocation reported by mallinfo(arena+hblkhd)
         77877 MiB available memory on the node where the printing process lives
------------------
     ethr =  6.95E-06,  avg # of iterations =  1.0

     total cpu time spent up to now is       13.6 secs

     total energy              =   -1753.23396611 Ry
     estimated scf accuracy    <       0.05256438 Ry

     iteration # 22     ecut=    30.00 Ry     beta= 0.70
     Davidson diagonalization with overlap

---- Real-time Memory Report at c_bands before calling an iterative solver
           829 MiB given to the printing process from OS
             0 MiB allocation reported by mallinfo(arena+hblkhd)
         77877 MiB available memory on the node where the printing process lives
------------------
     ethr =  6.95E-06,  avg # of iterations =  1.0

     total cpu time spent up to now is       14.1 secs

     total energy              =   -1753.23430195 Ry
     estimated scf accuracy    <       0.00010686 Ry

     iteration # 23     ecut=    30.00 Ry     beta= 0.70
     Davidson diagonalization with overlap

---- Real-time Memory Report at c_bands before calling an iterative solver
           829 MiB given to the printing process from OS
             0 MiB allocation reported by mallinfo(arena+hblkhd)
         77878 MiB available memory on the node where the printing process lives
------------------
     ethr =  8.69E-08,  avg # of iterations =  1.0

     total cpu time spent up to now is       14.5 secs

     total energy              =   -1753.23431124 Ry
     estimated scf accuracy    <       0.00000686 Ry

     iteration # 24     ecut=    30.00 Ry     beta= 0.70
     Davidson diagonalization with overlap

---- Real-time Memory Report at c_bands before calling an iterative solver
           829 MiB given to the printing process from OS
             0 MiB allocation reported by mallinfo(arena+hblkhd)
         77878 MiB available memory on the node where the printing process lives
------------------
     ethr =  5.58E-09,  avg # of iterations =  2.0

     total cpu time spent up to now is       15.0 secs

     total energy              =   -1753.23431117 Ry
     estimated scf accuracy    <       0.00013328 Ry

     iteration # 25     ecut=    30.00 Ry     beta= 0.70
     Davidson diagonalization with overlap

---- Real-time Memory Report at c_bands before calling an iterative solver
           829 MiB given to the printing process from OS
             0 MiB allocation reported by mallinfo(arena+hblkhd)
         77879 MiB available memory on the node where the printing process lives
------------------
     ethr =  5.58E-09,  avg # of iterations =  1.0

     total cpu time spent up to now is       15.4 secs

     total energy              =   -1753.23431232 Ry
     estimated scf accuracy    <       0.00001491 Ry

     iteration # 26     ecut=    30.00 Ry     beta= 0.70
     Davidson diagonalization with overlap

---- Real-time Memory Report at c_bands before calling an iterative solver
           829 MiB given to the printing process from OS
             0 MiB allocation reported by mallinfo(arena+hblkhd)
         77879 MiB available memory on the node where the printing process lives
------------------
     ethr =  5.58E-09,  avg # of iterations =  1.0

     total cpu time spent up to now is       15.8 secs

     End of self-consistent calculation

          k = 0.0000 0.0000 0.0000 (  1250 PWs)   bands (ev):

   -87.3303 -87.3297 -69.4599 -69.3883 -69.0936 -69.0931 -47.8322 -47.8170
   -47.6803 -47.6772 -47.5493 -47.5416 -34.9189 -34.9080 -34.8902 -34.8165
   -34.8120 -34.7057 -34.5546 -34.5541 -34.5483 -34.5475 -34.4212 -34.4190
     2.6341   3.9459   4.4616   9.7452   9.8889  10.4377  10.4767  11.0738
    11.0750  11.7074  11.7777  11.8199  12.4603  12.7179  12.7541  12.8904
    12.9149  13.1106  13.1134  13.1573  13.2077  13.5491  13.7273  13.9016
    13.9209  14.0100  14.0590  14.2018  14.5188  14.7478  14.7850  14.8865
    14.9604  15.0265  15.0482  15.1181  15.1836  15.1854  17.4259  18.2757
    18.5758  18.6075  19.3580  20.5231  21.3286  22.0461  22.5600  23.6740
    23.7170  24.0038

     occupation numbers 
     1.0000   1.0000   1.0000   1.0000   1.0000   1.0000   1.0000   1.0000
     1.0000   1.0000   1.0000   1.0000   1.0000   1.0000   1.0000   1.0000
     1.0000   1.0000   1.0000   1.0000   1.0000   1.0000   1.0000   1.0000
     1.0000   1.0000   1.0000   1.0000   1.0000   1.0000   1.0000   1.0000
     1.0000   1.0000   1.0000   1.0000   1.0000   1.0000   1.0000   1.0000
     1.0000   1.0000   1.0000   1.0000   1.0000   1.0000   1.0000   1.0000
     1.0000   1.0000   1.0000   1.0000   1.0000   1.0000   1.0000   1.0000
     1.0000   1.0000   1.0000   1.0000   0.7968   0.7032  -0.0000  -0.0000
    -0.0000  -0.0000  -0.0000  -0.0000  -0.0000  -0.0000  -0.0000  -0.0000
    -0.0000  -0.0000

     the Fermi energy is    15.1888 ev

!    total energy              =   -1753.23431193 Ry
     estimated scf accuracy    <       0.00000093 Ry
     smearing contrib. (-TS)   =      -0.00040651 Ry
     internal energy E=F+TS    =   -1753.23390543 Ry

     The total energy is F=E-TS. E is the sum of the following terms:
     one-electron contribution =    -918.17091763 Ry
     hartree contribution      =     524.90145750 Ry
     xc contribution           =    -198.31189028 Ry
     ewald contribution        =   -1161.65255502 Ry

     convergence has been achieved in  26 iterations

     Forces acting on atoms (cartesian axes, Ry/au):

     atom    1 type  1   force =     0.00000000   -0.00052371    0.01033704
     atom    2 type  1   force =     0.00000000   -0.00937606    0.00571823
     atom    3 type  2   force =     0.00000000   -0.01883967    0.03030454
     atom    4 type  2   force =     0.00000000    0.00507843   -0.02030958
     atom    5 type  2   force =     0.00000000    0.01597936   -0.01372209
     atom    6 type  3   force =     0.00000000   -0.00750328    0.01169652
     atom    7 type  3   force =     0.00000000    0.01244496   -0.01930009
     atom    8 type  3   force =     0.00000000    0.01175644   -0.01960435
     atom    9 type  3   force =     0.00000000   -0.00901647    0.01487977
     The non-local contrib.  to forces
     atom    1 type  1   force =     0.00000000   -0.40981297   -0.00131970
     atom    2 type  1   force =     0.00000000    0.18439920    0.36772293
     atom    3 type  2   force =     0.00000000   -0.00819066    0.01335311
     atom    4 type  2   force =     0.00000000   -0.02225481   -0.02734016
     atom    5 type  2   force =     0.00000000    0.03433947    0.00767619
     atom    6 type  3   force =     0.00000000    0.13147742   -0.21190161
     atom    7 type  3   force =     0.00000000   -0.14213501   -0.04311049
     atom    8 type  3   force =     0.00000000    0.10114168    0.10775099
     atom    9 type  3   force =     0.00000000    0.06173459   -0.09957450
     The ionic contribution  to forces
     atom    1 type  1   force =     0.00000000    6.73540387    3.26440122
     atom    2 type  1   force =     0.00000000   -5.95769066   -4.53688067
     atom    3 type  2   force =     0.00000000   -0.92670510    1.49508428
     atom    4 type  2   force =     0.00000000   -0.15104299   -1.58953555
     atom    5 type  2   force =     0.00000000    1.50044038   -0.57948080
     atom    6 type  3   force =     0.00000000   -4.19990027    6.77523999
     atom    7 type  3   force =    -0.00000000   -1.62429711    1.29795004
     atom    8 type  3   force =    -0.00000000   -0.46808079    2.04700277
     atom    9 type  3   force =    -0.00000000    5.09187267   -8.17378128
     The local contribution  to forces
     atom    1 type  1   force =    -0.00000073   -6.33134001   -3.25145666
     atom    2 type  1   force =    -0.00000047    5.76489577    4.17905221
     atom    3 type  2   force =     0.00000076    0.91146601   -1.47078053
     atom    4 type  2   force =    -0.00000004    0.17461976    1.58862206
     atom    5 type  2   force =     0.00000023   -1.51008656    0.55828599
     atom    6 type  3   force =    -0.00000192    4.06114490   -6.55067833
     atom    7 type  3   force =    -0.00000063    1.77971948   -1.27380955
     atom    8 type  3   force =     0.00000025    0.37792178   -2.17434995
     atom    9 type  3   force =     0.00000103   -5.16163783    8.28640161
     The core correction contribution to forces
     atom    1 type  1   force =    -0.00000000    0.00540247   -0.00032268
     atom    2 type  1   force =    -0.00000000   -0.00215049   -0.00500940
     atom    3 type  2   force =     0.00000008    0.00429857   -0.00696556
     atom    4 type  2   force =    -0.00000002    0.00395455    0.00762859
     atom    5 type  2   force =     0.00000002   -0.00862366   -0.00012989
     atom    6 type  3   force =     0.00000000    0.00000000    0.00000000
     atom    7 type  3   force =     0.00000000    0.00000000    0.00000000
     atom    8 type  3   force =     0.00000000    0.00000000    0.00000000
     atom    9 type  3   force =     0.00000000    0.00000000    0.00000000
     The Hubbard contrib.    to forces
     atom    1 type  1   force =     0.00000000    0.00000000    0.00000000
     atom    2 type  1   force =     0.00000000    0.00000000    0.00000000
     atom    3 type  2   force =     0.00000000    0.00000000    0.00000000
     atom    4 type  2   force =     0.00000000    0.00000000    0.00000000
     atom    5 type  2   force =     0.00000000    0.00000000    0.00000000
     atom    6 type  3   force =     0.00000000    0.00000000    0.00000000
     atom    7 type  3   force =     0.00000000    0.00000000    0.00000000
     atom    8 type  3   force =     0.00000000    0.00000000    0.00000000
     atom    9 type  3   force =     0.00000000    0.00000000    0.00000000
     The SCF correction term to forces
     atom    1 type  1   force =     0.00000069   -0.00012521   -0.00095553
     atom    2 type  1   force =     0.00000013    0.00122196    0.00084278
     atom    3 type  2   force =    -0.00000025    0.00034336   -0.00037714
     atom    4 type  2   force =    -0.00000008   -0.00014622    0.00032509
     atom    5 type  2   force =    -0.00000011   -0.00003841   -0.00006395
     atom    6 type  3   force =     0.00000088   -0.00017348   -0.00095391
     atom    7 type  3   force =     0.00000087   -0.00079056   -0.00032047
     atom    8 type  3   force =     0.00000034    0.00082562    0.00000147
     atom    9 type  3   force =    -0.00000067   -0.00093405    0.00184357

     Total force =     0.062679     Total SCF correction =     0.003185


     Computing stress (Cartesian axis) and pressure

          total   stress  (Ry/bohr**3)                   (kbar)     P=    -1215.00
  -0.00908472   0.00000000   0.00000000        -1336.41        0.00        0.00
   0.00000000  -0.00779613   0.00010961            0.00    -1146.85       16.12
   0.00000000   0.00010961  -0.00789732            0.00       16.12    -1161.74

     kinetic stress (kbar)  48603.41      0.00      0.00
                                0.00  49066.20     50.21
                                0.00     50.21  49012.66

     local   stress (kbar) -16864.81      0.00     -0.00
                                0.00 -17546.13  -2689.67
                               -0.00  -2689.67 -14869.52

     nonloc. stress (kbar)  10634.34      0.00      0.00
                                0.00  10477.71    -61.53
                                0.00    -61.53  10539.46

     hartree stress (kbar)  29071.36     -0.00      0.00
                               -0.00  28922.51   1195.53
                                0.00   1195.53  27731.99

     exc-cor stress (kbar)  -6026.30     -0.00      0.00
                               -0.00  -6020.76      0.67
                                0.00      0.67  -6021.43

     corecor stress (kbar)  -3549.00      0.00     -0.00
                                0.00  -3543.96     -0.05
                               -0.00     -0.05  -3543.93

     ewald   stress (kbar) -63205.41      0.00     -0.00
                                0.00 -62502.41   1520.96
                               -0.00   1520.96 -64010.97

     hubbard stress (kbar)      0.00      0.00      0.00
                                0.00      0.00      0.00
                                0.00      0.00      0.00

     DFT-D   stress (kbar)      0.00      0.00      0.00
                                0.00      0.00      0.00
                                0.00      0.00      0.00

     XDM     stress (kbar)      0.00      0.00      0.00
                                0.00      0.00      0.00
                                0.00      0.00      0.00

     dft-nl  stress (kbar)      0.00      0.00      0.00
                                0.00      0.00      0.00
                                0.00      0.00      0.00

     TS-vdW  stress (kbar)      0.00      0.00      0.00
                                0.00      0.00      0.00
                                0.00      0.00      0.00


                                0.00      0.00      0.00
                                0.00      0.00      0.00


                                0.00      0.00      0.00


     Writing all to output data dir new_calculations/myprefix.save/
 
     init_run     :     59.67s CPU      2.97s WALL (       1 calls)
     electrons    :    395.11s CPU     12.72s WALL (       1 calls)
     forces       :      2.91s CPU      0.10s WALL (       1 calls)
     stress       :      8.02s CPU      0.26s WALL (       1 calls)

     Called by init_run:
     wfcinit      :     16.34s CPU      0.53s WALL (       1 calls)
     wfcinit:atom :      0.03s CPU      0.00s WALL (       1 calls)
     wfcinit:wfcr :     16.08s CPU      0.52s WALL (       1 calls)
     potinit      :     12.17s CPU      0.40s WALL (       1 calls)
     hinit0       :     30.14s CPU      1.99s WALL (       1 calls)

     Called by electrons:
     c_bands      :    276.63s CPU      8.80s WALL (      26 calls)
     sum_band     :     74.91s CPU      2.48s WALL (      26 calls)
     v_of_rho     :     11.21s CPU      0.36s WALL (      27 calls)
     v_h          :      1.08s CPU      0.04s WALL (      27 calls)
     v_xc         :     10.75s CPU      0.35s WALL (      29 calls)
     newd         :     27.40s CPU      0.91s WALL (      27 calls)
     mix_rho      :      3.33s CPU      0.11s WALL (      26 calls)

     Called by c_bands:
     init_us_2    :      0.60s CPU      0.02s WALL (      53 calls)
     init_us_2:cp :      0.52s CPU      0.02s WALL (      53 calls)
     regterg      :    273.78s CPU      8.71s WALL (      26 calls)

     Called by sum_band:
     sum_band:wei :      0.11s CPU      0.00s WALL (      26 calls)
     sum_band:loo :     51.86s CPU      1.64s WALL (      26 calls)
     sum_band:buf :      0.02s CPU      0.00s WALL (      26 calls)
     sum_band:ini :      0.30s CPU      0.01s WALL (      26 calls)
     sum_band:cal :      0.24s CPU      0.01s WALL (      26 calls)
     sum_band:bec :      0.06s CPU      0.00s WALL (      26 calls)
     addusdens    :     21.22s CPU      0.78s WALL (      26 calls)
     addusd:skk   :      0.13s CPU      0.00s WALL (      52 calls)
     addusd:dgemm :      1.31s CPU      0.14s WALL (      52 calls)
     addusd:qvan2 :     18.57s CPU      0.60s WALL (      52 calls)

     Called by *egterg:
     rdiaghg      :     14.58s CPU      0.49s WALL (      86 calls)
     regterg:over :      0.44s CPU      0.01s WALL (      60 calls)
     regterg:upda :      0.66s CPU      0.02s WALL (      60 calls)
     regterg:last :      1.03s CPU      0.03s WALL (      37 calls)
     h_psi        :    269.87s CPU      8.56s WALL (      87 calls)
     s_psi        :      0.22s CPU      0.01s WALL (      87 calls)
     g_psi        :      0.09s CPU      0.00s WALL (      60 calls)

     Called by h_psi:
     h_psi:calbec :      0.69s CPU      0.02s WALL (      87 calls)
     vloc_psi     :    268.24s CPU      8.51s WALL (      87 calls)
     add_vuspsi   :      0.40s CPU      0.01s WALL (      87 calls)

     General routines
     calbec       :      0.79s CPU      0.03s WALL (     118 calls)
     fft          :     21.21s CPU      0.83s WALL (     315 calls)
     ffts         :     11.03s CPU      0.36s WALL (      53 calls)
     fftw         :    290.67s CPU      9.19s WALL (    5234 calls)
     interpolate  :     11.75s CPU      0.38s WALL (      27 calls)
 
     Parallel routines
 
     PWSCF        :   7m53.35s CPU     18.64s WALL

 
   This run was terminated on:  15:51:47  21May2023            

=------------------------------------------------------------------------------=
   JOB DONE.
=------------------------------------------------------------------------------=
