
     Program PWSCF v.7.0 starts on 21May2023 at 12:18:46 

     This program is part of the open-source Quantum ESPRESSO suite
     for quantum simulation of materials; please cite
         "P. Giannozzi et al., J. Phys.:Condens. Matter 21 395502 (2009);
         "P. Giannozzi et al., J. Phys.:Condens. Matter 29 465901 (2017);
         "P. Giannozzi et al., J. Chem. Phys. 152 154105 (2020);
          URL http://www.quantum-espresso.org", 
     in publications or presentations arising from this work. More details at
     http://www.quantum-espresso.org/quote

     Parallel version (MPI & OpenMP), running on      32 processor cores
     Number of MPI processes:                 1
     Threads/MPI process:                    32

     MPI processes distributed on     1 nodes
     170876 MiB available memory on the printing compute node when the environment starts
 
     Reading input from espresso_22729.pwi
Warning: card &CELL ignored
Warning: card / ignored

     Current dimensions of program PWSCF are:
     Max number of different atomic species (ntypx) = 10
     Max number of k-points (npk) =  40000
     Max angular momentum in pseudopotentials (lmaxx) =  4
     file Mg.pbe-n-kjpaw_psl.0.3.0.UPF: wavefunction(s)  3S renormalized
     file Cd.pbe-dn-rrkjus_psl.0.3.1.UPF: wavefunction(s)  4D renormalized

     gamma-point specific algorithms are used

     Subspace diagonalization in iterative solution of the eigenvalue problem:
     a serial algorithm will be used

 
     G-vector sticks info
     --------------------
     sticks:   dense  smooth     PW     G-vecs:    dense   smooth      PW
     Sum        2193    1097    267                37543    13299    1649
 
     Using Slab Decomposition
 


     bravais-lattice index     =            0
     lattice parameter (alat)  =      11.3963  a.u.
     unit-cell volume          =     599.4156 (a.u.)^3
     number of atoms/cell      =            4
     number of atomic types    =            2
     number of electrons       =        18.00
     number of Kohn-Sham states=           13
     kinetic-energy cutoff     =      30.0000  Ry
     charge density cutoff     =     240.0000  Ry
     scf convergence threshold =      1.0E-06
     mixing beta               =       0.7000
     number of iterations used =            8  plain     mixing
     Exchange-correlation= PBE
                           (   1   4   3   4   0   0   0)

     celldm(1)=  11.396348  celldm(2)=   0.000000  celldm(3)=   0.000000
     celldm(4)=   0.000000  celldm(5)=   0.000000  celldm(6)=   0.000000

     crystal axes: (cart. coord. in units of alat)
               a(1) = (   1.000000   0.000000   0.000000 )  
               a(2) = (   0.461442   0.887170   0.000000 )  
               a(3) = (  -0.602659  -0.654543   0.456482 )  

     reciprocal axes: (cart. coord. in units 2 pi/alat)
               b(1) = (  1.000000 -0.520128  0.574421 )  
               b(2) = (  0.000000  1.127179  1.616244 )  
               b(3) = (  0.000000  0.000000  2.190666 )  


     PseudoPot. # 1 for Mg read from file:
     /home/pragov/projects/rrg-bengioy-ad/pragov/crystal_structure_design/SSSP/Mg.pbe-n-kjpaw_psl.0.3.0.UPF
     MD5 check sum: 24ecedc7f3e3cbe212e682f4413594e4
     Pseudo is Projector augmented-wave + core cor, Zval =  2.0
     Generated using "atomic" code by A. Dal Corso  v.5.0.99 svn rev. 10869
     Shape of augmentation charge: PSQ
     Using radial grid of 1129 points,  4 beta functions with: 
                l(1) =   0
                l(2) =   0
                l(3) =   1
                l(4) =   1
     Q(r) pseudized with 0 coefficients 


     PseudoPot. # 2 for Cd read from file:
     /home/pragov/projects/rrg-bengioy-ad/pragov/crystal_structure_design/SSSP/Cd.pbe-dn-rrkjus_psl.0.3.1.UPF
     MD5 check sum: 558e9f355611b531a870a69ef6ace9e2
     Pseudo is Ultrasoft + core correction, Zval = 12.0
     Generated using "atomic" code by A. Dal Corso  v.5.0.99 svn rev. 10869
     Using radial grid of 1239 points,  6 beta functions with: 
                l(1) =   0
                l(2) =   0
                l(3) =   1
                l(4) =   1
                l(5) =   2
                l(6) =   2
     Q(r) pseudized with 0 coefficients 


     atomic species   valence    mass     pseudopotential
        Mg             2.00    24.30500     Mg( 1.00)
        Cd            12.00   112.41400     Cd( 1.00)

     No symmetry found


                                    s                        frac. trans.

      isym =  1     identity                                     

 cryst.   s( 1) = (     1          0          0      )
                  (     0          1          0      )
                  (     0          0          1      )

 cart.    s( 1) = (  1.0000000 -0.0000000 -0.0000000 )
                  (  0.0000000  1.0000000 -0.0000000 )
                  (  0.0000000  0.0000000  1.0000000 )


   Cartesian axes

     site n.     atom                  positions (alat units)
         1           Mg  tau(   1) = (   0.8639212   0.2241635   0.1530261  )
         2           Mg  tau(   2) = (  -0.2354739  -0.4313673   0.4563421  )
         3           Mg  tau(   3) = (   0.4913528   0.0098544   0.4563421  )
         4           Cd  tau(   4) = (   0.1319378  -0.2173422   0.1515759  )

   Crystallographic axes

     site n.     atom                  positions (cryst. coord.)
         1           Mg  tau(   1) = (  0.8352290  0.5000000  0.3352290  )
         2           Mg  tau(   2) = (  0.2510250  0.2513320  0.9996930  )
         3           Mg  tau(   3) = (  0.7483600  0.7486680  0.9996930  )
         4           Cd  tau(   4) = (  0.3320520  0.0000000  0.3320520  )

     number of k points=     1  Methfessel-Paxton smearing, width (Ry)=  0.0010
                       cart. coord. in units 2pi/alat
        k(    1) = (   0.0000000   0.0000000   0.0000000), wk =   2.0000000

                       cryst. coord.
        k(    1) = (   0.0000000   0.0000000   0.0000000), wk =   2.0000000

     Dense  grid:    18772 G-vectors     FFT dimensions: (  60,  60,  60)

     Smooth grid:     6650 G-vectors     FFT dimensions: (  40,  40,  40)

     Dynamical RAM for                 wfc:       0.17 MB

     Dynamical RAM for     wfc (w. buffer):       0.17 MB

     Dynamical RAM for           str. fact:       0.57 MB

     Dynamical RAM for           local pot:       0.00 MB

     Dynamical RAM for          nlocal pot:       0.53 MB

     Dynamical RAM for                qrad:       2.49 MB

     Dynamical RAM for          rho,v,vnew:       5.80 MB

     Dynamical RAM for               rhoin:       1.93 MB

     Dynamical RAM for            rho*nmix:       4.58 MB

     Dynamical RAM for           G-vectors:       1.12 MB

     Dynamical RAM for          h,s,v(r/c):       0.02 MB

     Dynamical RAM for          <psi|beta>:       0.00 MB

     Dynamical RAM for                 psi:       0.33 MB

     Dynamical RAM for                hpsi:       0.33 MB

     Dynamical RAM for                spsi:       0.33 MB

     Dynamical RAM for      wfcinit/wfcrot:       0.54 MB

     Dynamical RAM for           addusdens:      54.14 MB

     Dynamical RAM for          addusforce:      55.44 MB

     Dynamical RAM for         addusstress:      57.57 MB

     Estimated static dynamical RAM per process >      21.72 MB

     Estimated max dynamical RAM per process >      83.88 MB

     Initial potential from superposition of free atoms

     starting charge      17.9923, renormalised to      18.0000
     Starting wfcs are   21 randomized atomic wfcs
     Checking if some PAW data can be deallocated... 

     total cpu time spent up to now is        3.3 secs

     Self-consistent Calculation

     iteration #  1     ecut=    30.00 Ry     beta= 0.70
     Davidson diagonalization with overlap

---- Real-time Memory Report at c_bands before calling an iterative solver
           376 MiB given to the printing process from OS
             0 MiB allocation reported by mallinfo(arena+hblkhd)
        170731 MiB available memory on the node where the printing process lives
------------------
     ethr =  1.00E-02,  avg # of iterations =  2.0

     total cpu time spent up to now is        3.6 secs

     total energy              =    -222.75286245 Ry
     estimated scf accuracy    <       0.37937970 Ry

     iteration #  2     ecut=    30.00 Ry     beta= 0.70
     Davidson diagonalization with overlap

---- Real-time Memory Report at c_bands before calling an iterative solver
           392 MiB given to the printing process from OS
             0 MiB allocation reported by mallinfo(arena+hblkhd)
        170716 MiB available memory on the node where the printing process lives
------------------
     ethr =  2.11E-03,  avg # of iterations =  4.0

     total cpu time spent up to now is        3.8 secs

     total energy              =    -222.85815162 Ry
     estimated scf accuracy    <       1.15807781 Ry

     iteration #  3     ecut=    30.00 Ry     beta= 0.70
     Davidson diagonalization with overlap

---- Real-time Memory Report at c_bands before calling an iterative solver
           414 MiB given to the printing process from OS
             0 MiB allocation reported by mallinfo(arena+hblkhd)
        170695 MiB available memory on the node where the printing process lives
------------------
     ethr =  2.11E-03,  avg # of iterations =  2.0

     total cpu time spent up to now is        4.0 secs

     total energy              =    -222.95788473 Ry
     estimated scf accuracy    <       0.23076930 Ry

     iteration #  4     ecut=    30.00 Ry     beta= 0.70
     Davidson diagonalization with overlap

---- Real-time Memory Report at c_bands before calling an iterative solver
           414 MiB given to the printing process from OS
             0 MiB allocation reported by mallinfo(arena+hblkhd)
        170690 MiB available memory on the node where the printing process lives
------------------
     ethr =  1.28E-03,  avg # of iterations =  1.0

     total cpu time spent up to now is        4.2 secs

     total energy              =    -222.94073096 Ry
     estimated scf accuracy    <       0.16494051 Ry

     iteration #  5     ecut=    30.00 Ry     beta= 0.70
     Davidson diagonalization with overlap

---- Real-time Memory Report at c_bands before calling an iterative solver
           414 MiB given to the printing process from OS
             0 MiB allocation reported by mallinfo(arena+hblkhd)
        170690 MiB available memory on the node where the printing process lives
------------------
     ethr =  9.16E-04,  avg # of iterations =  1.0

     total cpu time spent up to now is        4.4 secs

     total energy              =    -222.96279260 Ry
     estimated scf accuracy    <       0.21692502 Ry

     iteration #  6     ecut=    30.00 Ry     beta= 0.70
     Davidson diagonalization with overlap

---- Real-time Memory Report at c_bands before calling an iterative solver
           414 MiB given to the printing process from OS
             0 MiB allocation reported by mallinfo(arena+hblkhd)
        170690 MiB available memory on the node where the printing process lives
------------------
     ethr =  9.16E-04,  avg # of iterations =  1.0

     total cpu time spent up to now is        4.6 secs

     total energy              =    -222.95168289 Ry
     estimated scf accuracy    <       0.21320264 Ry

     iteration #  7     ecut=    30.00 Ry     beta= 0.70
     Davidson diagonalization with overlap

---- Real-time Memory Report at c_bands before calling an iterative solver
           414 MiB given to the printing process from OS
             0 MiB allocation reported by mallinfo(arena+hblkhd)
        170690 MiB available memory on the node where the printing process lives
------------------
     ethr =  9.16E-04,  avg # of iterations =  1.0

     total cpu time spent up to now is        4.8 secs

     total energy              =    -222.95168726 Ry
     estimated scf accuracy    <       0.14094937 Ry

     iteration #  8     ecut=    30.00 Ry     beta= 0.70
     Davidson diagonalization with overlap

---- Real-time Memory Report at c_bands before calling an iterative solver
           414 MiB given to the printing process from OS
             0 MiB allocation reported by mallinfo(arena+hblkhd)
        170690 MiB available memory on the node where the printing process lives
------------------
     ethr =  7.83E-04,  avg # of iterations =  1.0

     total cpu time spent up to now is        5.0 secs

     total energy              =    -222.95431843 Ry
     estimated scf accuracy    <       0.07893901 Ry

     iteration #  9     ecut=    30.00 Ry     beta= 0.70
     Davidson diagonalization with overlap

---- Real-time Memory Report at c_bands before calling an iterative solver
           416 MiB given to the printing process from OS
             0 MiB allocation reported by mallinfo(arena+hblkhd)
        170689 MiB available memory on the node where the printing process lives
------------------
     ethr =  4.39E-04,  avg # of iterations =  1.0

     total cpu time spent up to now is        5.2 secs

     total energy              =    -222.95670755 Ry
     estimated scf accuracy    <       0.11262080 Ry

     iteration # 10     ecut=    30.00 Ry     beta= 0.70
     Davidson diagonalization with overlap

---- Real-time Memory Report at c_bands before calling an iterative solver
           416 MiB given to the printing process from OS
             0 MiB allocation reported by mallinfo(arena+hblkhd)
        170689 MiB available memory on the node where the printing process lives
------------------
     ethr =  4.39E-04,  avg # of iterations =  1.0

     total cpu time spent up to now is        5.4 secs

     total energy              =    -222.95591456 Ry
     estimated scf accuracy    <       0.09615418 Ry

     iteration # 11     ecut=    30.00 Ry     beta= 0.70
     Davidson diagonalization with overlap

---- Real-time Memory Report at c_bands before calling an iterative solver
           416 MiB given to the printing process from OS
             0 MiB allocation reported by mallinfo(arena+hblkhd)
        170689 MiB available memory on the node where the printing process lives
------------------
     ethr =  4.39E-04,  avg # of iterations =  1.0

     total cpu time spent up to now is        5.6 secs

     total energy              =    -222.95555047 Ry
     estimated scf accuracy    <       0.04234089 Ry

     iteration # 12     ecut=    30.00 Ry     beta= 0.70
     Davidson diagonalization with overlap

---- Real-time Memory Report at c_bands before calling an iterative solver
           416 MiB given to the printing process from OS
             0 MiB allocation reported by mallinfo(arena+hblkhd)
        170689 MiB available memory on the node where the printing process lives
------------------
     ethr =  2.35E-04,  avg # of iterations =  1.0

     total cpu time spent up to now is        6.3 secs

     total energy              =    -222.95582097 Ry
     estimated scf accuracy    <       0.00017447 Ry

     iteration # 13     ecut=    30.00 Ry     beta= 0.70
     Davidson diagonalization with overlap

---- Real-time Memory Report at c_bands before calling an iterative solver
           416 MiB given to the printing process from OS
             0 MiB allocation reported by mallinfo(arena+hblkhd)
        170689 MiB available memory on the node where the printing process lives
------------------
     ethr =  9.69E-07,  avg # of iterations = 13.0

     total cpu time spent up to now is        7.6 secs

     total energy              =    -222.95634395 Ry
     estimated scf accuracy    <       0.00042792 Ry

     iteration # 14     ecut=    30.00 Ry     beta= 0.70
     Davidson diagonalization with overlap

---- Real-time Memory Report at c_bands before calling an iterative solver
           416 MiB given to the printing process from OS
             0 MiB allocation reported by mallinfo(arena+hblkhd)
        170690 MiB available memory on the node where the printing process lives
------------------
     ethr =  9.69E-07,  avg # of iterations =  1.0

     total cpu time spent up to now is        8.3 secs

     total energy              =    -222.95634241 Ry
     estimated scf accuracy    <       0.00002487 Ry

     iteration # 15     ecut=    30.00 Ry     beta= 0.70
     Davidson diagonalization with overlap

---- Real-time Memory Report at c_bands before calling an iterative solver
           416 MiB given to the printing process from OS
             0 MiB allocation reported by mallinfo(arena+hblkhd)
        170689 MiB available memory on the node where the printing process lives
------------------
     ethr =  1.38E-07,  avg # of iterations =  1.0

     total cpu time spent up to now is        9.0 secs

     total energy              =    -222.95633899 Ry
     estimated scf accuracy    <       0.00009272 Ry

     iteration # 16     ecut=    30.00 Ry     beta= 0.70
     Davidson diagonalization with overlap

---- Real-time Memory Report at c_bands before calling an iterative solver
           416 MiB given to the printing process from OS
             0 MiB allocation reported by mallinfo(arena+hblkhd)
        170689 MiB available memory on the node where the printing process lives
------------------
     ethr =  1.38E-07,  avg # of iterations =  1.0

     total cpu time spent up to now is        9.2 secs

     total energy              =    -222.95634067 Ry
     estimated scf accuracy    <       0.00006488 Ry

     iteration # 17     ecut=    30.00 Ry     beta= 0.70
     Davidson diagonalization with overlap

---- Real-time Memory Report at c_bands before calling an iterative solver
           416 MiB given to the printing process from OS
             0 MiB allocation reported by mallinfo(arena+hblkhd)
        170688 MiB available memory on the node where the printing process lives
------------------
     ethr =  1.38E-07,  avg # of iterations =  1.0

     total cpu time spent up to now is        9.4 secs

     total energy              =    -222.95634205 Ry
     estimated scf accuracy    <       0.00006145 Ry

     iteration # 18     ecut=    30.00 Ry     beta= 0.70
     Davidson diagonalization with overlap

---- Real-time Memory Report at c_bands before calling an iterative solver
           416 MiB given to the printing process from OS
             0 MiB allocation reported by mallinfo(arena+hblkhd)
        170688 MiB available memory on the node where the printing process lives
------------------
     ethr =  1.38E-07,  avg # of iterations =  1.0

     total cpu time spent up to now is        9.6 secs

     total energy              =    -222.95634229 Ry
     estimated scf accuracy    <       0.00000796 Ry

     iteration # 19     ecut=    30.00 Ry     beta= 0.70
     Davidson diagonalization with overlap

---- Real-time Memory Report at c_bands before calling an iterative solver
           416 MiB given to the printing process from OS
             0 MiB allocation reported by mallinfo(arena+hblkhd)
        170688 MiB available memory on the node where the printing process lives
------------------
     ethr =  4.42E-08,  avg # of iterations =  1.0

     total cpu time spent up to now is        9.8 secs

     End of self-consistent calculation

          k = 0.0000 0.0000 0.0000 (   825 PWs)   bands (ev):

    -2.9571  -2.9203  -2.8393  -2.3217  -2.0868  -1.9436   3.6686   4.1005
     4.4474   4.4503   5.3168   5.6514  13.2490

     occupation numbers 
     1.0000   1.0000   1.0000   1.0000   1.0000   1.0000   1.0000   1.0000
     0.5891   0.4109  -0.0000  -0.0000  -0.0000

     the Fermi energy is     4.4488 ev

!    total energy              =    -222.95634235 Ry
     estimated scf accuracy    <       0.00000032 Ry
     smearing contrib. (-TS)   =      -0.00054536 Ry
     internal energy E=F+TS    =    -222.95579699 Ry

     The total energy is F=E-TS. E is the sum of the following terms:
     one-electron contribution =     -66.76467635 Ry
     hartree contribution      =      46.76079812 Ry
     xc contribution           =     -47.63299389 Ry
     ewald contribution        =     -61.44842771 Ry
     one-center paw contrib.   =     -93.87049716 Ry
      -> PAW hartree energy AE =       2.25013881 Ry
      -> PAW hartree energy PS =      -2.24448145 Ry
      -> PAW xc energy AE      =     -97.76284924 Ry
      -> PAW xc energy PS      =       3.88669472 Ry
      -> total E_H with PAW    =      46.76645548 Ry
      -> total E_XC with PAW   =    -141.50914841 Ry

     convergence has been achieved in  19 iterations

     Forces acting on atoms (cartesian axes, Ry/au):

     atom    1 type  1   force =    -0.00306378    0.00656979    0.03106535
     atom    2 type  1   force =     0.01240869    0.00348548    0.03555779
     atom    3 type  1   force =    -0.00884666   -0.00968208    0.03555583
     atom    4 type  2   force =    -0.00049825   -0.00037319   -0.10217896
     The non-local contrib.  to forces
     atom    1 type  1   force =    -0.01235541    0.02200602   -0.01403188
     atom    2 type  1   force =     0.04682482   -0.00496244    0.01710926
     atom    3 type  1   force =    -0.01718407   -0.04313733    0.01655720
     atom    4 type  2   force =     0.04189301    0.03320015   -0.13232028
     The ionic contribution  to forces
     atom    1 type  1   force =    -0.01531048    0.02521902   -0.01758827
     atom    2 type  1   force =    -0.27109687   -0.16656894    0.00101894
     atom    3 type  1   force =     0.27288422    0.16364877    0.00102194
     atom    4 type  2   force =     0.01352313   -0.02229886    0.01554739
     The local contribution  to forces
     atom    1 type  1   force =     0.02525203   -0.04163698    0.02988992
     atom    2 type  1   force =     0.24265480    0.17153974   -0.01244337
     atom    3 type  1   force =    -0.26436249   -0.13735321   -0.01179901
     atom    4 type  2   force =    -0.04475057   -0.01618325   -0.01354089
     The core correction contribution to forces
     atom    1 type  1   force =     0.00129026   -0.00216981    0.00149052
     atom    2 type  1   force =    -0.00423839    0.00030774   -0.00148616
     atom    3 type  1   force =     0.00165119    0.00382442   -0.00146805
     atom    4 type  2   force =    -0.00894988    0.00183693   -0.00308560
     The Hubbard contrib.    to forces
     atom    1 type  1   force =     0.00000000    0.00000000    0.00000000
     atom    2 type  1   force =     0.00000000    0.00000000    0.00000000
     atom    3 type  1   force =     0.00000000    0.00000000    0.00000000
     atom    4 type  2   force =     0.00000000    0.00000000    0.00000000
     The SCF correction term to forces
     atom    1 type  1   force =    -0.00009836   -0.00006629    0.00000340
     atom    2 type  1   force =     0.00010615   -0.00004846    0.00005747
     atom    3 type  1   force =     0.00000630    0.00011745   -0.00005790
     atom    4 type  2   force =    -0.00037213   -0.00014599   -0.00008123

     Total force =     0.119688     Total SCF correction =     0.000463


     Computing stress (Cartesian axis) and pressure

          total   stress  (Ry/bohr**3)                   (kbar)     P=     -143.07
   0.00106336   0.00177627   0.00085902          156.43      261.30      126.37
   0.00177627  -0.00054823  -0.00114258          261.30      -80.65     -168.08
   0.00085902  -0.00114258  -0.00343275          126.37     -168.08     -504.97

     kinetic stress (kbar)   7108.03    285.59    111.00
                              285.59   6839.14   -142.76
                              111.00   -142.76   6458.69

     local   stress (kbar)    -80.35   1368.94   1848.54
                             1368.94  -1505.95  -3035.96
                             1848.54  -3035.96  -6199.01

     nonloc. stress (kbar)  -1301.69    -22.92     22.74
                              -22.92  -1267.96    -43.92
                               22.74    -43.92  -1321.67

     hartree stress (kbar)   2631.56   -643.43   -887.17
                             -643.43   3300.48   1458.31
                             -887.17   1458.31   5543.72

     exc-cor stress (kbar)   4995.15     -0.18      0.52
                               -0.18   4995.28     -0.94
                                0.52     -0.94   4994.54

     corecor stress (kbar)  -6846.39     -0.91     -0.43
                               -0.91  -6846.77      1.24
                               -0.43      1.24  -6845.67

     ewald   stress (kbar)  -6349.88   -725.79   -968.83
                             -725.79  -5594.86   1595.96
                             -968.83   1595.96  -3135.57

     hubbard stress (kbar)      0.00      0.00      0.00
                                0.00      0.00      0.00
                                0.00      0.00      0.00

     DFT-D   stress (kbar)      0.00      0.00      0.00
                                0.00      0.00      0.00
                                0.00      0.00      0.00

     XDM     stress (kbar)      0.00      0.00      0.00
                                0.00      0.00      0.00
                                0.00      0.00      0.00

     dft-nl  stress (kbar)      0.00      0.00      0.00
                                0.00      0.00      0.00
                                0.00      0.00      0.00

     TS-vdW  stress (kbar)      0.00      0.00      0.00
                                0.00      0.00      0.00
                                0.00      0.00      0.00


                                0.00      0.00      0.00
                                0.00      0.00      0.00


                                0.00      0.00      0.00


     Writing all to output data dir new_calculations/myprefix.save/
 
     init_run     :     79.87s CPU      3.13s WALL (       1 calls)
     electrons    :    199.39s CPU      6.59s WALL (       1 calls)
     forces       :      2.41s CPU      0.08s WALL (       1 calls)
     stress       :      5.51s CPU      0.18s WALL (       1 calls)

     Called by init_run:
     wfcinit      :     19.33s CPU      0.63s WALL (       1 calls)
     wfcinit:atom :      0.02s CPU      0.00s WALL (       1 calls)
     wfcinit:wfcr :     19.25s CPU      0.63s WALL (       1 calls)
     potinit      :     18.07s CPU      0.60s WALL (       1 calls)
     hinit0       :     40.45s CPU      1.83s WALL (       1 calls)

     Called by electrons:
     c_bands      :    105.24s CPU      3.44s WALL (      19 calls)
     sum_band     :     39.72s CPU      1.32s WALL (      19 calls)
     v_of_rho     :     12.41s CPU      0.42s WALL (      20 calls)
     v_h          :      0.90s CPU      0.03s WALL (      20 calls)
     v_xc         :     12.45s CPU      0.42s WALL (      22 calls)
     newd         :     18.13s CPU      0.61s WALL (      20 calls)
     PAW_pot      :     20.63s CPU      0.69s WALL (      20 calls)
     mix_rho      :      2.42s CPU      0.08s WALL (      19 calls)

     Called by c_bands:
     init_us_2    :      0.30s CPU      0.01s WALL (      39 calls)
     init_us_2:cp :      0.24s CPU      0.01s WALL (      39 calls)
     regterg      :    104.69s CPU      3.42s WALL (      19 calls)

     Called by sum_band:
     sum_band:wei :      0.04s CPU      0.00s WALL (      19 calls)
     sum_band:loo :     21.70s CPU      0.71s WALL (      19 calls)
     sum_band:buf :      0.02s CPU      0.00s WALL (      19 calls)
     sum_band:ini :      0.15s CPU      0.01s WALL (      19 calls)
     sum_band:cal :      0.72s CPU      0.02s WALL (      19 calls)
     sum_band:bec :      0.06s CPU      0.00s WALL (      19 calls)
     addusdens    :     16.40s CPU      0.56s WALL (      19 calls)
     addusd:skk   :      0.08s CPU      0.00s WALL (      38 calls)
     addusd:dgemm :      2.15s CPU      0.10s WALL (      38 calls)
     addusd:qvan2 :     13.37s CPU      0.43s WALL (      38 calls)

     Called by *egterg:
     rdiaghg      :      0.56s CPU      0.02s WALL (      55 calls)
     regterg:over :      2.60s CPU      0.09s WALL (      36 calls)
     regterg:upda :      0.12s CPU      0.00s WALL (      36 calls)
     regterg:last :      0.13s CPU      0.00s WALL (      26 calls)
     h_psi        :    119.63s CPU      3.90s WALL (      56 calls)
     s_psi        :      0.09s CPU      0.00s WALL (      56 calls)
     g_psi        :      0.06s CPU      0.00s WALL (      36 calls)

     Called by h_psi:
     h_psi:calbec :      0.86s CPU      0.03s WALL (      56 calls)
     vloc_psi     :    118.33s CPU      3.86s WALL (      56 calls)
     add_vuspsi   :      0.13s CPU      0.00s WALL (      56 calls)

     General routines
     calbec       :      1.49s CPU      0.05s WALL (      80 calls)
     fft          :     27.22s CPU      0.93s WALL (     238 calls)
     ffts         :     15.75s CPU      0.52s WALL (      39 calls)
     fftw         :    132.80s CPU      4.33s WALL (     761 calls)
     interpolate  :     16.56s CPU      0.55s WALL (      20 calls)
 
     Parallel routines

     PAW routines
     PAW_pot      :     20.63s CPU      0.69s WALL (      20 calls)
 
     PWSCF        :   4m58.37s CPU     10.85s WALL

 
   This run was terminated on:  12:18:57  21May2023            

=------------------------------------------------------------------------------=
   JOB DONE.
=------------------------------------------------------------------------------=
