
     Program PWSCF v.7.0 starts on 20May2023 at  6:43:12 

     This program is part of the open-source Quantum ESPRESSO suite
     for quantum simulation of materials; please cite
         "P. Giannozzi et al., J. Phys.:Condens. Matter 21 395502 (2009);
         "P. Giannozzi et al., J. Phys.:Condens. Matter 29 465901 (2017);
         "P. Giannozzi et al., J. Chem. Phys. 152 154105 (2020);
          URL http://www.quantum-espresso.org", 
     in publications or presentations arising from this work. More details at
     http://www.quantum-espresso.org/quote

     Parallel version (MPI & OpenMP), running on      32 processor cores
     Number of MPI processes:                 1
     Threads/MPI process:                    32

     MPI processes distributed on     1 nodes
     137940 MiB available memory on the printing compute node when the environment starts
 
     Reading input from espresso_11136.pwi
Warning: card &CELL ignored
Warning: card / ignored

     Current dimensions of program PWSCF are:
     Max number of different atomic species (ntypx) = 10
     Max number of k-points (npk) =  40000
     Max angular momentum in pseudopotentials (lmaxx) =  4
     file Al.pbe-n-kjpaw_psl.1.0.0.UPF: wavefunction(s)  3S 3P renormalized

     gamma-point specific algorithms are used
     Message from routine setup:
     using ibrav=0 with symmetry is DISCOURAGED, use correct ibrav instead

     Subspace diagonalization in iterative solution of the eigenvalue problem:
     a serial algorithm will be used

 
     G-vector sticks info
     --------------------
     sticks:   dense  smooth     PW     G-vecs:    dense   smooth      PW
     Sum        1765     885    221                56115    19933    2517
 
     Using Slab Decomposition
 


     bravais-lattice index     =            0
     lattice parameter (alat)  =       9.6395  a.u.
     unit-cell volume          =     895.6984 (a.u.)^3
     number of atoms/cell      =            5
     number of atomic types    =            3
     number of electrons       =        41.00
     number of Kohn-Sham states=           25
     kinetic-energy cutoff     =      30.0000  Ry
     charge density cutoff     =     240.0000  Ry
     scf convergence threshold =      1.0E-06
     mixing beta               =       0.7000
     number of iterations used =            8  plain     mixing
     Exchange-correlation= PBE
                           (   1   4   3   4   0   0   0)

     celldm(1)=   9.639487  celldm(2)=   0.000000  celldm(3)=   0.000000
     celldm(4)=   0.000000  celldm(5)=   0.000000  celldm(6)=   0.000000

     crystal axes: (cart. coord. in units of alat)
               a(1) = (   1.000000   0.000000   0.000000 )  
               a(2) = (   0.000000   1.000000   0.000000 )  
               a(3) = (   0.000000   0.000000   1.000000 )  

     reciprocal axes: (cart. coord. in units 2 pi/alat)
               b(1) = (  1.000000  0.000000  0.000000 )  
               b(2) = (  0.000000  1.000000  0.000000 )  
               b(3) = (  0.000000  0.000000  1.000000 )  


     PseudoPot. # 1 for La read from file:
     /home/pragov/projects/rrg-bengioy-ad/pragov/crystal_structure_design/SSSP/La.GGA-PBE-paw-v1.0.UPF
     MD5 check sum: 436541e95c1ad8901025bd0b0ed42ae2
     Pseudo is Projector augmented-wave + core cor, Zval = 11.0
     Generated using ATOMPAW code
     Shape of augmentation charge: BESSEL
     Using radial grid of 1101 points,  8 beta functions with: 
                l(1) =   0
                l(2) =   0
                l(3) =   1
                l(4) =   1
                l(5) =   2
                l(6) =   2
                l(7) =   3
                l(8) =   3
     Q(r) pseudized with 0 coefficients 


     PseudoPot. # 2 for Al read from file:
     /home/pragov/projects/rrg-bengioy-ad/pragov/crystal_structure_design/SSSP/Al.pbe-n-kjpaw_psl.1.0.0.UPF
     MD5 check sum: cfc449ca30b5f3223ec38ddd88ac046d
     Pseudo is Projector augmented-wave + core cor, Zval =  3.0
     Generated using "atomic" code by A. Dal Corso  v.5.1
     Shape of augmentation charge: PSQ
     Using radial grid of 1135 points,  6 beta functions with: 
                l(1) =   0
                l(2) =   0
                l(3) =   1
                l(4) =   1
                l(5) =   2
                l(6) =   2
     Q(r) pseudized with 0 coefficients 


     PseudoPot. # 3 for N  read from file:
     /home/pragov/projects/rrg-bengioy-ad/pragov/crystal_structure_design/SSSP/N.pbe-n-radius_5.UPF
     MD5 check sum: 16739722b17309cd8fe442a2ace49922
     Pseudo is Ultrasoft + core correction, Zval =  5.0
     Generated using "atomic" code by A. Dal Corso  v.5.1
     Using radial grid of 1085 points,  4 beta functions with: 
                l(1) =   0
                l(2) =   0
                l(3) =   1
                l(4) =   1
     Q(r) pseudized with 0 coefficients 


     atomic species   valence    mass     pseudopotential
        La            11.00   138.90547     La( 1.00)
        Al             3.00    26.98154     Al( 1.00)
        N              5.00    14.00700     N ( 1.00)

     48 Sym. Ops., with inversion, found


                                    s                        frac. trans.

      isym =  1     identity                                     

 cryst.   s( 1) = (     1          0          0      )
                  (     0          1          0      )
                  (     0          0          1      )

 cart.    s( 1) = (  1.0000000  0.0000000  0.0000000 )
                  (  0.0000000  1.0000000  0.0000000 )
                  (  0.0000000  0.0000000  1.0000000 )


      isym =  2     180 deg rotation - cart. axis [0,0,1]        

 cryst.   s( 2) = (    -1          0          0      )
                  (     0         -1          0      )
                  (     0          0          1      )

 cart.    s( 2) = ( -1.0000000  0.0000000  0.0000000 )
                  (  0.0000000 -1.0000000  0.0000000 )
                  (  0.0000000  0.0000000  1.0000000 )


      isym =  3     180 deg rotation - cart. axis [0,1,0]        

 cryst.   s( 3) = (    -1          0          0      )
                  (     0          1          0      )
                  (     0          0         -1      )

 cart.    s( 3) = ( -1.0000000  0.0000000  0.0000000 )
                  (  0.0000000  1.0000000  0.0000000 )
                  (  0.0000000  0.0000000 -1.0000000 )


      isym =  4     180 deg rotation - cart. axis [1,0,0]        

 cryst.   s( 4) = (     1          0          0      )
                  (     0         -1          0      )
                  (     0          0         -1      )

 cart.    s( 4) = (  1.0000000  0.0000000  0.0000000 )
                  (  0.0000000 -1.0000000  0.0000000 )
                  (  0.0000000  0.0000000 -1.0000000 )


      isym =  5     180 deg rotation - cart. axis [1,1,0]        

 cryst.   s( 5) = (     0          1          0      )
                  (     1          0          0      )
                  (     0          0         -1      )

 cart.    s( 5) = (  0.0000000  1.0000000  0.0000000 )
                  (  1.0000000  0.0000000  0.0000000 )
                  (  0.0000000  0.0000000 -1.0000000 )


      isym =  6     180 deg rotation - cart. axis [1,-1,0]       

 cryst.   s( 6) = (     0         -1          0      )
                  (    -1          0          0      )
                  (     0          0         -1      )

 cart.    s( 6) = (  0.0000000 -1.0000000  0.0000000 )
                  ( -1.0000000  0.0000000  0.0000000 )
                  (  0.0000000  0.0000000 -1.0000000 )


      isym =  7      90 deg rotation - cart. axis [0,0,-1]       

 cryst.   s( 7) = (     0         -1          0      )
                  (     1          0          0      )
                  (     0          0          1      )

 cart.    s( 7) = (  0.0000000  1.0000000  0.0000000 )
                  ( -1.0000000  0.0000000  0.0000000 )
                  (  0.0000000  0.0000000  1.0000000 )


      isym =  8      90 deg rotation - cart. axis [0,0,1]        

 cryst.   s( 8) = (     0          1          0      )
                  (    -1          0          0      )
                  (     0          0          1      )

 cart.    s( 8) = (  0.0000000 -1.0000000  0.0000000 )
                  (  1.0000000  0.0000000  0.0000000 )
                  (  0.0000000  0.0000000  1.0000000 )


      isym =  9     180 deg rotation - cart. axis [1,0,1]        

 cryst.   s( 9) = (     0          0          1      )
                  (     0         -1          0      )
                  (     1          0          0      )

 cart.    s( 9) = (  0.0000000  0.0000000  1.0000000 )
                  (  0.0000000 -1.0000000  0.0000000 )
                  (  1.0000000  0.0000000  0.0000000 )


      isym = 10     180 deg rotation - cart. axis [-1,0,1]       

 cryst.   s(10) = (     0          0         -1      )
                  (     0         -1          0      )
                  (    -1          0          0      )

 cart.    s(10) = (  0.0000000  0.0000000 -1.0000000 )
                  (  0.0000000 -1.0000000  0.0000000 )
                  ( -1.0000000  0.0000000  0.0000000 )


      isym = 11      90 deg rotation - cart. axis [0,1,0]        

 cryst.   s(11) = (     0          0         -1      )
                  (     0          1          0      )
                  (     1          0          0      )

 cart.    s(11) = (  0.0000000  0.0000000  1.0000000 )
                  (  0.0000000  1.0000000  0.0000000 )
                  ( -1.0000000  0.0000000  0.0000000 )


      isym = 12      90 deg rotation - cart. axis [0,-1,0]       

 cryst.   s(12) = (     0          0          1      )
                  (     0          1          0      )
                  (    -1          0          0      )

 cart.    s(12) = (  0.0000000  0.0000000 -1.0000000 )
                  (  0.0000000  1.0000000  0.0000000 )
                  (  1.0000000  0.0000000  0.0000000 )


      isym = 13     180 deg rotation - cart. axis [0,1,1]        

 cryst.   s(13) = (    -1          0          0      )
                  (     0          0          1      )
                  (     0          1          0      )

 cart.    s(13) = ( -1.0000000  0.0000000  0.0000000 )
                  (  0.0000000  0.0000000  1.0000000 )
                  (  0.0000000  1.0000000  0.0000000 )


      isym = 14     180 deg rotation - cart. axis [0,1,-1]       

 cryst.   s(14) = (    -1          0          0      )
                  (     0          0         -1      )
                  (     0         -1          0      )

 cart.    s(14) = ( -1.0000000  0.0000000  0.0000000 )
                  (  0.0000000  0.0000000 -1.0000000 )
                  (  0.0000000 -1.0000000  0.0000000 )


      isym = 15      90 deg rotation - cart. axis [-1,0,0]       

 cryst.   s(15) = (     1          0          0      )
                  (     0          0         -1      )
                  (     0          1          0      )

 cart.    s(15) = (  1.0000000  0.0000000  0.0000000 )
                  (  0.0000000  0.0000000  1.0000000 )
                  (  0.0000000 -1.0000000  0.0000000 )


      isym = 16      90 deg rotation - cart. axis [1,0,0]        

 cryst.   s(16) = (     1          0          0      )
                  (     0          0          1      )
                  (     0         -1          0      )

 cart.    s(16) = (  1.0000000  0.0000000  0.0000000 )
                  (  0.0000000  0.0000000 -1.0000000 )
                  (  0.0000000  1.0000000  0.0000000 )


      isym = 17     120 deg rotation - cart. axis [-1,-1,-1]     

 cryst.   s(17) = (     0          0          1      )
                  (     1          0          0      )
                  (     0          1          0      )

 cart.    s(17) = (  0.0000000  1.0000000  0.0000000 )
                  (  0.0000000  0.0000000  1.0000000 )
                  (  1.0000000  0.0000000  0.0000000 )


      isym = 18     120 deg rotation - cart. axis [-1,1,1]       

 cryst.   s(18) = (     0          0         -1      )
                  (    -1          0          0      )
                  (     0          1          0      )

 cart.    s(18) = (  0.0000000 -1.0000000  0.0000000 )
                  (  0.0000000  0.0000000  1.0000000 )
                  ( -1.0000000  0.0000000  0.0000000 )


      isym = 19     120 deg rotation - cart. axis [1,1,-1]       

 cryst.   s(19) = (     0          0         -1      )
                  (     1          0          0      )
                  (     0         -1          0      )

 cart.    s(19) = (  0.0000000  1.0000000  0.0000000 )
                  (  0.0000000  0.0000000 -1.0000000 )
                  ( -1.0000000  0.0000000  0.0000000 )


      isym = 20     120 deg rotation - cart. axis [1,-1,1]       

 cryst.   s(20) = (     0          0          1      )
                  (    -1          0          0      )
                  (     0         -1          0      )

 cart.    s(20) = (  0.0000000 -1.0000000  0.0000000 )
                  (  0.0000000  0.0000000 -1.0000000 )
                  (  1.0000000  0.0000000  0.0000000 )


      isym = 21     120 deg rotation - cart. axis [1,1,1]        

 cryst.   s(21) = (     0          1          0      )
                  (     0          0          1      )
                  (     1          0          0      )

 cart.    s(21) = (  0.0000000  0.0000000  1.0000000 )
                  (  1.0000000  0.0000000  0.0000000 )
                  (  0.0000000  1.0000000  0.0000000 )


      isym = 22     120 deg rotation - cart. axis [-1,1,-1]      

 cryst.   s(22) = (     0         -1          0      )
                  (     0          0         -1      )
                  (     1          0          0      )

 cart.    s(22) = (  0.0000000  0.0000000  1.0000000 )
                  ( -1.0000000  0.0000000  0.0000000 )
                  (  0.0000000 -1.0000000  0.0000000 )


      isym = 23     120 deg rotation - cart. axis [1,-1,-1]      

 cryst.   s(23) = (     0         -1          0      )
                  (     0          0          1      )
                  (    -1          0          0      )

 cart.    s(23) = (  0.0000000  0.0000000 -1.0000000 )
                  ( -1.0000000  0.0000000  0.0000000 )
                  (  0.0000000  1.0000000  0.0000000 )


      isym = 24     120 deg rotation - cart. axis [-1,-1,1]      

 cryst.   s(24) = (     0          1          0      )
                  (     0          0         -1      )
                  (    -1          0          0      )

 cart.    s(24) = (  0.0000000  0.0000000 -1.0000000 )
                  (  1.0000000  0.0000000  0.0000000 )
                  (  0.0000000 -1.0000000  0.0000000 )


      isym = 25     inversion                                    

 cryst.   s(25) = (    -1          0          0      )
                  (     0         -1          0      )
                  (     0          0         -1      )

 cart.    s(25) = ( -1.0000000  0.0000000  0.0000000 )
                  (  0.0000000 -1.0000000  0.0000000 )
                  (  0.0000000  0.0000000 -1.0000000 )


      isym = 26     inv. 180 deg rotation - cart. axis [0,0,1]   

 cryst.   s(26) = (     1          0          0      )
                  (     0          1          0      )
                  (     0          0         -1      )

 cart.    s(26) = (  1.0000000  0.0000000  0.0000000 )
                  (  0.0000000  1.0000000  0.0000000 )
                  (  0.0000000  0.0000000 -1.0000000 )


      isym = 27     inv. 180 deg rotation - cart. axis [0,1,0]   

 cryst.   s(27) = (     1          0          0      )
                  (     0         -1          0      )
                  (     0          0          1      )

 cart.    s(27) = (  1.0000000  0.0000000  0.0000000 )
                  (  0.0000000 -1.0000000  0.0000000 )
                  (  0.0000000  0.0000000  1.0000000 )


      isym = 28     inv. 180 deg rotation - cart. axis [1,0,0]   

 cryst.   s(28) = (    -1          0          0      )
                  (     0          1          0      )
                  (     0          0          1      )

 cart.    s(28) = ( -1.0000000  0.0000000  0.0000000 )
                  (  0.0000000  1.0000000  0.0000000 )
                  (  0.0000000  0.0000000  1.0000000 )


      isym = 29     inv. 180 deg rotation - cart. axis [1,1,0]   

 cryst.   s(29) = (     0         -1          0      )
                  (    -1          0          0      )
                  (     0          0          1      )

 cart.    s(29) = (  0.0000000 -1.0000000  0.0000000 )
                  ( -1.0000000  0.0000000  0.0000000 )
                  (  0.0000000  0.0000000  1.0000000 )


      isym = 30     inv. 180 deg rotation - cart. axis [1,-1,0]  

 cryst.   s(30) = (     0          1          0      )
                  (     1          0          0      )
                  (     0          0          1      )

 cart.    s(30) = (  0.0000000  1.0000000  0.0000000 )
                  (  1.0000000  0.0000000  0.0000000 )
                  (  0.0000000  0.0000000  1.0000000 )


      isym = 31     inv.  90 deg rotation - cart. axis [0,0,-1]  

 cryst.   s(31) = (     0          1          0      )
                  (    -1          0          0      )
                  (     0          0         -1      )

 cart.    s(31) = (  0.0000000 -1.0000000  0.0000000 )
                  (  1.0000000  0.0000000  0.0000000 )
                  (  0.0000000  0.0000000 -1.0000000 )


      isym = 32     inv.  90 deg rotation - cart. axis [0,0,1]   

 cryst.   s(32) = (     0         -1          0      )
                  (     1          0          0      )
                  (     0          0         -1      )

 cart.    s(32) = (  0.0000000  1.0000000  0.0000000 )
                  ( -1.0000000  0.0000000  0.0000000 )
                  (  0.0000000  0.0000000 -1.0000000 )


      isym = 33     inv. 180 deg rotation - cart. axis [1,0,1]   

 cryst.   s(33) = (     0          0         -1      )
                  (     0          1          0      )
                  (    -1          0          0      )

 cart.    s(33) = (  0.0000000  0.0000000 -1.0000000 )
                  (  0.0000000  1.0000000  0.0000000 )
                  ( -1.0000000  0.0000000  0.0000000 )


      isym = 34     inv. 180 deg rotation - cart. axis [-1,0,1]  

 cryst.   s(34) = (     0          0          1      )
                  (     0          1          0      )
                  (     1          0          0      )

 cart.    s(34) = (  0.0000000  0.0000000  1.0000000 )
                  (  0.0000000  1.0000000  0.0000000 )
                  (  1.0000000  0.0000000  0.0000000 )


      isym = 35     inv.  90 deg rotation - cart. axis [0,1,0]   

 cryst.   s(35) = (     0          0          1      )
                  (     0         -1          0      )
                  (    -1          0          0      )

 cart.    s(35) = (  0.0000000  0.0000000 -1.0000000 )
                  (  0.0000000 -1.0000000  0.0000000 )
                  (  1.0000000  0.0000000  0.0000000 )


      isym = 36     inv.  90 deg rotation - cart. axis [0,-1,0]  

 cryst.   s(36) = (     0          0         -1      )
                  (     0         -1          0      )
                  (     1          0          0      )

 cart.    s(36) = (  0.0000000  0.0000000  1.0000000 )
                  (  0.0000000 -1.0000000  0.0000000 )
                  ( -1.0000000  0.0000000  0.0000000 )


      isym = 37     inv. 180 deg rotation - cart. axis [0,1,1]   

 cryst.   s(37) = (     1          0          0      )
                  (     0          0         -1      )
                  (     0         -1          0      )

 cart.    s(37) = (  1.0000000  0.0000000  0.0000000 )
                  (  0.0000000  0.0000000 -1.0000000 )
                  (  0.0000000 -1.0000000  0.0000000 )


      isym = 38     inv. 180 deg rotation - cart. axis [0,1,-1]  

 cryst.   s(38) = (     1          0          0      )
                  (     0          0          1      )
                  (     0          1          0      )

 cart.    s(38) = (  1.0000000  0.0000000  0.0000000 )
                  (  0.0000000  0.0000000  1.0000000 )
                  (  0.0000000  1.0000000  0.0000000 )


      isym = 39     inv.  90 deg rotation - cart. axis [-1,0,0]  

 cryst.   s(39) = (    -1          0          0      )
                  (     0          0          1      )
                  (     0         -1          0      )

 cart.    s(39) = ( -1.0000000  0.0000000  0.0000000 )
                  (  0.0000000  0.0000000 -1.0000000 )
                  (  0.0000000  1.0000000  0.0000000 )


      isym = 40     inv.  90 deg rotation - cart. axis [1,0,0]   

 cryst.   s(40) = (    -1          0          0      )
                  (     0          0         -1      )
                  (     0          1          0      )

 cart.    s(40) = ( -1.0000000  0.0000000  0.0000000 )
                  (  0.0000000  0.0000000  1.0000000 )
                  (  0.0000000 -1.0000000  0.0000000 )


      isym = 41     inv. 120 deg rotation - cart. axis [-1,-1,-1]

 cryst.   s(41) = (     0          0         -1      )
                  (    -1          0          0      )
                  (     0         -1          0      )

 cart.    s(41) = (  0.0000000 -1.0000000  0.0000000 )
                  (  0.0000000  0.0000000 -1.0000000 )
                  ( -1.0000000  0.0000000  0.0000000 )


      isym = 42     inv. 120 deg rotation - cart. axis [-1,1,1]  

 cryst.   s(42) = (     0          0          1      )
                  (     1          0          0      )
                  (     0         -1          0      )

 cart.    s(42) = (  0.0000000  1.0000000  0.0000000 )
                  (  0.0000000  0.0000000 -1.0000000 )
                  (  1.0000000  0.0000000  0.0000000 )


      isym = 43     inv. 120 deg rotation - cart. axis [1,1,-1]  

 cryst.   s(43) = (     0          0          1      )
                  (    -1          0          0      )
                  (     0          1          0      )

 cart.    s(43) = (  0.0000000 -1.0000000  0.0000000 )
                  (  0.0000000  0.0000000  1.0000000 )
                  (  1.0000000  0.0000000  0.0000000 )


      isym = 44     inv. 120 deg rotation - cart. axis [1,-1,1]  

 cryst.   s(44) = (     0          0         -1      )
                  (     1          0          0      )
                  (     0          1          0      )

 cart.    s(44) = (  0.0000000  1.0000000  0.0000000 )
                  (  0.0000000  0.0000000  1.0000000 )
                  ( -1.0000000  0.0000000  0.0000000 )


      isym = 45     inv. 120 deg rotation - cart. axis [1,1,1]   

 cryst.   s(45) = (     0         -1          0      )
                  (     0          0         -1      )
                  (    -1          0          0      )

 cart.    s(45) = (  0.0000000  0.0000000 -1.0000000 )
                  ( -1.0000000  0.0000000  0.0000000 )
                  (  0.0000000 -1.0000000  0.0000000 )


      isym = 46     inv. 120 deg rotation - cart. axis [-1,1,-1] 

 cryst.   s(46) = (     0          1          0      )
                  (     0          0          1      )
                  (    -1          0          0      )

 cart.    s(46) = (  0.0000000  0.0000000 -1.0000000 )
                  (  1.0000000  0.0000000  0.0000000 )
                  (  0.0000000  1.0000000  0.0000000 )


      isym = 47     inv. 120 deg rotation - cart. axis [1,-1,-1] 

 cryst.   s(47) = (     0          1          0      )
                  (     0          0         -1      )
                  (     1          0          0      )

 cart.    s(47) = (  0.0000000  0.0000000  1.0000000 )
                  (  1.0000000  0.0000000  0.0000000 )
                  (  0.0000000 -1.0000000  0.0000000 )


      isym = 48     inv. 120 deg rotation - cart. axis [-1,-1,1] 

 cryst.   s(48) = (     0         -1          0      )
                  (     0          0          1      )
                  (     1          0          0      )

 cart.    s(48) = (  0.0000000  0.0000000  1.0000000 )
                  ( -1.0000000  0.0000000  0.0000000 )
                  (  0.0000000  1.0000000  0.0000000 )


   Cartesian axes

     site n.     atom                  positions (alat units)
         1           La  tau(   1) = (   0.5000000   0.5000000   0.0000000  )
         2           La  tau(   2) = (   0.5000000   0.0000000   0.5000000  )
         3           La  tau(   3) = (   0.0000000   0.5000000   0.5000000  )
         4           Al  tau(   4) = (   0.0000000   0.0000000   0.0000000  )
         5           N   tau(   5) = (   0.5000000   0.5000000   0.5000000  )

   Crystallographic axes

     site n.     atom                  positions (cryst. coord.)
         1           La  tau(   1) = (  0.5000000  0.5000000  0.0000000  )
         2           La  tau(   2) = (  0.5000000  0.0000000  0.5000000  )
         3           La  tau(   3) = (  0.0000000  0.5000000  0.5000000  )
         4           Al  tau(   4) = (  0.0000000  0.0000000  0.0000000  )
         5           N   tau(   5) = (  0.5000000  0.5000000  0.5000000  )

     number of k points=     1  Methfessel-Paxton smearing, width (Ry)=  0.0010
                       cart. coord. in units 2pi/alat
        k(    1) = (   0.0000000   0.0000000   0.0000000), wk =   2.0000000

                       cryst. coord.
        k(    1) = (   0.0000000   0.0000000   0.0000000), wk =   2.0000000

     Dense  grid:    28058 G-vectors     FFT dimensions: (  48,  48,  48)

     Smooth grid:     9967 G-vectors     FFT dimensions: (  36,  36,  36)

     Dynamical RAM for                 wfc:       0.47 MB

     Dynamical RAM for     wfc (w. buffer):       0.47 MB

     Dynamical RAM for           str. fact:       1.28 MB

     Dynamical RAM for           local pot:       0.00 MB

     Dynamical RAM for          nlocal pot:       2.31 MB

     Dynamical RAM for                qrad:       8.96 MB

     Dynamical RAM for          rho,v,vnew:       3.82 MB

     Dynamical RAM for               rhoin:       1.27 MB

     Dynamical RAM for            rho*nmix:       6.85 MB

     Dynamical RAM for           G-vectors:       1.68 MB

     Dynamical RAM for          h,s,v(r/c):       0.06 MB

     Dynamical RAM for          <psi|beta>:       0.02 MB

     Dynamical RAM for                 psi:       0.95 MB

     Dynamical RAM for                hpsi:       0.95 MB

     Dynamical RAM for                spsi:       0.95 MB

     Dynamical RAM for      wfcinit/wfcrot:       4.19 MB

     Dynamical RAM for           addusdens:     238.90 MB

     Dynamical RAM for          addusforce:     240.86 MB

     Dynamical RAM for         addusstress:     249.17 MB

     Estimated static dynamical RAM per process >      25.73 MB

     Estimated max dynamical RAM per process >     281.75 MB

     Initial potential from superposition of free atoms

     starting charge      40.9721, renormalised to      41.0000
     Starting wfcs are  104 randomized atomic wfcs
     Checking if some PAW data can be deallocated... 

     total cpu time spent up to now is        7.6 secs

     Self-consistent Calculation

     iteration #  1     ecut=    30.00 Ry     beta= 0.70
     Davidson diagonalization with overlap

---- Real-time Memory Report at c_bands before calling an iterative solver
           581 MiB given to the printing process from OS
             0 MiB allocation reported by mallinfo(arena+hblkhd)
        137619 MiB available memory on the node where the printing process lives
------------------
     ethr =  1.00E-02,  avg # of iterations =  1.0

     total cpu time spent up to now is        8.9 secs

     total energy              =   -1431.90750537 Ry
     estimated scf accuracy    <       3.55503853 Ry

     iteration #  2     ecut=    30.00 Ry     beta= 0.70
     Davidson diagonalization with overlap

---- Real-time Memory Report at c_bands before calling an iterative solver
           739 MiB given to the printing process from OS
             0 MiB allocation reported by mallinfo(arena+hblkhd)
        137602 MiB available memory on the node where the printing process lives
------------------
     ethr =  8.67E-03,  avg # of iterations =  4.0

     total cpu time spent up to now is       10.3 secs

     total energy              =   -1433.08313195 Ry
     estimated scf accuracy    <      23.30485125 Ry

     iteration #  3     ecut=    30.00 Ry     beta= 0.70
     Davidson diagonalization with overlap

---- Real-time Memory Report at c_bands before calling an iterative solver
           744 MiB given to the printing process from OS
             0 MiB allocation reported by mallinfo(arena+hblkhd)
        137599 MiB available memory on the node where the printing process lives
------------------
     ethr =  8.67E-03,  avg # of iterations =  4.0

     total cpu time spent up to now is       11.6 secs

     total energy              =   -1433.65091103 Ry
     estimated scf accuracy    <       7.93775423 Ry

     iteration #  4     ecut=    30.00 Ry     beta= 0.70
     Davidson diagonalization with overlap

---- Real-time Memory Report at c_bands before calling an iterative solver
           745 MiB given to the printing process from OS
             0 MiB allocation reported by mallinfo(arena+hblkhd)
        137598 MiB available memory on the node where the printing process lives
------------------
     ethr =  8.67E-03,  avg # of iterations =  2.0

     total cpu time spent up to now is       13.0 secs

     total energy              =   -1433.69894429 Ry
     estimated scf accuracy    <       7.45402737 Ry

     iteration #  5     ecut=    30.00 Ry     beta= 0.70
     Davidson diagonalization with overlap

---- Real-time Memory Report at c_bands before calling an iterative solver
           746 MiB given to the printing process from OS
             0 MiB allocation reported by mallinfo(arena+hblkhd)
        137598 MiB available memory on the node where the printing process lives
------------------
     ethr =  8.67E-03,  avg # of iterations =  1.0

     total cpu time spent up to now is       15.2 secs

     total energy              =   -1433.76476799 Ry
     estimated scf accuracy    <       7.34156220 Ry

     iteration #  6     ecut=    30.00 Ry     beta= 0.70
     Davidson diagonalization with overlap

---- Real-time Memory Report at c_bands before calling an iterative solver
           746 MiB given to the printing process from OS
             0 MiB allocation reported by mallinfo(arena+hblkhd)
        137617 MiB available memory on the node where the printing process lives
------------------
     ethr =  8.67E-03,  avg # of iterations =  1.0

     total cpu time spent up to now is       17.4 secs

     total energy              =   -1433.74695723 Ry
     estimated scf accuracy    <       7.22054151 Ry

     iteration #  7     ecut=    30.00 Ry     beta= 0.70
     Davidson diagonalization with overlap

---- Real-time Memory Report at c_bands before calling an iterative solver
           746 MiB given to the printing process from OS
             0 MiB allocation reported by mallinfo(arena+hblkhd)
        137619 MiB available memory on the node where the printing process lives
------------------
     ethr =  8.67E-03,  avg # of iterations =  1.0

     total cpu time spent up to now is       19.6 secs

     total energy              =   -1433.66379536 Ry
     estimated scf accuracy    <       7.05078593 Ry

     iteration #  8     ecut=    30.00 Ry     beta= 0.70
     Davidson diagonalization with overlap

---- Real-time Memory Report at c_bands before calling an iterative solver
           746 MiB given to the printing process from OS
             0 MiB allocation reported by mallinfo(arena+hblkhd)
        137619 MiB available memory on the node where the printing process lives
------------------
     ethr =  8.67E-03,  avg # of iterations =  4.0

     total cpu time spent up to now is       21.0 secs

     total energy              =   -1433.86130791 Ry
     estimated scf accuracy    <       2.98724026 Ry

     iteration #  9     ecut=    30.00 Ry     beta= 0.70
     Davidson diagonalization with overlap

---- Real-time Memory Report at c_bands before calling an iterative solver
           746 MiB given to the printing process from OS
             0 MiB allocation reported by mallinfo(arena+hblkhd)
        137620 MiB available memory on the node where the printing process lives
------------------
     ethr =  7.29E-03,  avg # of iterations =  2.0

     total cpu time spent up to now is       23.3 secs

     total energy              =   -1433.90564114 Ry
     estimated scf accuracy    <       2.79636275 Ry

     iteration # 10     ecut=    30.00 Ry     beta= 0.70
     Davidson diagonalization with overlap

---- Real-time Memory Report at c_bands before calling an iterative solver
           746 MiB given to the printing process from OS
             0 MiB allocation reported by mallinfo(arena+hblkhd)
        137623 MiB available memory on the node where the printing process lives
------------------
     ethr =  6.82E-03,  avg # of iterations =  5.0

     negative rho (up, down):  5.841E-05 0.000E+00

     total cpu time spent up to now is       25.9 secs

     total energy              =   -1433.92199312 Ry
     estimated scf accuracy    <       0.76642985 Ry

     iteration # 11     ecut=    30.00 Ry     beta= 0.70
     Davidson diagonalization with overlap

---- Real-time Memory Report at c_bands before calling an iterative solver
           746 MiB given to the printing process from OS
             0 MiB allocation reported by mallinfo(arena+hblkhd)
        137626 MiB available memory on the node where the printing process lives
------------------
     ethr =  1.87E-03,  avg # of iterations =  2.0

     negative rho (up, down):  3.564E-07 0.000E+00

     total cpu time spent up to now is       28.3 secs

     total energy              =   -1433.75572470 Ry
     estimated scf accuracy    <      10.60085363 Ry

     iteration # 12     ecut=    30.00 Ry     beta= 0.70
     Davidson diagonalization with overlap

---- Real-time Memory Report at c_bands before calling an iterative solver
           746 MiB given to the printing process from OS
             0 MiB allocation reported by mallinfo(arena+hblkhd)
        137611 MiB available memory on the node where the printing process lives
------------------
     ethr =  1.87E-03,  avg # of iterations =  2.0

     total cpu time spent up to now is       30.5 secs

     total energy              =   -1433.95242730 Ry
     estimated scf accuracy    <       0.60908097 Ry

     iteration # 13     ecut=    30.00 Ry     beta= 0.70
     Davidson diagonalization with overlap

---- Real-time Memory Report at c_bands before calling an iterative solver
           746 MiB given to the printing process from OS
             0 MiB allocation reported by mallinfo(arena+hblkhd)
        137612 MiB available memory on the node where the printing process lives
------------------
     ethr =  1.49E-03,  avg # of iterations =  1.0

     total cpu time spent up to now is       32.7 secs

     total energy              =   -1433.87735015 Ry
     estimated scf accuracy    <       5.08921609 Ry

     iteration # 14     ecut=    30.00 Ry     beta= 0.70
     Davidson diagonalization with overlap

---- Real-time Memory Report at c_bands before calling an iterative solver
           746 MiB given to the printing process from OS
             0 MiB allocation reported by mallinfo(arena+hblkhd)
        137613 MiB available memory on the node where the printing process lives
------------------
     ethr =  1.49E-03,  avg # of iterations =  1.0

     total cpu time spent up to now is       35.1 secs

     total energy              =   -1433.95121410 Ry
     estimated scf accuracy    <       0.44503027 Ry

     iteration # 15     ecut=    30.00 Ry     beta= 0.70
     Davidson diagonalization with overlap

---- Real-time Memory Report at c_bands before calling an iterative solver
           746 MiB given to the printing process from OS
             0 MiB allocation reported by mallinfo(arena+hblkhd)
        137614 MiB available memory on the node where the printing process lives
------------------
     ethr =  1.09E-03,  avg # of iterations =  1.0

     total cpu time spent up to now is       37.5 secs

     total energy              =   -1433.97193170 Ry
     estimated scf accuracy    <       2.96697742 Ry

     iteration # 16     ecut=    30.00 Ry     beta= 0.70
     Davidson diagonalization with overlap

---- Real-time Memory Report at c_bands before calling an iterative solver
           746 MiB given to the printing process from OS
             0 MiB allocation reported by mallinfo(arena+hblkhd)
        137614 MiB available memory on the node where the printing process lives
------------------
     ethr =  1.09E-03,  avg # of iterations =  1.0

     total cpu time spent up to now is       39.7 secs

     total energy              =   -1433.90819449 Ry
     estimated scf accuracy    <       1.97101143 Ry

     iteration # 17     ecut=    30.00 Ry     beta= 0.70
     Davidson diagonalization with overlap

---- Real-time Memory Report at c_bands before calling an iterative solver
           746 MiB given to the printing process from OS
             0 MiB allocation reported by mallinfo(arena+hblkhd)
        137630 MiB available memory on the node where the printing process lives
------------------
     ethr =  1.09E-03,  avg # of iterations =  1.0

     total cpu time spent up to now is       42.0 secs

     total energy              =   -1433.87996256 Ry
     estimated scf accuracy    <       0.93306047 Ry

     iteration # 18     ecut=    30.00 Ry     beta= 0.70
     Davidson diagonalization with overlap

---- Real-time Memory Report at c_bands before calling an iterative solver
           746 MiB given to the printing process from OS
             0 MiB allocation reported by mallinfo(arena+hblkhd)
        137630 MiB available memory on the node where the printing process lives
------------------
     ethr =  1.09E-03,  avg # of iterations =  2.0

     total cpu time spent up to now is       44.3 secs

     total energy              =   -1433.86327782 Ry
     estimated scf accuracy    <       1.47865848 Ry

     iteration # 19     ecut=    30.00 Ry     beta= 0.70
     Davidson diagonalization with overlap

---- Real-time Memory Report at c_bands before calling an iterative solver
           746 MiB given to the printing process from OS
             0 MiB allocation reported by mallinfo(arena+hblkhd)
        137632 MiB available memory on the node where the printing process lives
------------------
     ethr =  1.09E-03,  avg # of iterations =  1.0

     total cpu time spent up to now is       45.6 secs

     total energy              =   -1433.91749475 Ry
     estimated scf accuracy    <       0.18707628 Ry

     iteration # 20     ecut=    30.00 Ry     beta= 0.70
     Davidson diagonalization with overlap

---- Real-time Memory Report at c_bands before calling an iterative solver
           746 MiB given to the printing process from OS
             0 MiB allocation reported by mallinfo(arena+hblkhd)
        137633 MiB available memory on the node where the printing process lives
------------------
     ethr =  4.56E-04,  avg # of iterations =  2.0

     total cpu time spent up to now is       46.9 secs

     total energy              =   -1433.90905268 Ry
     estimated scf accuracy    <       0.14774932 Ry

     iteration # 21     ecut=    30.00 Ry     beta= 0.70
     Davidson diagonalization with overlap

---- Real-time Memory Report at c_bands before calling an iterative solver
           746 MiB given to the printing process from OS
             0 MiB allocation reported by mallinfo(arena+hblkhd)
        137633 MiB available memory on the node where the printing process lives
------------------
     ethr =  3.60E-04,  avg # of iterations = 11.0

     total cpu time spent up to now is       48.2 secs

     total energy              =   -1434.18113290 Ry
     estimated scf accuracy    <       0.93128657 Ry

     iteration # 22     ecut=    30.00 Ry     beta= 0.70
     Davidson diagonalization with overlap

---- Real-time Memory Report at c_bands before calling an iterative solver
           746 MiB given to the printing process from OS
             0 MiB allocation reported by mallinfo(arena+hblkhd)
        137634 MiB available memory on the node where the printing process lives
------------------
     ethr =  3.60E-04,  avg # of iterations =  1.0

     total cpu time spent up to now is       49.5 secs

     total energy              =   -1434.16504975 Ry
     estimated scf accuracy    <       0.83448214 Ry

     iteration # 23     ecut=    30.00 Ry     beta= 0.70
     Davidson diagonalization with overlap

---- Real-time Memory Report at c_bands before calling an iterative solver
           746 MiB given to the printing process from OS
             0 MiB allocation reported by mallinfo(arena+hblkhd)
        137634 MiB available memory on the node where the printing process lives
------------------
     ethr =  3.60E-04,  avg # of iterations =  1.0

     total cpu time spent up to now is       50.9 secs

     total energy              =   -1434.16211471 Ry
     estimated scf accuracy    <       0.77093701 Ry

     iteration # 24     ecut=    30.00 Ry     beta= 0.70
     Davidson diagonalization with overlap

---- Real-time Memory Report at c_bands before calling an iterative solver
           746 MiB given to the printing process from OS
             0 MiB allocation reported by mallinfo(arena+hblkhd)
        137634 MiB available memory on the node where the printing process lives
------------------
     ethr =  3.60E-04,  avg # of iterations =  1.0

     total cpu time spent up to now is       53.5 secs

     total energy              =   -1434.06405659 Ry
     estimated scf accuracy    <       0.74780455 Ry

     iteration # 25     ecut=    30.00 Ry     beta= 0.70
     Davidson diagonalization with overlap

---- Real-time Memory Report at c_bands before calling an iterative solver
           746 MiB given to the printing process from OS
             0 MiB allocation reported by mallinfo(arena+hblkhd)
        137615 MiB available memory on the node where the printing process lives
------------------
     ethr =  3.60E-04,  avg # of iterations =  2.0

     total cpu time spent up to now is       55.7 secs

     total energy              =   -1434.04975608 Ry
     estimated scf accuracy    <       0.47654862 Ry

     iteration # 26     ecut=    30.00 Ry     beta= 0.70
     Davidson diagonalization with overlap

---- Real-time Memory Report at c_bands before calling an iterative solver
           746 MiB given to the printing process from OS
             0 MiB allocation reported by mallinfo(arena+hblkhd)
        137615 MiB available memory on the node where the printing process lives
------------------
     ethr =  3.60E-04,  avg # of iterations =  2.0

     total cpu time spent up to now is       58.3 secs

     total energy              =   -1434.04386974 Ry
     estimated scf accuracy    <       0.36709831 Ry

     iteration # 27     ecut=    30.00 Ry     beta= 0.70
     Davidson diagonalization with overlap

---- Real-time Memory Report at c_bands before calling an iterative solver
           746 MiB given to the printing process from OS
             0 MiB allocation reported by mallinfo(arena+hblkhd)
        137613 MiB available memory on the node where the printing process lives
------------------
     ethr =  3.60E-04,  avg # of iterations =  2.0

     total cpu time spent up to now is       59.6 secs

     total energy              =   -1434.04530534 Ry
     estimated scf accuracy    <       0.76275729 Ry

     iteration # 28     ecut=    30.00 Ry     beta= 0.70
     Davidson diagonalization with overlap

---- Real-time Memory Report at c_bands before calling an iterative solver
           746 MiB given to the printing process from OS
             0 MiB allocation reported by mallinfo(arena+hblkhd)
        137614 MiB available memory on the node where the printing process lives
------------------
     ethr =  3.60E-04,  avg # of iterations =  2.0

     total cpu time spent up to now is       60.8 secs

     total energy              =   -1434.01662615 Ry
     estimated scf accuracy    <       1.28412882 Ry

     iteration # 29     ecut=    30.00 Ry     beta= 0.70
     Davidson diagonalization with overlap

---- Real-time Memory Report at c_bands before calling an iterative solver
           746 MiB given to the printing process from OS
             0 MiB allocation reported by mallinfo(arena+hblkhd)
        137614 MiB available memory on the node where the printing process lives
------------------
     ethr =  3.60E-04,  avg # of iterations =  1.0

     total cpu time spent up to now is       62.1 secs

     total energy              =   -1434.07984423 Ry
     estimated scf accuracy    <       0.29387901 Ry

     iteration # 30     ecut=    30.00 Ry     beta= 0.70
     Davidson diagonalization with overlap

---- Real-time Memory Report at c_bands before calling an iterative solver
           746 MiB given to the printing process from OS
             0 MiB allocation reported by mallinfo(arena+hblkhd)
        137614 MiB available memory on the node where the printing process lives
------------------
     ethr =  3.60E-04,  avg # of iterations =  4.0

     total cpu time spent up to now is       64.2 secs

     total energy              =   -1434.07222199 Ry
     estimated scf accuracy    <       9.01398454 Ry

     iteration # 31     ecut=    30.00 Ry     beta= 0.70
     Davidson diagonalization with overlap

---- Real-time Memory Report at c_bands before calling an iterative solver
           746 MiB given to the printing process from OS
             0 MiB allocation reported by mallinfo(arena+hblkhd)
        137614 MiB available memory on the node where the printing process lives
------------------
     ethr =  3.60E-04,  avg # of iterations =  5.0

     total cpu time spent up to now is       66.6 secs

     total energy              =   -1434.01288285 Ry
     estimated scf accuracy    <       2.78744918 Ry

     iteration # 32     ecut=    30.00 Ry     beta= 0.70
     Davidson diagonalization with overlap

---- Real-time Memory Report at c_bands before calling an iterative solver
           746 MiB given to the printing process from OS
             0 MiB allocation reported by mallinfo(arena+hblkhd)
        137635 MiB available memory on the node where the printing process lives
------------------
     ethr =  3.60E-04,  avg # of iterations =  2.0

     total cpu time spent up to now is       69.4 secs

     total energy              =   -1434.05044154 Ry
     estimated scf accuracy    <       0.59735841 Ry

     iteration # 33     ecut=    30.00 Ry     beta= 0.70
     Davidson diagonalization with overlap

---- Real-time Memory Report at c_bands before calling an iterative solver
           746 MiB given to the printing process from OS
             0 MiB allocation reported by mallinfo(arena+hblkhd)
        137623 MiB available memory on the node where the printing process lives
------------------
     ethr =  3.60E-04,  avg # of iterations =  1.0

     total cpu time spent up to now is       71.6 secs

     total energy              =   -1434.06613645 Ry
     estimated scf accuracy    <       0.61803904 Ry

     iteration # 34     ecut=    30.00 Ry     beta= 0.70
     Davidson diagonalization with overlap

---- Real-time Memory Report at c_bands before calling an iterative solver
           746 MiB given to the printing process from OS
             0 MiB allocation reported by mallinfo(arena+hblkhd)
        137626 MiB available memory on the node where the printing process lives
------------------
     ethr =  3.60E-04,  avg # of iterations =  1.0

     total cpu time spent up to now is       72.8 secs

     total energy              =   -1434.06780681 Ry
     estimated scf accuracy    <       1.36596089 Ry

     iteration # 35     ecut=    30.00 Ry     beta= 0.70
     Davidson diagonalization with overlap

---- Real-time Memory Report at c_bands before calling an iterative solver
           746 MiB given to the printing process from OS
             0 MiB allocation reported by mallinfo(arena+hblkhd)
        137627 MiB available memory on the node where the printing process lives
------------------
     ethr =  3.60E-04,  avg # of iterations =  1.0

     total cpu time spent up to now is       74.1 secs

     total energy              =   -1433.99964442 Ry
     estimated scf accuracy    <       0.63467141 Ry

     iteration # 36     ecut=    30.00 Ry     beta= 0.70
     Davidson diagonalization with overlap

---- Real-time Memory Report at c_bands before calling an iterative solver
           746 MiB given to the printing process from OS
             0 MiB allocation reported by mallinfo(arena+hblkhd)
        137628 MiB available memory on the node where the printing process lives
------------------
     ethr =  3.60E-04,  avg # of iterations =  4.0

     total cpu time spent up to now is       75.4 secs

     total energy              =   -1434.04204755 Ry
     estimated scf accuracy    <       0.49702402 Ry

     iteration # 37     ecut=    30.00 Ry     beta= 0.70
     Davidson diagonalization with overlap

---- Real-time Memory Report at c_bands before calling an iterative solver
           746 MiB given to the printing process from OS
             0 MiB allocation reported by mallinfo(arena+hblkhd)
        137629 MiB available memory on the node where the printing process lives
------------------
     ethr =  3.60E-04,  avg # of iterations =  2.0

     total cpu time spent up to now is       76.7 secs

     total energy              =   -1434.04121240 Ry
     estimated scf accuracy    <       0.29122713 Ry

     iteration # 38     ecut=    30.00 Ry     beta= 0.70
     Davidson diagonalization with overlap

---- Real-time Memory Report at c_bands before calling an iterative solver
           746 MiB given to the printing process from OS
             0 MiB allocation reported by mallinfo(arena+hblkhd)
        137629 MiB available memory on the node where the printing process lives
------------------
     ethr =  3.60E-04,  avg # of iterations =  2.0

     total cpu time spent up to now is       78.0 secs

     total energy              =   -1434.03265908 Ry
     estimated scf accuracy    <       0.28833739 Ry

     iteration # 39     ecut=    30.00 Ry     beta= 0.70
     Davidson diagonalization with overlap

---- Real-time Memory Report at c_bands before calling an iterative solver
           746 MiB given to the printing process from OS
             0 MiB allocation reported by mallinfo(arena+hblkhd)
        137631 MiB available memory on the node where the printing process lives
------------------
     ethr =  3.60E-04,  avg # of iterations =  2.0

     total cpu time spent up to now is       80.4 secs

     total energy              =   -1434.02028811 Ry
     estimated scf accuracy    <       0.22326221 Ry

     iteration # 40     ecut=    30.00 Ry     beta= 0.70
     Davidson diagonalization with overlap

---- Real-time Memory Report at c_bands before calling an iterative solver
           746 MiB given to the printing process from OS
             0 MiB allocation reported by mallinfo(arena+hblkhd)
        137615 MiB available memory on the node where the printing process lives
------------------
     ethr =  3.60E-04,  avg # of iterations =  2.0

     total cpu time spent up to now is       82.7 secs

     total energy              =   -1433.87688435 Ry
     estimated scf accuracy    <       6.01700859 Ry

     iteration # 41     ecut=    30.00 Ry     beta= 0.70
     Davidson diagonalization with overlap

---- Real-time Memory Report at c_bands before calling an iterative solver
           746 MiB given to the printing process from OS
             0 MiB allocation reported by mallinfo(arena+hblkhd)
        137615 MiB available memory on the node where the printing process lives
------------------
     ethr =  3.60E-04,  avg # of iterations =  1.0

     total cpu time spent up to now is       85.2 secs

     total energy              =   -1434.04338542 Ry
     estimated scf accuracy    <       0.22029563 Ry

     iteration # 42     ecut=    30.00 Ry     beta= 0.70
     Davidson diagonalization with overlap

---- Real-time Memory Report at c_bands before calling an iterative solver
           746 MiB given to the printing process from OS
             0 MiB allocation reported by mallinfo(arena+hblkhd)
        137617 MiB available memory on the node where the printing process lives
------------------
     ethr =  3.60E-04,  avg # of iterations =  1.0

     total cpu time spent up to now is       87.5 secs

     total energy              =   -1434.04239271 Ry
     estimated scf accuracy    <       0.11046217 Ry

     iteration # 43     ecut=    30.00 Ry     beta= 0.70
     Davidson diagonalization with overlap

---- Real-time Memory Report at c_bands before calling an iterative solver
           746 MiB given to the printing process from OS
             0 MiB allocation reported by mallinfo(arena+hblkhd)
        137618 MiB available memory on the node where the printing process lives
------------------
     ethr =  2.69E-04,  avg # of iterations =  1.0

     total cpu time spent up to now is       89.8 secs

     total energy              =   -1434.04340837 Ry
     estimated scf accuracy    <       0.20295830 Ry

     iteration # 44     ecut=    30.00 Ry     beta= 0.70
     Davidson diagonalization with overlap

---- Real-time Memory Report at c_bands before calling an iterative solver
           746 MiB given to the printing process from OS
             0 MiB allocation reported by mallinfo(arena+hblkhd)
        137619 MiB available memory on the node where the printing process lives
------------------
     ethr =  2.69E-04,  avg # of iterations =  1.0

     total cpu time spent up to now is       92.1 secs

     total energy              =   -1434.03991026 Ry
     estimated scf accuracy    <       0.19459511 Ry

     iteration # 45     ecut=    30.00 Ry     beta= 0.70
     Davidson diagonalization with overlap

---- Real-time Memory Report at c_bands before calling an iterative solver
           746 MiB given to the printing process from OS
             0 MiB allocation reported by mallinfo(arena+hblkhd)
        137635 MiB available memory on the node where the printing process lives
------------------
     ethr =  2.69E-04,  avg # of iterations =  1.0

     total cpu time spent up to now is       94.3 secs

     total energy              =   -1434.02220004 Ry
     estimated scf accuracy    <       1.22013783 Ry

     iteration # 46     ecut=    30.00 Ry     beta= 0.70
     Davidson diagonalization with overlap

---- Real-time Memory Report at c_bands before calling an iterative solver
           746 MiB given to the printing process from OS
             0 MiB allocation reported by mallinfo(arena+hblkhd)
        137635 MiB available memory on the node where the printing process lives
------------------
     ethr =  2.69E-04,  avg # of iterations =  1.0

     total cpu time spent up to now is       96.7 secs

     total energy              =   -1434.04262730 Ry
     estimated scf accuracy    <       0.16703930 Ry

     iteration # 47     ecut=    30.00 Ry     beta= 0.70
     Davidson diagonalization with overlap

---- Real-time Memory Report at c_bands before calling an iterative solver
           746 MiB given to the printing process from OS
             0 MiB allocation reported by mallinfo(arena+hblkhd)
        137636 MiB available memory on the node where the printing process lives
------------------
     ethr =  2.69E-04,  avg # of iterations =  1.0

     total cpu time spent up to now is       99.0 secs

     total energy              =   -1434.04190905 Ry
     estimated scf accuracy    <       0.16861683 Ry

     iteration # 48     ecut=    30.00 Ry     beta= 0.70
     Davidson diagonalization with overlap

---- Real-time Memory Report at c_bands before calling an iterative solver
           746 MiB given to the printing process from OS
             0 MiB allocation reported by mallinfo(arena+hblkhd)
        137634 MiB available memory on the node where the printing process lives
------------------
     ethr =  2.69E-04,  avg # of iterations =  1.0

     total cpu time spent up to now is      100.3 secs

     total energy              =   -1434.04030169 Ry
     estimated scf accuracy    <       0.17278595 Ry

     iteration # 49     ecut=    30.00 Ry     beta= 0.70
     Davidson diagonalization with overlap

---- Real-time Memory Report at c_bands before calling an iterative solver
           746 MiB given to the printing process from OS
             0 MiB allocation reported by mallinfo(arena+hblkhd)
        137634 MiB available memory on the node where the printing process lives
------------------
     ethr =  2.69E-04,  avg # of iterations =  1.0

     total cpu time spent up to now is      101.5 secs

     total energy              =   -1434.01562313 Ry
     estimated scf accuracy    <       0.13426119 Ry

     iteration # 50     ecut=    30.00 Ry     beta= 0.70
     Davidson diagonalization with overlap

---- Real-time Memory Report at c_bands before calling an iterative solver
           746 MiB given to the printing process from OS
             0 MiB allocation reported by mallinfo(arena+hblkhd)
        137634 MiB available memory on the node where the printing process lives
------------------
     ethr =  2.69E-04,  avg # of iterations =  2.0

     total cpu time spent up to now is      102.8 secs

     total energy              =   -1433.93417956 Ry
     estimated scf accuracy    <      11.18747247 Ry

     iteration # 51     ecut=    30.00 Ry     beta= 0.70
     Davidson diagonalization with overlap

---- Real-time Memory Report at c_bands before calling an iterative solver
           746 MiB given to the printing process from OS
             0 MiB allocation reported by mallinfo(arena+hblkhd)
        137635 MiB available memory on the node where the printing process lives
------------------
     ethr =  2.69E-04,  avg # of iterations =  2.0

     total cpu time spent up to now is      104.1 secs

     total energy              =   -1434.03616806 Ry
     estimated scf accuracy    <       0.15328135 Ry

     iteration # 52     ecut=    30.00 Ry     beta= 0.70
     Davidson diagonalization with overlap

---- Real-time Memory Report at c_bands before calling an iterative solver
           746 MiB given to the printing process from OS
             0 MiB allocation reported by mallinfo(arena+hblkhd)
        137634 MiB available memory on the node where the printing process lives
------------------
     ethr =  2.69E-04,  avg # of iterations =  1.0

     total cpu time spent up to now is      105.4 secs

     total energy              =   -1434.03438292 Ry
     estimated scf accuracy    <       0.53573179 Ry

     iteration # 53     ecut=    30.00 Ry     beta= 0.70
     Davidson diagonalization with overlap

---- Real-time Memory Report at c_bands before calling an iterative solver
           746 MiB given to the printing process from OS
             0 MiB allocation reported by mallinfo(arena+hblkhd)
        137619 MiB available memory on the node where the printing process lives
------------------
     ethr =  2.69E-04,  avg # of iterations =  1.0

     total cpu time spent up to now is      106.6 secs

     total energy              =   -1434.03783123 Ry
     estimated scf accuracy    <       0.13147307 Ry

     iteration # 54     ecut=    30.00 Ry     beta= 0.70
     Davidson diagonalization with overlap

---- Real-time Memory Report at c_bands before calling an iterative solver
           746 MiB given to the printing process from OS
             0 MiB allocation reported by mallinfo(arena+hblkhd)
        137618 MiB available memory on the node where the printing process lives
------------------
     ethr =  2.69E-04,  avg # of iterations =  1.0

     total cpu time spent up to now is      107.9 secs

     total energy              =   -1434.03586171 Ry
     estimated scf accuracy    <       0.09944062 Ry

     iteration # 55     ecut=    30.00 Ry     beta= 0.70
     Davidson diagonalization with overlap

---- Real-time Memory Report at c_bands before calling an iterative solver
           746 MiB given to the printing process from OS
             0 MiB allocation reported by mallinfo(arena+hblkhd)
        137619 MiB available memory on the node where the printing process lives
------------------
     ethr =  2.43E-04,  avg # of iterations =  1.0

     total cpu time spent up to now is      109.2 secs

     total energy              =   -1434.03207759 Ry
     estimated scf accuracy    <       1.25673710 Ry

     iteration # 56     ecut=    30.00 Ry     beta= 0.70
     Davidson diagonalization with overlap

---- Real-time Memory Report at c_bands before calling an iterative solver
           746 MiB given to the printing process from OS
             0 MiB allocation reported by mallinfo(arena+hblkhd)
        137620 MiB available memory on the node where the printing process lives
------------------
     ethr =  2.43E-04,  avg # of iterations =  1.0

     total cpu time spent up to now is      110.9 secs

     total energy              =   -1434.03546127 Ry
     estimated scf accuracy    <       0.09172890 Ry

     iteration # 57     ecut=    30.00 Ry     beta= 0.70
     Davidson diagonalization with overlap

---- Real-time Memory Report at c_bands before calling an iterative solver
           746 MiB given to the printing process from OS
             0 MiB allocation reported by mallinfo(arena+hblkhd)
        137619 MiB available memory on the node where the printing process lives
------------------
     ethr =  2.24E-04,  avg # of iterations =  1.0

     total cpu time spent up to now is      112.2 secs

     total energy              =   -1434.03675900 Ry
     estimated scf accuracy    <       0.07903283 Ry

     iteration # 58     ecut=    30.00 Ry     beta= 0.70
     Davidson diagonalization with overlap

---- Real-time Memory Report at c_bands before calling an iterative solver
           746 MiB given to the printing process from OS
             0 MiB allocation reported by mallinfo(arena+hblkhd)
        137619 MiB available memory on the node where the printing process lives
------------------
     ethr =  1.93E-04,  avg # of iterations =  1.0

     total cpu time spent up to now is      113.4 secs

     total energy              =   -1434.03637005 Ry
     estimated scf accuracy    <       0.07808837 Ry

     iteration # 59     ecut=    30.00 Ry     beta= 0.70
     Davidson diagonalization with overlap

---- Real-time Memory Report at c_bands before calling an iterative solver
           746 MiB given to the printing process from OS
             0 MiB allocation reported by mallinfo(arena+hblkhd)
        137619 MiB available memory on the node where the printing process lives
------------------
     ethr =  1.90E-04,  avg # of iterations =  1.0

     total cpu time spent up to now is      114.7 secs

     total energy              =   -1434.03174831 Ry
     estimated scf accuracy    <       0.05684757 Ry

     iteration # 60     ecut=    30.00 Ry     beta= 0.70
     Davidson diagonalization with overlap

---- Real-time Memory Report at c_bands before calling an iterative solver
           746 MiB given to the printing process from OS
             0 MiB allocation reported by mallinfo(arena+hblkhd)
        137619 MiB available memory on the node where the printing process lives
------------------
     ethr =  1.39E-04,  avg # of iterations =  2.0

     total cpu time spent up to now is      116.0 secs

     total energy              =   -1433.97295913 Ry
     estimated scf accuracy    <      10.71133410 Ry

     iteration # 61     ecut=    30.00 Ry     beta= 0.70
     Davidson diagonalization with overlap

---- Real-time Memory Report at c_bands before calling an iterative solver
           746 MiB given to the printing process from OS
             0 MiB allocation reported by mallinfo(arena+hblkhd)
        137620 MiB available memory on the node where the printing process lives
------------------
     ethr =  1.39E-04,  avg # of iterations =  1.0

     total cpu time spent up to now is      117.2 secs

     total energy              =   -1434.03641753 Ry
     estimated scf accuracy    <       0.13386836 Ry

     iteration # 62     ecut=    30.00 Ry     beta= 0.70
     Davidson diagonalization with overlap

---- Real-time Memory Report at c_bands before calling an iterative solver
           746 MiB given to the printing process from OS
             0 MiB allocation reported by mallinfo(arena+hblkhd)
        137636 MiB available memory on the node where the printing process lives
------------------
     ethr =  1.39E-04,  avg # of iterations =  1.0

     total cpu time spent up to now is      118.5 secs

     total energy              =   -1434.03630070 Ry
     estimated scf accuracy    <       0.10538908 Ry

     iteration # 63     ecut=    30.00 Ry     beta= 0.70
     Davidson diagonalization with overlap

---- Real-time Memory Report at c_bands before calling an iterative solver
           746 MiB given to the printing process from OS
             0 MiB allocation reported by mallinfo(arena+hblkhd)
        137636 MiB available memory on the node where the printing process lives
------------------
     ethr =  1.39E-04,  avg # of iterations =  1.0

     total cpu time spent up to now is      119.7 secs

     total energy              =   -1434.03504016 Ry
     estimated scf accuracy    <       0.08760352 Ry

     iteration # 64     ecut=    30.00 Ry     beta= 0.70
     Davidson diagonalization with overlap

---- Real-time Memory Report at c_bands before calling an iterative solver
           746 MiB given to the printing process from OS
             0 MiB allocation reported by mallinfo(arena+hblkhd)
        137637 MiB available memory on the node where the printing process lives
------------------
     ethr =  1.39E-04,  avg # of iterations =  1.0

     total cpu time spent up to now is      121.0 secs

     total energy              =   -1434.03501129 Ry
     estimated scf accuracy    <       0.14315651 Ry

     iteration # 65     ecut=    30.00 Ry     beta= 0.70
     Davidson diagonalization with overlap

---- Real-time Memory Report at c_bands before calling an iterative solver
           746 MiB given to the printing process from OS
             0 MiB allocation reported by mallinfo(arena+hblkhd)
        137638 MiB available memory on the node where the printing process lives
------------------
     ethr =  1.39E-04,  avg # of iterations =  1.0

     total cpu time spent up to now is      122.2 secs

     total energy              =   -1434.03206035 Ry
     estimated scf accuracy    <       0.56278394 Ry

     iteration # 66     ecut=    30.00 Ry     beta= 0.70
     Davidson diagonalization with overlap

---- Real-time Memory Report at c_bands before calling an iterative solver
           746 MiB given to the printing process from OS
             0 MiB allocation reported by mallinfo(arena+hblkhd)
        137639 MiB available memory on the node where the printing process lives
------------------
     ethr =  1.39E-04,  avg # of iterations =  1.0

     total cpu time spent up to now is      123.5 secs

     total energy              =   -1434.03721027 Ry
     estimated scf accuracy    <       0.10325491 Ry

     iteration # 67     ecut=    30.00 Ry     beta= 0.70
     Davidson diagonalization with overlap

---- Real-time Memory Report at c_bands before calling an iterative solver
           746 MiB given to the printing process from OS
             0 MiB allocation reported by mallinfo(arena+hblkhd)
        137639 MiB available memory on the node where the printing process lives
------------------
     ethr =  1.39E-04,  avg # of iterations =  1.0

     total cpu time spent up to now is      124.7 secs

     total energy              =   -1434.03505609 Ry
     estimated scf accuracy    <       0.12170932 Ry

     iteration # 68     ecut=    30.00 Ry     beta= 0.70
     Davidson diagonalization with overlap

---- Real-time Memory Report at c_bands before calling an iterative solver
           746 MiB given to the printing process from OS
             0 MiB allocation reported by mallinfo(arena+hblkhd)
        137640 MiB available memory on the node where the printing process lives
------------------
     ethr =  1.39E-04,  avg # of iterations =  1.0

     total cpu time spent up to now is      126.0 secs

     total energy              =   -1434.03560410 Ry
     estimated scf accuracy    <       0.09926368 Ry

     iteration # 69     ecut=    30.00 Ry     beta= 0.70
     Davidson diagonalization with overlap

---- Real-time Memory Report at c_bands before calling an iterative solver
           746 MiB given to the printing process from OS
             0 MiB allocation reported by mallinfo(arena+hblkhd)
        137640 MiB available memory on the node where the printing process lives
------------------
     ethr =  1.39E-04,  avg # of iterations =  1.0

     total cpu time spent up to now is      127.2 secs

     total energy              =   -1434.03278818 Ry
     estimated scf accuracy    <       0.06787884 Ry

     iteration # 70     ecut=    30.00 Ry     beta= 0.70
     Davidson diagonalization with overlap

---- Real-time Memory Report at c_bands before calling an iterative solver
           747 MiB given to the printing process from OS
             0 MiB allocation reported by mallinfo(arena+hblkhd)
        137640 MiB available memory on the node where the printing process lives
------------------
     ethr =  1.39E-04,  avg # of iterations =  2.0

     total cpu time spent up to now is      128.7 secs

     total energy              =   -1433.98361595 Ry
     estimated scf accuracy    <      10.48887477 Ry

     iteration # 71     ecut=    30.00 Ry     beta= 0.70
     Davidson diagonalization with overlap

---- Real-time Memory Report at c_bands before calling an iterative solver
           747 MiB given to the printing process from OS
             0 MiB allocation reported by mallinfo(arena+hblkhd)
        137641 MiB available memory on the node where the printing process lives
------------------
     ethr =  1.39E-04,  avg # of iterations =  1.0

     total cpu time spent up to now is      130.2 secs

     total energy              =   -1434.03660635 Ry
     estimated scf accuracy    <       0.11049570 Ry

     iteration # 72     ecut=    30.00 Ry     beta= 0.70
     Davidson diagonalization with overlap

---- Real-time Memory Report at c_bands before calling an iterative solver
           747 MiB given to the printing process from OS
             0 MiB allocation reported by mallinfo(arena+hblkhd)
        137628 MiB available memory on the node where the printing process lives
------------------
     ethr =  1.39E-04,  avg # of iterations =  1.0

     total cpu time spent up to now is      131.5 secs

     total energy              =   -1434.03603622 Ry
     estimated scf accuracy    <       0.08366757 Ry

     iteration # 73     ecut=    30.00 Ry     beta= 0.70
     Davidson diagonalization with overlap

---- Real-time Memory Report at c_bands before calling an iterative solver
           747 MiB given to the printing process from OS
             0 MiB allocation reported by mallinfo(arena+hblkhd)
        137628 MiB available memory on the node where the printing process lives
------------------
     ethr =  1.39E-04,  avg # of iterations =  1.0

     total cpu time spent up to now is      133.6 secs

     total energy              =   -1434.03672762 Ry
     estimated scf accuracy    <       0.02217833 Ry

     iteration # 74     ecut=    30.00 Ry     beta= 0.70
     Davidson diagonalization with overlap

---- Real-time Memory Report at c_bands before calling an iterative solver
           747 MiB given to the printing process from OS
             0 MiB allocation reported by mallinfo(arena+hblkhd)
        137628 MiB available memory on the node where the printing process lives
------------------
     ethr =  5.41E-05,  avg # of iterations =  1.0

     total cpu time spent up to now is      135.7 secs

     total energy              =   -1434.03567134 Ry
     estimated scf accuracy    <       0.36293246 Ry

     iteration # 75     ecut=    30.00 Ry     beta= 0.70
     Davidson diagonalization with overlap

---- Real-time Memory Report at c_bands before calling an iterative solver
           747 MiB given to the printing process from OS
             0 MiB allocation reported by mallinfo(arena+hblkhd)
        137629 MiB available memory on the node where the printing process lives
------------------
     ethr =  5.41E-05,  avg # of iterations =  1.0

     total cpu time spent up to now is      137.6 secs

     total energy              =   -1434.03311242 Ry
     estimated scf accuracy    <       0.60118409 Ry

     iteration # 76     ecut=    30.00 Ry     beta= 0.70
     Davidson diagonalization with overlap

---- Real-time Memory Report at c_bands before calling an iterative solver
           747 MiB given to the printing process from OS
             0 MiB allocation reported by mallinfo(arena+hblkhd)
        137629 MiB available memory on the node where the printing process lives
------------------
     ethr =  5.41E-05,  avg # of iterations =  1.0

     total cpu time spent up to now is      138.9 secs

     total energy              =   -1434.03678612 Ry
     estimated scf accuracy    <       0.08288211 Ry

     iteration # 77     ecut=    30.00 Ry     beta= 0.70
     Davidson diagonalization with overlap

---- Real-time Memory Report at c_bands before calling an iterative solver
           747 MiB given to the printing process from OS
             0 MiB allocation reported by mallinfo(arena+hblkhd)
        137627 MiB available memory on the node where the printing process lives
------------------
     ethr =  5.41E-05,  avg # of iterations =  1.0

     total cpu time spent up to now is      140.2 secs

     total energy              =   -1434.03449800 Ry
     estimated scf accuracy    <       0.33427920 Ry

     iteration # 78     ecut=    30.00 Ry     beta= 0.70
     Davidson diagonalization with overlap

---- Real-time Memory Report at c_bands before calling an iterative solver
           747 MiB given to the printing process from OS
             0 MiB allocation reported by mallinfo(arena+hblkhd)
        137628 MiB available memory on the node where the printing process lives
------------------
     ethr =  5.41E-05,  avg # of iterations =  1.0

     total cpu time spent up to now is      141.4 secs

     total energy              =   -1434.03288522 Ry
     estimated scf accuracy    <       0.50388403 Ry

     iteration # 79     ecut=    30.00 Ry     beta= 0.70
     Davidson diagonalization with overlap

---- Real-time Memory Report at c_bands before calling an iterative solver
           747 MiB given to the printing process from OS
             0 MiB allocation reported by mallinfo(arena+hblkhd)
        137643 MiB available memory on the node where the printing process lives
------------------
     ethr =  5.41E-05,  avg # of iterations =  1.0

     total cpu time spent up to now is      142.7 secs

     total energy              =   -1434.03487001 Ry
     estimated scf accuracy    <       0.08273654 Ry

     iteration # 80     ecut=    30.00 Ry     beta= 0.70
     Davidson diagonalization with overlap

---- Real-time Memory Report at c_bands before calling an iterative solver
           747 MiB given to the printing process from OS
             0 MiB allocation reported by mallinfo(arena+hblkhd)
        137643 MiB available memory on the node where the printing process lives
------------------
     ethr =  5.41E-05,  avg # of iterations =  2.0

     total cpu time spent up to now is      144.2 secs

     total energy              =   -1433.99455544 Ry
     estimated scf accuracy    <      10.01773429 Ry

     iteration # 81     ecut=    30.00 Ry     beta= 0.70
     Davidson diagonalization with overlap

---- Real-time Memory Report at c_bands before calling an iterative solver
           747 MiB given to the printing process from OS
             0 MiB allocation reported by mallinfo(arena+hblkhd)
        137643 MiB available memory on the node where the printing process lives
------------------
     ethr =  5.41E-05,  avg # of iterations =  2.0

     total cpu time spent up to now is      146.3 secs

     total energy              =   -1434.03698820 Ry
     estimated scf accuracy    <       0.08462258 Ry

     iteration # 82     ecut=    30.00 Ry     beta= 0.70
     Davidson diagonalization with overlap

---- Real-time Memory Report at c_bands before calling an iterative solver
           747 MiB given to the printing process from OS
             0 MiB allocation reported by mallinfo(arena+hblkhd)
        137643 MiB available memory on the node where the printing process lives
------------------
     ethr =  5.41E-05,  avg # of iterations =  1.0

     total cpu time spent up to now is      148.6 secs

     total energy              =   -1434.03690563 Ry
     estimated scf accuracy    <       0.08080938 Ry

     iteration # 83     ecut=    30.00 Ry     beta= 0.70
     Davidson diagonalization with overlap

---- Real-time Memory Report at c_bands before calling an iterative solver
           747 MiB given to the printing process from OS
             0 MiB allocation reported by mallinfo(arena+hblkhd)
        137637 MiB available memory on the node where the printing process lives
------------------
     ethr =  5.41E-05,  avg # of iterations =  1.0

     total cpu time spent up to now is      150.0 secs

     total energy              =   -1434.03566420 Ry
     estimated scf accuracy    <       0.10870003 Ry

     iteration # 84     ecut=    30.00 Ry     beta= 0.70
     Davidson diagonalization with overlap

---- Real-time Memory Report at c_bands before calling an iterative solver
           747 MiB given to the printing process from OS
             0 MiB allocation reported by mallinfo(arena+hblkhd)
        137638 MiB available memory on the node where the printing process lives
------------------
     ethr =  5.41E-05,  avg # of iterations =  1.0

     total cpu time spent up to now is      152.2 secs

     total energy              =   -1434.03574248 Ry
     estimated scf accuracy    <       0.22042690 Ry

     iteration # 85     ecut=    30.00 Ry     beta= 0.70
     Davidson diagonalization with overlap

---- Real-time Memory Report at c_bands before calling an iterative solver
           747 MiB given to the printing process from OS
             0 MiB allocation reported by mallinfo(arena+hblkhd)
        137639 MiB available memory on the node where the printing process lives
------------------
     ethr =  5.41E-05,  avg # of iterations =  1.0

     total cpu time spent up to now is      153.5 secs

     total energy              =   -1434.03059289 Ry
     estimated scf accuracy    <       0.58166374 Ry

     iteration # 86     ecut=    30.00 Ry     beta= 0.70
     Davidson diagonalization with overlap

---- Real-time Memory Report at c_bands before calling an iterative solver
           747 MiB given to the printing process from OS
             0 MiB allocation reported by mallinfo(arena+hblkhd)
        137639 MiB available memory on the node where the printing process lives
------------------
     ethr =  5.41E-05,  avg # of iterations =  1.0

     total cpu time spent up to now is      154.7 secs

     total energy              =   -1434.03642042 Ry
     estimated scf accuracy    <       0.07929936 Ry

     iteration # 87     ecut=    30.00 Ry     beta= 0.70
     Davidson diagonalization with overlap

---- Real-time Memory Report at c_bands before calling an iterative solver
           747 MiB given to the printing process from OS
             0 MiB allocation reported by mallinfo(arena+hblkhd)
        137624 MiB available memory on the node where the printing process lives
------------------
     ethr =  5.41E-05,  avg # of iterations =  1.0

     total cpu time spent up to now is      156.1 secs

     total energy              =   -1434.03391128 Ry
     estimated scf accuracy    <       0.39827400 Ry

     iteration # 88     ecut=    30.00 Ry     beta= 0.70
     Davidson diagonalization with overlap

---- Real-time Memory Report at c_bands before calling an iterative solver
           747 MiB given to the printing process from OS
             0 MiB allocation reported by mallinfo(arena+hblkhd)
        137625 MiB available memory on the node where the printing process lives
------------------
     ethr =  5.41E-05,  avg # of iterations =  1.0

     total cpu time spent up to now is      158.3 secs

     total energy              =   -1434.03285249 Ry
     estimated scf accuracy    <       0.58461574 Ry

     iteration # 89     ecut=    30.00 Ry     beta= 0.70
     Davidson diagonalization with overlap

---- Real-time Memory Report at c_bands before calling an iterative solver
           747 MiB given to the printing process from OS
             0 MiB allocation reported by mallinfo(arena+hblkhd)
        137625 MiB available memory on the node where the printing process lives
------------------
     ethr =  5.41E-05,  avg # of iterations =  1.0

     total cpu time spent up to now is      160.3 secs

     total energy              =   -1434.03576558 Ry
     estimated scf accuracy    <       0.08003550 Ry

     iteration # 90     ecut=    30.00 Ry     beta= 0.70
     Davidson diagonalization with overlap

---- Real-time Memory Report at c_bands before calling an iterative solver
           747 MiB given to the printing process from OS
             0 MiB allocation reported by mallinfo(arena+hblkhd)
        137609 MiB available memory on the node where the printing process lives
------------------
     ethr =  5.41E-05,  avg # of iterations =  1.0

     total cpu time spent up to now is      161.7 secs

     total energy              =   -1434.00332768 Ry
     estimated scf accuracy    <       8.39209457 Ry

     iteration # 91     ecut=    30.00 Ry     beta= 0.70
     Davidson diagonalization with overlap

---- Real-time Memory Report at c_bands before calling an iterative solver
           747 MiB given to the printing process from OS
             0 MiB allocation reported by mallinfo(arena+hblkhd)
        137613 MiB available memory on the node where the printing process lives
------------------
     ethr =  5.41E-05,  avg # of iterations =  1.0

     total cpu time spent up to now is      163.0 secs

     total energy              =   -1434.03537671 Ry
     estimated scf accuracy    <       0.06528831 Ry

     iteration # 92     ecut=    30.00 Ry     beta= 0.70
     Davidson diagonalization with overlap

---- Real-time Memory Report at c_bands before calling an iterative solver
           747 MiB given to the printing process from OS
             0 MiB allocation reported by mallinfo(arena+hblkhd)
        137614 MiB available memory on the node where the printing process lives
------------------
     ethr =  5.41E-05,  avg # of iterations =  1.0

     total cpu time spent up to now is      164.3 secs

     total energy              =   -1434.03550909 Ry
     estimated scf accuracy    <       0.12235444 Ry

     iteration # 93     ecut=    30.00 Ry     beta= 0.70
     Davidson diagonalization with overlap

---- Real-time Memory Report at c_bands before calling an iterative solver
           747 MiB given to the printing process from OS
             0 MiB allocation reported by mallinfo(arena+hblkhd)
        137615 MiB available memory on the node where the printing process lives
------------------
     ethr =  5.41E-05,  avg # of iterations =  1.0

     total cpu time spent up to now is      165.6 secs

     total energy              =   -1434.03450337 Ry
     estimated scf accuracy    <       0.33262552 Ry

     iteration # 94     ecut=    30.00 Ry     beta= 0.70
     Davidson diagonalization with overlap

---- Real-time Memory Report at c_bands before calling an iterative solver
           747 MiB given to the printing process from OS
             0 MiB allocation reported by mallinfo(arena+hblkhd)
        137615 MiB available memory on the node where the printing process lives
------------------
     ethr =  5.41E-05,  avg # of iterations =  1.0

     total cpu time spent up to now is      166.8 secs

     total energy              =   -1434.03426743 Ry
     estimated scf accuracy    <       0.41131699 Ry

     iteration # 95     ecut=    30.00 Ry     beta= 0.70
     Davidson diagonalization with overlap

---- Real-time Memory Report at c_bands before calling an iterative solver
           747 MiB given to the printing process from OS
             0 MiB allocation reported by mallinfo(arena+hblkhd)
        137616 MiB available memory on the node where the printing process lives
------------------
     ethr =  5.41E-05,  avg # of iterations =  1.0

     total cpu time spent up to now is      168.1 secs

     total energy              =   -1434.03301327 Ry
     estimated scf accuracy    <       0.38890296 Ry

     iteration # 96     ecut=    30.00 Ry     beta= 0.70
     Davidson diagonalization with overlap

---- Real-time Memory Report at c_bands before calling an iterative solver
           747 MiB given to the printing process from OS
             0 MiB allocation reported by mallinfo(arena+hblkhd)
        137618 MiB available memory on the node where the printing process lives
------------------
     ethr =  5.41E-05,  avg # of iterations =  1.0

     total cpu time spent up to now is      169.3 secs

     total energy              =   -1434.03674407 Ry
     estimated scf accuracy    <       0.08492600 Ry

     iteration # 97     ecut=    30.00 Ry     beta= 0.70
     Davidson diagonalization with overlap

---- Real-time Memory Report at c_bands before calling an iterative solver
           747 MiB given to the printing process from OS
             0 MiB allocation reported by mallinfo(arena+hblkhd)
        137618 MiB available memory on the node where the printing process lives
------------------
     ethr =  5.41E-05,  avg # of iterations =  1.0

     total cpu time spent up to now is      170.6 secs

     total energy              =   -1434.03733211 Ry
     estimated scf accuracy    <       0.04694778 Ry

     iteration # 98     ecut=    30.00 Ry     beta= 0.70
     Davidson diagonalization with overlap

---- Real-time Memory Report at c_bands before calling an iterative solver
           747 MiB given to the printing process from OS
             0 MiB allocation reported by mallinfo(arena+hblkhd)
        137620 MiB available memory on the node where the printing process lives
------------------
     ethr =  5.41E-05,  avg # of iterations =  1.0

     total cpu time spent up to now is      171.9 secs

     total energy              =   -1434.03706587 Ry
     estimated scf accuracy    <       0.02858030 Ry

     iteration # 99     ecut=    30.00 Ry     beta= 0.70
     Davidson diagonalization with overlap

---- Real-time Memory Report at c_bands before calling an iterative solver
           747 MiB given to the printing process from OS
             0 MiB allocation reported by mallinfo(arena+hblkhd)
        137620 MiB available memory on the node where the printing process lives
------------------
     ethr =  5.41E-05,  avg # of iterations =  1.0

     total cpu time spent up to now is      173.3 secs

     total energy              =   -1434.03504752 Ry
     estimated scf accuracy    <       0.07575747 Ry

     iteration #100     ecut=    30.00 Ry     beta= 0.70
     Davidson diagonalization with overlap

---- Real-time Memory Report at c_bands before calling an iterative solver
           747 MiB given to the printing process from OS
             0 MiB allocation reported by mallinfo(arena+hblkhd)
        137622 MiB available memory on the node where the printing process lives
------------------
     ethr =  5.41E-05,  avg # of iterations =  1.0

     total cpu time spent up to now is      175.4 secs

     total energy              =   -1434.00782427 Ry
     estimated scf accuracy    <       6.20913630 Ry

     End of self-consistent calculation

     convergence NOT achieved after 100 iterations: stopping

     Writing config to output data dir new_calculations/myprefix.save/
     Message from routine punch:
     wavefunctions written to file
 
     init_run     :    185.07s CPU      7.22s WALL (       1 calls)
     electrons    :   4861.72s CPU    167.85s WALL (       1 calls)

     Called by init_run:
     wfcinit      :     69.12s CPU      2.32s WALL (       1 calls)
     wfcinit:atom :      0.02s CPU      0.00s WALL (       1 calls)
     wfcinit:wfcr :     68.88s CPU      2.31s WALL (       1 calls)
     potinit      :     51.76s CPU      1.76s WALL (       1 calls)
     hinit0       :     54.68s CPU      2.80s WALL (       1 calls)

     Called by electrons:
     c_bands      :   1086.76s CPU     36.11s WALL (     100 calls)
     sum_band     :    741.05s CPU     29.32s WALL (     100 calls)
     v_of_rho     :     36.88s CPU      1.24s WALL (     101 calls)
     v_h          :      4.22s CPU      0.14s WALL (     101 calls)
     v_xc         :     32.44s CPU      1.09s WALL (     101 calls)
     newd         :    461.31s CPU     15.71s WALL (     101 calls)
     PAW_pot      :   2522.11s CPU     85.03s WALL (     101 calls)
     mix_rho      :     15.10s CPU      0.50s WALL (     100 calls)

     Called by c_bands:
     init_us_2    :      2.88s CPU      0.10s WALL (     201 calls)
     init_us_2:cp :      2.60s CPU      0.09s WALL (     201 calls)
     regterg      :   1070.04s CPU     35.54s WALL (     100 calls)

     Called by sum_band:
     sum_band:wei :      0.44s CPU      0.01s WALL (     100 calls)
     sum_band:loo :    246.46s CPU      8.17s WALL (     100 calls)
     sum_band:buf :      0.06s CPU      0.00s WALL (     100 calls)
     sum_band:ini :      1.20s CPU      0.04s WALL (     100 calls)
     sum_band:cal :     10.97s CPU      0.37s WALL (     100 calls)
     sum_band:bec :      0.70s CPU      0.02s WALL (     100 calls)
     addusdens    :    470.49s CPU     20.34s WALL (     100 calls)
     addusd:skk   :      1.89s CPU      0.06s WALL (     300 calls)
     addusd:dgemm :     48.99s CPU      6.23s WALL (     300 calls)
     addusd:qvan2 :    407.16s CPU     13.45s WALL (     300 calls)

     Called by *egterg:
     rdiaghg      :      6.10s CPU      0.21s WALL (     254 calls)
     regterg:over :     23.43s CPU      0.79s WALL (     154 calls)
     regterg:upda :      1.09s CPU      0.04s WALL (     154 calls)
     regterg:last :      1.37s CPU      0.05s WALL (     130 calls)
     h_psi        :   1085.43s CPU     36.05s WALL (     255 calls)
     s_psi        :      0.63s CPU      0.02s WALL (     255 calls)
     g_psi        :      0.28s CPU      0.01s WALL (     154 calls)

     Called by h_psi:
     h_psi:calbec :     17.82s CPU      0.61s WALL (     255 calls)
     vloc_psi     :   1065.18s CPU     35.36s WALL (     255 calls)
     add_vuspsi   :      1.07s CPU      0.04s WALL (     255 calls)

     General routines
     calbec       :     28.32s CPU      0.96s WALL (     355 calls)
     fft          :     52.08s CPU      1.77s WALL (    1111 calls)
     ffts         :     26.94s CPU      0.91s WALL (     201 calls)
     fftw         :   1264.00s CPU     41.93s WALL (    6794 calls)
     interpolate  :     31.08s CPU      1.05s WALL (     101 calls)
     davcio       :      0.38s CPU      0.01s WALL (      19 calls)
 
     Parallel routines

     PAW routines
     PAW_pot      :   2522.11s CPU     85.03s WALL (     101 calls)
     PAW_symme    :     33.24s CPU      1.11s WALL (     201 calls)
 
     PWSCF        :      1h24m CPU   2m55.56s WALL

 
   This run was terminated on:   6:46: 8  20May2023            

=------------------------------------------------------------------------------=
   JOB DONE.
=------------------------------------------------------------------------------=
