
     Program PWSCF v.7.0 starts on 21May2023 at 11:53:27 

     This program is part of the open-source Quantum ESPRESSO suite
     for quantum simulation of materials; please cite
         "P. Giannozzi et al., J. Phys.:Condens. Matter 21 395502 (2009);
         "P. Giannozzi et al., J. Phys.:Condens. Matter 29 465901 (2017);
         "P. Giannozzi et al., J. Chem. Phys. 152 154105 (2020);
          URL http://www.quantum-espresso.org", 
     in publications or presentations arising from this work. More details at
     http://www.quantum-espresso.org/quote

     Parallel version (MPI & OpenMP), running on      32 processor cores
     Number of MPI processes:                 1
     Threads/MPI process:                    32

     MPI processes distributed on     1 nodes
     81643 MiB available memory on the printing compute node when the environment starts
 
     Reading input from espresso_26684.pwi
Warning: card &CELL ignored
Warning: card / ignored

     Current dimensions of program PWSCF are:
     Max number of different atomic species (ntypx) = 10
     Max number of k-points (npk) =  40000
     Max angular momentum in pseudopotentials (lmaxx) =  4
     file Mg.pbe-n-kjpaw_psl.0.3.0.UPF: wavefunction(s)  3S renormalized

     gamma-point specific algorithms are used
     Message from routine setup:
     using ibrav=0 with symmetry is DISCOURAGED, use correct ibrav instead

     Subspace diagonalization in iterative solution of the eigenvalue problem:
     a serial algorithm will be used

 
     G-vector sticks info
     --------------------
     sticks:   dense  smooth     PW     G-vecs:    dense   smooth      PW
     Sum        1723     859    211                47183    16625    2085
 
     Using Slab Decomposition
 


     bravais-lattice index     =            0
     lattice parameter (alat)  =      10.2028  a.u.
     unit-cell volume          =     750.9963 (a.u.)^3
     number of atoms/cell      =            4
     number of atomic types    =            3
     number of electrons       =        41.00
     number of Kohn-Sham states=           25
     kinetic-energy cutoff     =      30.0000  Ry
     charge density cutoff     =     240.0000  Ry
     scf convergence threshold =      1.0E-06
     mixing beta               =       0.7000
     number of iterations used =            8  plain     mixing
     Exchange-correlation= SLA  PW   PBX  PBC
                           (   1   4   3   4   0   0   0)

     celldm(1)=  10.202758  celldm(2)=   0.000000  celldm(3)=   0.000000
     celldm(4)=   0.000000  celldm(5)=   0.000000  celldm(6)=   0.000000

     crystal axes: (cart. coord. in units of alat)
               a(1) = (   1.000000   0.000000   0.000000 )  
               a(2) = (   0.500000   0.866025   0.000000 )  
               a(3) = (   0.500000   0.288675   0.816497 )  

     reciprocal axes: (cart. coord. in units 2 pi/alat)
               b(1) = (  1.000000 -0.577350 -0.408248 )  
               b(2) = (  0.000000  1.154701 -0.408248 )  
               b(3) = (  0.000000  0.000000  1.224745 )  


     PseudoPot. # 1 for Nd read from file:
     /home/pragov/projects/rrg-bengioy-ad/pragov/crystal_structure_design/SSSP/Nd.GGA-PBE-paw-v1.0.UPF
     MD5 check sum: 1d1e94942b6eb1cde76049b71bb7dcb0
     Pseudo is Projector augmented-wave + core cor, Zval = 14.0
     Generated using ATOMPAW code
     Shape of augmentation charge: BESSEL
     Using radial grid of 1105 points,  8 beta functions with: 
                l(1) =   0
                l(2) =   0
                l(3) =   1
                l(4) =   1
                l(5) =   2
                l(6) =   2
                l(7) =   3
                l(8) =   3
     Q(r) pseudized with 0 coefficients 


     PseudoPot. # 2 for Tm read from file:
     /home/pragov/projects/rrg-bengioy-ad/pragov/crystal_structure_design/SSSP/Tm.GGA-PBE-paw-v1.0.UPF
     MD5 check sum: e502ddec747d736c64e0ed72ddfd7d4c
     Pseudo is Projector augmented-wave + core cor, Zval = 23.0
     Generated using ATOMPAW code
     Shape of augmentation charge: BESSEL
     Using radial grid of 1116 points,  8 beta functions with: 
                l(1) =   0
                l(2) =   0
                l(3) =   1
                l(4) =   1
                l(5) =   2
                l(6) =   2
                l(7) =   3
                l(8) =   3
     Q(r) pseudized with 0 coefficients 


     PseudoPot. # 3 for Mg read from file:
     /home/pragov/projects/rrg-bengioy-ad/pragov/crystal_structure_design/SSSP/Mg.pbe-n-kjpaw_psl.0.3.0.UPF
     MD5 check sum: 24ecedc7f3e3cbe212e682f4413594e4
     Pseudo is Projector augmented-wave + core cor, Zval =  2.0
     Generated using "atomic" code by A. Dal Corso  v.5.0.99 svn rev. 10869
     Shape of augmentation charge: PSQ
     Using radial grid of 1129 points,  4 beta functions with: 
                l(1) =   0
                l(2) =   0
                l(3) =   1
                l(4) =   1
     Q(r) pseudized with 0 coefficients 


     atomic species   valence    mass     pseudopotential
        Nd            14.00   144.24200     Nd( 1.00)
        Tm            23.00   168.93422     Tm( 1.00)
        Mg             2.00    24.30500     Mg( 1.00)

     12 Sym. Ops., with inversion, found


                                    s                        frac. trans.

      isym =  1     identity                                     

 cryst.   s( 1) = (     1          0          0      )
                  (     0          1          0      )
                  (     0          0          1      )

 cart.    s( 1) = (  1.0000000  0.0000000  0.0000000 )
                  (  0.0000000  1.0000000  0.0000000 )
                  (  0.0000000  0.0000000  1.0000000 )


      isym =  2     180 deg rotation - cart. axis [1,0,0]        

 cryst.   s( 2) = (     1          0          0      )
                  (     1         -1          0      )
                  (     1          0         -1      )

 cart.    s( 2) = (  1.0000000  0.0000000  0.0000000 )
                  (  0.0000000 -1.0000000 -0.0000000 )
                  (  0.0000000  0.0000000 -1.0000000 )


      isym =  3     120 deg rotation - cryst. axis [0,0,1]       

 cryst.   s( 3) = (    -1          1          0      )
                  (    -1          0          0      )
                  (    -1          0          1      )

 cart.    s( 3) = ( -0.5000000 -0.8660254 -0.0000000 )
                  (  0.8660254 -0.5000000 -0.0000000 )
                  (  0.0000000  0.0000000  1.0000000 )


      isym =  4     120 deg rotation - cryst. axis [0,0,-1]      

 cryst.   s( 4) = (     0         -1          0      )
                  (     1         -1          0      )
                  (     0         -1          1      )

 cart.    s( 4) = ( -0.5000000  0.8660254  0.0000000 )
                  ( -0.8660254 -0.5000000 -0.0000000 )
                  (  0.0000000  0.0000000  1.0000000 )


      isym =  5     180 deg rotation - cryst. axis [0,1,0]       

 cryst.   s( 5) = (     0         -1          0      )
                  (    -1          0          0      )
                  (     0          0         -1      )

 cart.    s( 5) = ( -0.5000000 -0.8660254 -0.0000000 )
                  ( -0.8660254  0.5000000  0.0000000 )
                  (  0.0000000  0.0000000 -1.0000000 )


      isym =  6     180 deg rotation - cryst. axis [1,1,0]       

 cryst.   s( 6) = (    -1          1          0      )
                  (     0          1          0      )
                  (     0          1         -1      )

 cart.    s( 6) = ( -0.5000000  0.8660254  0.0000000 )
                  (  0.8660254  0.5000000  0.0000000 )
                  (  0.0000000  0.0000000 -1.0000000 )


      isym =  7     inversion                                    

 cryst.   s( 7) = (    -1          0          0      )
                  (     0         -1          0      )
                  (     0          0         -1      )

 cart.    s( 7) = ( -1.0000000  0.0000000 -0.0000000 )
                  (  0.0000000 -1.0000000 -0.0000000 )
                  (  0.0000000  0.0000000 -1.0000000 )


      isym =  8     inv. 180 deg rotation - cart. axis [1,0,0]   

 cryst.   s( 8) = (    -1          0          0      )
                  (    -1          1          0      )
                  (    -1          0          1      )

 cart.    s( 8) = ( -1.0000000  0.0000000  0.0000000 )
                  (  0.0000000  1.0000000  0.0000000 )
                  (  0.0000000  0.0000000  1.0000000 )


      isym =  9     inv. 120 deg rotation - cryst. axis [0,0,1]  

 cryst.   s( 9) = (     1         -1          0      )
                  (     1          0          0      )
                  (     1          0         -1      )

 cart.    s( 9) = (  0.5000000  0.8660254  0.0000000 )
                  ( -0.8660254  0.5000000  0.0000000 )
                  (  0.0000000  0.0000000 -1.0000000 )


      isym = 10     inv. 120 deg rotation - cryst. axis [0,0,-1] 

 cryst.   s(10) = (     0          1          0      )
                  (    -1          1          0      )
                  (     0          1         -1      )

 cart.    s(10) = (  0.5000000 -0.8660254 -0.0000000 )
                  (  0.8660254  0.5000000  0.0000000 )
                  (  0.0000000  0.0000000 -1.0000000 )


      isym = 11     inv. 180 deg rotation - cryst. axis [0,1,0]  

 cryst.   s(11) = (     0          1          0      )
                  (     1          0          0      )
                  (     0          0          1      )

 cart.    s(11) = (  0.5000000  0.8660254  0.0000000 )
                  (  0.8660254 -0.5000000 -0.0000000 )
                  (  0.0000000  0.0000000  1.0000000 )


      isym = 12     inv. 180 deg rotation - cryst. axis [1,1,0]  

 cryst.   s(12) = (     1         -1          0      )
                  (     0         -1          0      )
                  (     0         -1          1      )

 cart.    s(12) = (  0.5000000 -0.8660254 -0.0000000 )
                  ( -0.8660254 -0.5000000 -0.0000000 )
                  (  0.0000000  0.0000000  1.0000000 )


   Cartesian axes

     site n.     atom                  positions (alat units)
         1           Nd  tau(   1) = (   1.0000000   0.5773503   0.4082483  )
         2           Tm  tau(   2) = (   0.0000000   0.0000000   0.0000000  )
         3           Mg  tau(   3) = (   0.5000000   0.2886751   0.2041241  )
         4           Mg  tau(   4) = (   1.5000000   0.8660254   0.6123724  )

   Crystallographic axes

     site n.     atom                  positions (cryst. coord.)
         1           Nd  tau(   1) = (  0.5000000  0.5000000  0.5000000  )
         2           Tm  tau(   2) = (  0.0000000  0.0000000  0.0000000  )
         3           Mg  tau(   3) = (  0.2500000  0.2500000  0.2500000  )
         4           Mg  tau(   4) = (  0.7500000  0.7500000  0.7500000  )

     number of k points=     1  Methfessel-Paxton smearing, width (Ry)=  0.0010
                       cart. coord. in units 2pi/alat
        k(    1) = (   0.0000000   0.0000000   0.0000000), wk =   2.0000000

                       cryst. coord.
        k(    1) = (   0.0000000   0.0000000   0.0000000), wk =   2.0000000

     Dense  grid:    23592 G-vectors     FFT dimensions: (  54,  54,  54)

     Smooth grid:     8313 G-vectors     FFT dimensions: (  36,  36,  36)

     Dynamical RAM for                 wfc:       0.40 MB

     Dynamical RAM for     wfc (w. buffer):       0.40 MB

     Dynamical RAM for           str. fact:       1.08 MB

     Dynamical RAM for           local pot:       0.00 MB

     Dynamical RAM for          nlocal pot:       1.27 MB

     Dynamical RAM for                qrad:       8.96 MB

     Dynamical RAM for          rho,v,vnew:       4.68 MB

     Dynamical RAM for               rhoin:       1.56 MB

     Dynamical RAM for            rho*nmix:       5.76 MB

     Dynamical RAM for           G-vectors:       1.41 MB

     Dynamical RAM for          h,s,v(r/c):       0.06 MB

     Dynamical RAM for          <psi|beta>:       0.02 MB

     Dynamical RAM for                 psi:       0.79 MB

     Dynamical RAM for                hpsi:       0.79 MB

     Dynamical RAM for                spsi:       0.79 MB

     Dynamical RAM for      wfcinit/wfcrot:       2.41 MB

     Dynamical RAM for           addusdens:     200.51 MB

     Dynamical RAM for          addusforce:     201.44 MB

     Dynamical RAM for         addusstress:     209.51 MB

     Estimated static dynamical RAM per process >      26.81 MB

     Estimated max dynamical RAM per process >     242.08 MB

     Initial potential from superposition of free atoms

     starting charge      40.9876, renormalised to      41.0000
     Starting wfcs are   72 randomized atomic wfcs
     Checking if some PAW data can be deallocated... 

     total cpu time spent up to now is        7.9 secs

     Self-consistent Calculation

     iteration #  1     ecut=    30.00 Ry     beta= 0.70
     Davidson diagonalization with overlap

---- Real-time Memory Report at c_bands before calling an iterative solver
           509 MiB given to the printing process from OS
             0 MiB allocation reported by mallinfo(arena+hblkhd)
         81375 MiB available memory on the node where the printing process lives
------------------
     ethr =  1.00E-02,  avg # of iterations =  1.0

     total cpu time spent up to now is        8.9 secs

     total energy              =   -1548.43422824 Ry
     estimated scf accuracy    <       2.04831850 Ry

     iteration #  2     ecut=    30.00 Ry     beta= 0.70
     Davidson diagonalization with overlap

---- Real-time Memory Report at c_bands before calling an iterative solver
           675 MiB given to the printing process from OS
             0 MiB allocation reported by mallinfo(arena+hblkhd)
         81345 MiB available memory on the node where the printing process lives
------------------
     ethr =  5.00E-03,  avg # of iterations =  9.0

     total cpu time spent up to now is       10.0 secs

     total energy              =   -1551.22998624 Ry
     estimated scf accuracy    <     225.90981197 Ry

     iteration #  3     ecut=    30.00 Ry     beta= 0.70
     Davidson diagonalization with overlap

---- Real-time Memory Report at c_bands before calling an iterative solver
           699 MiB given to the printing process from OS
             0 MiB allocation reported by mallinfo(arena+hblkhd)
         81378 MiB available memory on the node where the printing process lives
------------------
     ethr =  5.00E-03,  avg # of iterations = 11.0

     total cpu time spent up to now is       11.2 secs

     total energy              =   -1546.51429080 Ry
     estimated scf accuracy    <      99.90510199 Ry

     iteration #  4     ecut=    30.00 Ry     beta= 0.70
     Davidson diagonalization with overlap

---- Real-time Memory Report at c_bands before calling an iterative solver
           699 MiB given to the printing process from OS
             0 MiB allocation reported by mallinfo(arena+hblkhd)
         81722 MiB available memory on the node where the printing process lives
------------------
     ethr =  5.00E-03,  avg # of iterations =  6.0

     total cpu time spent up to now is       12.3 secs

     total energy              =   -1549.41455149 Ry
     estimated scf accuracy    <      20.04512986 Ry

     iteration #  5     ecut=    30.00 Ry     beta= 0.70
     Davidson diagonalization with overlap

---- Real-time Memory Report at c_bands before calling an iterative solver
           701 MiB given to the printing process from OS
             0 MiB allocation reported by mallinfo(arena+hblkhd)
         81723 MiB available memory on the node where the printing process lives
------------------
     ethr =  5.00E-03,  avg # of iterations =  4.0

     total cpu time spent up to now is       13.4 secs

     total energy              =   -1551.04011248 Ry
     estimated scf accuracy    <       8.20083067 Ry

     iteration #  6     ecut=    30.00 Ry     beta= 0.70
     Davidson diagonalization with overlap

---- Real-time Memory Report at c_bands before calling an iterative solver
           701 MiB given to the printing process from OS
             0 MiB allocation reported by mallinfo(arena+hblkhd)
         81493 MiB available memory on the node where the printing process lives
------------------
     ethr =  5.00E-03,  avg # of iterations =  1.0

     total cpu time spent up to now is       14.4 secs

     total energy              =   -1551.07537273 Ry
     estimated scf accuracy    <       1.89409387 Ry

     iteration #  7     ecut=    30.00 Ry     beta= 0.70
     Davidson diagonalization with overlap

---- Real-time Memory Report at c_bands before calling an iterative solver
           701 MiB given to the printing process from OS
             0 MiB allocation reported by mallinfo(arena+hblkhd)
         81321 MiB available memory on the node where the printing process lives
------------------
     ethr =  4.62E-03,  avg # of iterations =  1.0

     total cpu time spent up to now is       15.4 secs

     total energy              =   -1550.99930817 Ry
     estimated scf accuracy    <       7.70032884 Ry

     iteration #  8     ecut=    30.00 Ry     beta= 0.70
     Davidson diagonalization with overlap

---- Real-time Memory Report at c_bands before calling an iterative solver
           701 MiB given to the printing process from OS
             0 MiB allocation reported by mallinfo(arena+hblkhd)
         81319 MiB available memory on the node where the printing process lives
------------------
     ethr =  4.62E-03,  avg # of iterations =  1.0

     total cpu time spent up to now is       16.3 secs

     total energy              =   -1550.93484197 Ry
     estimated scf accuracy    <       1.64356244 Ry

     iteration #  9     ecut=    30.00 Ry     beta= 0.70
     Davidson diagonalization with overlap

---- Real-time Memory Report at c_bands before calling an iterative solver
           701 MiB given to the printing process from OS
             0 MiB allocation reported by mallinfo(arena+hblkhd)
         81089 MiB available memory on the node where the printing process lives
------------------
     ethr =  4.01E-03,  avg # of iterations =  1.0

     total cpu time spent up to now is       17.3 secs

     total energy              =   -1550.91400005 Ry
     estimated scf accuracy    <       1.42851178 Ry

     iteration # 10     ecut=    30.00 Ry     beta= 0.70
     Davidson diagonalization with overlap

---- Real-time Memory Report at c_bands before calling an iterative solver
           701 MiB given to the printing process from OS
             0 MiB allocation reported by mallinfo(arena+hblkhd)
         81547 MiB available memory on the node where the printing process lives
------------------
     ethr =  3.48E-03,  avg # of iterations =  1.0

     total cpu time spent up to now is       18.3 secs

     total energy              =   -1550.78117023 Ry
     estimated scf accuracy    <       1.27766840 Ry

     iteration # 11     ecut=    30.00 Ry     beta= 0.70
     Davidson diagonalization with overlap

---- Real-time Memory Report at c_bands before calling an iterative solver
           701 MiB given to the printing process from OS
             0 MiB allocation reported by mallinfo(arena+hblkhd)
         81549 MiB available memory on the node where the printing process lives
------------------
     ethr =  3.12E-03,  avg # of iterations =  1.0

     total cpu time spent up to now is       19.3 secs

     total energy              =   -1549.85158587 Ry
     estimated scf accuracy    <      51.92219656 Ry

     iteration # 12     ecut=    30.00 Ry     beta= 0.70
     Davidson diagonalization with overlap

---- Real-time Memory Report at c_bands before calling an iterative solver
           701 MiB given to the printing process from OS
             0 MiB allocation reported by mallinfo(arena+hblkhd)
         81551 MiB available memory on the node where the printing process lives
------------------
     ethr =  3.12E-03,  avg # of iterations =  1.0

     total cpu time spent up to now is       20.3 secs

     total energy              =   -1550.72103442 Ry
     estimated scf accuracy    <       6.68144311 Ry

     iteration # 13     ecut=    30.00 Ry     beta= 0.70
     Davidson diagonalization with overlap

---- Real-time Memory Report at c_bands before calling an iterative solver
           701 MiB given to the printing process from OS
             0 MiB allocation reported by mallinfo(arena+hblkhd)
         81550 MiB available memory on the node where the printing process lives
------------------
     ethr =  3.12E-03,  avg # of iterations =  1.0

     total cpu time spent up to now is       21.2 secs

     total energy              =   -1551.19261166 Ry
     estimated scf accuracy    <      52.39384071 Ry

     iteration # 14     ecut=    30.00 Ry     beta= 0.70
     Davidson diagonalization with overlap

---- Real-time Memory Report at c_bands before calling an iterative solver
           701 MiB given to the printing process from OS
             0 MiB allocation reported by mallinfo(arena+hblkhd)
         81550 MiB available memory on the node where the printing process lives
------------------
     ethr =  3.12E-03,  avg # of iterations =  7.0

     total cpu time spent up to now is       22.3 secs

     total energy              =   -1549.83896005 Ry
     estimated scf accuracy    <      84.61909065 Ry

     iteration # 15     ecut=    30.00 Ry     beta= 0.70
     Davidson diagonalization with overlap

---- Real-time Memory Report at c_bands before calling an iterative solver
           701 MiB given to the printing process from OS
             0 MiB allocation reported by mallinfo(arena+hblkhd)
         81551 MiB available memory on the node where the printing process lives
------------------
     ethr =  3.12E-03,  avg # of iterations =  4.0

     total cpu time spent up to now is       23.3 secs

     total energy              =   -1550.97173443 Ry
     estimated scf accuracy    <       1.32884501 Ry

     iteration # 16     ecut=    30.00 Ry     beta= 0.70
     Davidson diagonalization with overlap

---- Real-time Memory Report at c_bands before calling an iterative solver
           701 MiB given to the printing process from OS
             0 MiB allocation reported by mallinfo(arena+hblkhd)
         81549 MiB available memory on the node where the printing process lives
------------------
     ethr =  3.12E-03,  avg # of iterations =  2.0

     total cpu time spent up to now is       24.3 secs

     total energy              =   -1550.97742585 Ry
     estimated scf accuracy    <       1.33248500 Ry

     iteration # 17     ecut=    30.00 Ry     beta= 0.70
     Davidson diagonalization with overlap

---- Real-time Memory Report at c_bands before calling an iterative solver
           701 MiB given to the printing process from OS
             0 MiB allocation reported by mallinfo(arena+hblkhd)
         81548 MiB available memory on the node where the printing process lives
------------------
     ethr =  3.12E-03,  avg # of iterations =  1.0

     total cpu time spent up to now is       25.3 secs

     total energy              =   -1550.97278133 Ry
     estimated scf accuracy    <       1.33134463 Ry

     iteration # 18     ecut=    30.00 Ry     beta= 0.70
     Davidson diagonalization with overlap

---- Real-time Memory Report at c_bands before calling an iterative solver
           703 MiB given to the printing process from OS
             0 MiB allocation reported by mallinfo(arena+hblkhd)
         81548 MiB available memory on the node where the printing process lives
------------------
     ethr =  3.12E-03,  avg # of iterations =  1.0

     total cpu time spent up to now is       26.3 secs

     total energy              =   -1550.96228953 Ry
     estimated scf accuracy    <       1.29980531 Ry

     iteration # 19     ecut=    30.00 Ry     beta= 0.70
     Davidson diagonalization with overlap

---- Real-time Memory Report at c_bands before calling an iterative solver
           703 MiB given to the printing process from OS
             0 MiB allocation reported by mallinfo(arena+hblkhd)
         81549 MiB available memory on the node where the printing process lives
------------------
     ethr =  3.12E-03,  avg # of iterations =  1.0

     total cpu time spent up to now is       27.3 secs

     total energy              =   -1550.93014706 Ry
     estimated scf accuracy    <       1.29671248 Ry

     iteration # 20     ecut=    30.00 Ry     beta= 0.70
     Davidson diagonalization with overlap

---- Real-time Memory Report at c_bands before calling an iterative solver
           703 MiB given to the printing process from OS
             0 MiB allocation reported by mallinfo(arena+hblkhd)
         81548 MiB available memory on the node where the printing process lives
------------------
     ethr =  3.12E-03,  avg # of iterations =  1.0

     total cpu time spent up to now is       28.3 secs

     total energy              =   -1550.90684467 Ry
     estimated scf accuracy    <       1.17411133 Ry

     iteration # 21     ecut=    30.00 Ry     beta= 0.70
     Davidson diagonalization with overlap

---- Real-time Memory Report at c_bands before calling an iterative solver
           703 MiB given to the printing process from OS
             0 MiB allocation reported by mallinfo(arena+hblkhd)
         81550 MiB available memory on the node where the printing process lives
------------------
     ethr =  2.86E-03,  avg # of iterations =  1.0

     total cpu time spent up to now is       29.3 secs

     total energy              =   -1550.92087065 Ry
     estimated scf accuracy    <       0.16128492 Ry

     iteration # 22     ecut=    30.00 Ry     beta= 0.70
     Davidson diagonalization with overlap

---- Real-time Memory Report at c_bands before calling an iterative solver
           703 MiB given to the printing process from OS
             0 MiB allocation reported by mallinfo(arena+hblkhd)
         81550 MiB available memory on the node where the printing process lives
------------------
     ethr =  3.93E-04,  avg # of iterations =  6.0

     total cpu time spent up to now is       30.3 secs

     total energy              =   -1550.71800093 Ry
     estimated scf accuracy    <      12.39349416 Ry

     iteration # 23     ecut=    30.00 Ry     beta= 0.70
     Davidson diagonalization with overlap

---- Real-time Memory Report at c_bands before calling an iterative solver
           703 MiB given to the printing process from OS
             0 MiB allocation reported by mallinfo(arena+hblkhd)
         81321 MiB available memory on the node where the printing process lives
------------------
     ethr =  3.93E-04,  avg # of iterations =  5.0

     total cpu time spent up to now is       31.3 secs

     total energy              =   -1550.79454328 Ry
     estimated scf accuracy    <       6.20376588 Ry

     iteration # 24     ecut=    30.00 Ry     beta= 0.70
     Davidson diagonalization with overlap

---- Real-time Memory Report at c_bands before calling an iterative solver
           704 MiB given to the printing process from OS
             0 MiB allocation reported by mallinfo(arena+hblkhd)
         81323 MiB available memory on the node where the printing process lives
------------------
     ethr =  3.93E-04,  avg # of iterations =  1.0

     total cpu time spent up to now is       32.3 secs

     total energy              =   -1550.89636937 Ry
     estimated scf accuracy    <       0.52304103 Ry

     iteration # 25     ecut=    30.00 Ry     beta= 0.70
     Davidson diagonalization with overlap

---- Real-time Memory Report at c_bands before calling an iterative solver
           704 MiB given to the printing process from OS
             0 MiB allocation reported by mallinfo(arena+hblkhd)
         81488 MiB available memory on the node where the printing process lives
------------------
     ethr =  3.93E-04,  avg # of iterations =  1.0

     total cpu time spent up to now is       33.3 secs

     total energy              =   -1550.90915419 Ry
     estimated scf accuracy    <       1.08035823 Ry

     iteration # 26     ecut=    30.00 Ry     beta= 0.70
     Davidson diagonalization with overlap

---- Real-time Memory Report at c_bands before calling an iterative solver
           704 MiB given to the printing process from OS
             0 MiB allocation reported by mallinfo(arena+hblkhd)
         81324 MiB available memory on the node where the printing process lives
------------------
     ethr =  3.93E-04,  avg # of iterations =  1.0

     total cpu time spent up to now is       34.3 secs

     total energy              =   -1550.89988710 Ry
     estimated scf accuracy    <       1.10021217 Ry

     iteration # 27     ecut=    30.00 Ry     beta= 0.70
     Davidson diagonalization with overlap

---- Real-time Memory Report at c_bands before calling an iterative solver
           704 MiB given to the printing process from OS
             0 MiB allocation reported by mallinfo(arena+hblkhd)
         81323 MiB available memory on the node where the printing process lives
------------------
     ethr =  3.93E-04,  avg # of iterations =  1.0

     total cpu time spent up to now is       35.3 secs

     total energy              =   -1550.89657015 Ry
     estimated scf accuracy    <       1.05649196 Ry

     iteration # 28     ecut=    30.00 Ry     beta= 0.70
     Davidson diagonalization with overlap

---- Real-time Memory Report at c_bands before calling an iterative solver
           704 MiB given to the printing process from OS
             0 MiB allocation reported by mallinfo(arena+hblkhd)
         81325 MiB available memory on the node where the printing process lives
------------------
     ethr =  3.93E-04,  avg # of iterations =  1.0

     total cpu time spent up to now is       36.3 secs

     total energy              =   -1550.89933434 Ry
     estimated scf accuracy    <       0.91015501 Ry

     iteration # 29     ecut=    30.00 Ry     beta= 0.70
     Davidson diagonalization with overlap

---- Real-time Memory Report at c_bands before calling an iterative solver
           704 MiB given to the printing process from OS
             0 MiB allocation reported by mallinfo(arena+hblkhd)
         81324 MiB available memory on the node where the printing process lives
------------------
     ethr =  3.93E-04,  avg # of iterations =  1.0

     total cpu time spent up to now is       37.3 secs

     total energy              =   -1550.90034242 Ry
     estimated scf accuracy    <       1.05201794 Ry

     iteration # 30     ecut=    30.00 Ry     beta= 0.70
     Davidson diagonalization with overlap

---- Real-time Memory Report at c_bands before calling an iterative solver
           704 MiB given to the printing process from OS
             0 MiB allocation reported by mallinfo(arena+hblkhd)
         81324 MiB available memory on the node where the printing process lives
------------------
     ethr =  3.93E-04,  avg # of iterations =  1.0

     total cpu time spent up to now is       38.3 secs

     total energy              =   -1550.90331997 Ry
     estimated scf accuracy    <       0.93917649 Ry

     iteration # 31     ecut=    30.00 Ry     beta= 0.70
     Davidson diagonalization with overlap

---- Real-time Memory Report at c_bands before calling an iterative solver
           704 MiB given to the printing process from OS
             0 MiB allocation reported by mallinfo(arena+hblkhd)
         81324 MiB available memory on the node where the printing process lives
------------------
     ethr =  3.93E-04,  avg # of iterations =  1.0

     total cpu time spent up to now is       39.3 secs

     total energy              =   -1550.89487163 Ry
     estimated scf accuracy    <       0.26291920 Ry

     iteration # 32     ecut=    30.00 Ry     beta= 0.70
     Davidson diagonalization with overlap

---- Real-time Memory Report at c_bands before calling an iterative solver
           704 MiB given to the printing process from OS
             0 MiB allocation reported by mallinfo(arena+hblkhd)
         81841 MiB available memory on the node where the printing process lives
------------------
     ethr =  3.93E-04,  avg # of iterations =  5.0

     total cpu time spent up to now is       40.3 secs

     total energy              =   -1550.64260327 Ry
     estimated scf accuracy    <      44.18368022 Ry

     iteration # 33     ecut=    30.00 Ry     beta= 0.70
     Davidson diagonalization with overlap

---- Real-time Memory Report at c_bands before calling an iterative solver
           704 MiB given to the printing process from OS
             0 MiB allocation reported by mallinfo(arena+hblkhd)
         81728 MiB available memory on the node where the printing process lives
------------------
     ethr =  3.93E-04,  avg # of iterations =  6.0

     total cpu time spent up to now is       41.4 secs

     total energy              =   -1550.80915545 Ry
     estimated scf accuracy    <       7.58967080 Ry

     iteration # 34     ecut=    30.00 Ry     beta= 0.70
     Davidson diagonalization with overlap

---- Real-time Memory Report at c_bands before calling an iterative solver
           704 MiB given to the printing process from OS
             0 MiB allocation reported by mallinfo(arena+hblkhd)
         81728 MiB available memory on the node where the printing process lives
------------------
     ethr =  3.93E-04,  avg # of iterations =  1.0

     total cpu time spent up to now is       42.4 secs

     total energy              =   -1550.88773988 Ry
     estimated scf accuracy    <       4.30072607 Ry

     iteration # 35     ecut=    30.00 Ry     beta= 0.70
     Davidson diagonalization with overlap

---- Real-time Memory Report at c_bands before calling an iterative solver
           704 MiB given to the printing process from OS
             0 MiB allocation reported by mallinfo(arena+hblkhd)
         81554 MiB available memory on the node where the printing process lives
------------------
     ethr =  3.93E-04,  avg # of iterations =  1.0

     total cpu time spent up to now is       43.4 secs

     total energy              =   -1550.89158009 Ry
     estimated scf accuracy    <       0.71767598 Ry

     iteration # 36     ecut=    30.00 Ry     beta= 0.70
     Davidson diagonalization with overlap

---- Real-time Memory Report at c_bands before calling an iterative solver
           704 MiB given to the printing process from OS
             0 MiB allocation reported by mallinfo(arena+hblkhd)
         81326 MiB available memory on the node where the printing process lives
------------------
     ethr =  3.93E-04,  avg # of iterations =  1.0

     total cpu time spent up to now is       44.4 secs

     total energy              =   -1550.88894095 Ry
     estimated scf accuracy    <       0.12209250 Ry

     iteration # 37     ecut=    30.00 Ry     beta= 0.70
     Davidson diagonalization with overlap

---- Real-time Memory Report at c_bands before calling an iterative solver
           704 MiB given to the printing process from OS
             0 MiB allocation reported by mallinfo(arena+hblkhd)
         81325 MiB available memory on the node where the printing process lives
------------------
     ethr =  2.98E-04,  avg # of iterations =  1.0

     total cpu time spent up to now is       45.4 secs

     total energy              =   -1550.89243792 Ry
     estimated scf accuracy    <       1.48747125 Ry

     iteration # 38     ecut=    30.00 Ry     beta= 0.70
     Davidson diagonalization with overlap

---- Real-time Memory Report at c_bands before calling an iterative solver
           704 MiB given to the printing process from OS
             0 MiB allocation reported by mallinfo(arena+hblkhd)
         81324 MiB available memory on the node where the printing process lives
------------------
     ethr =  2.98E-04,  avg # of iterations =  1.0

     total cpu time spent up to now is       46.4 secs

     total energy              =   -1550.89250903 Ry
     estimated scf accuracy    <       0.72844045 Ry

     iteration # 39     ecut=    30.00 Ry     beta= 0.70
     Davidson diagonalization with overlap

---- Real-time Memory Report at c_bands before calling an iterative solver
           704 MiB given to the printing process from OS
             0 MiB allocation reported by mallinfo(arena+hblkhd)
         81497 MiB available memory on the node where the printing process lives
------------------
     ethr =  2.98E-04,  avg # of iterations =  1.0
     Minimization algorithm failed to find Fermi energy: reverting to bisection
     Possible cause: smearing is larger than the electronic band-gap.

     total cpu time spent up to now is       47.4 secs

     total energy              =   -1550.89461300 Ry
     estimated scf accuracy    <       1.00481899 Ry

     iteration # 40     ecut=    30.00 Ry     beta= 0.70
     Davidson diagonalization with overlap

---- Real-time Memory Report at c_bands before calling an iterative solver
           704 MiB given to the printing process from OS
             0 MiB allocation reported by mallinfo(arena+hblkhd)
         81330 MiB available memory on the node where the printing process lives
------------------
     ethr =  2.98E-04,  avg # of iterations =  1.0

     total cpu time spent up to now is       48.3 secs

     total energy              =   -1550.89076433 Ry
     estimated scf accuracy    <       1.02334834 Ry

     iteration # 41     ecut=    30.00 Ry     beta= 0.70
     Davidson diagonalization with overlap

---- Real-time Memory Report at c_bands before calling an iterative solver
           704 MiB given to the printing process from OS
             0 MiB allocation reported by mallinfo(arena+hblkhd)
         81330 MiB available memory on the node where the printing process lives
------------------
     ethr =  2.98E-04,  avg # of iterations =  1.0

     total cpu time spent up to now is       49.3 secs

     total energy              =   -1550.89789879 Ry
     estimated scf accuracy    <       0.46522605 Ry

     iteration # 42     ecut=    30.00 Ry     beta= 0.70
     Davidson diagonalization with overlap

---- Real-time Memory Report at c_bands before calling an iterative solver
           704 MiB given to the printing process from OS
             0 MiB allocation reported by mallinfo(arena+hblkhd)
         81100 MiB available memory on the node where the printing process lives
------------------
     ethr =  2.98E-04,  avg # of iterations =  1.0

     total cpu time spent up to now is       50.3 secs

     total energy              =   -1550.69017985 Ry
     estimated scf accuracy    <      45.05844606 Ry

     iteration # 43     ecut=    30.00 Ry     beta= 0.70
     Davidson diagonalization with overlap

---- Real-time Memory Report at c_bands before calling an iterative solver
           704 MiB given to the printing process from OS
             0 MiB allocation reported by mallinfo(arena+hblkhd)
         81330 MiB available memory on the node where the printing process lives
------------------
     ethr =  2.98E-04,  avg # of iterations =  2.0

     total cpu time spent up to now is       51.3 secs

     total energy              =   -1550.81893380 Ry
     estimated scf accuracy    <       7.75533326 Ry

     iteration # 44     ecut=    30.00 Ry     beta= 0.70
     Davidson diagonalization with overlap

---- Real-time Memory Report at c_bands before calling an iterative solver
           704 MiB given to the printing process from OS
             0 MiB allocation reported by mallinfo(arena+hblkhd)
         81330 MiB available memory on the node where the printing process lives
------------------
     ethr =  2.98E-04,  avg # of iterations =  1.0

     total cpu time spent up to now is       52.3 secs

     total energy              =   -1550.89186260 Ry
     estimated scf accuracy    <       0.95419751 Ry

     iteration # 45     ecut=    30.00 Ry     beta= 0.70
     Davidson diagonalization with overlap

---- Real-time Memory Report at c_bands before calling an iterative solver
           704 MiB given to the printing process from OS
             0 MiB allocation reported by mallinfo(arena+hblkhd)
         81331 MiB available memory on the node where the printing process lives
------------------
     ethr =  2.98E-04,  avg # of iterations =  1.0

     total cpu time spent up to now is       53.3 secs

     total energy              =   -1550.89125424 Ry
     estimated scf accuracy    <       0.41614049 Ry

     iteration # 46     ecut=    30.00 Ry     beta= 0.70
     Davidson diagonalization with overlap

---- Real-time Memory Report at c_bands before calling an iterative solver
           704 MiB given to the printing process from OS
             0 MiB allocation reported by mallinfo(arena+hblkhd)
         81503 MiB available memory on the node where the printing process lives
------------------
     ethr =  2.98E-04,  avg # of iterations =  1.0

     total cpu time spent up to now is       54.3 secs

     total energy              =   -1550.89384598 Ry
     estimated scf accuracy    <       0.57572858 Ry

     iteration # 47     ecut=    30.00 Ry     beta= 0.70
     Davidson diagonalization with overlap

---- Real-time Memory Report at c_bands before calling an iterative solver
           704 MiB given to the printing process from OS
             0 MiB allocation reported by mallinfo(arena+hblkhd)
         81560 MiB available memory on the node where the printing process lives
------------------
     ethr =  2.98E-04,  avg # of iterations =  1.0

     total cpu time spent up to now is       55.2 secs

     total energy              =   -1550.89271375 Ry
     estimated scf accuracy    <       0.72765758 Ry

     iteration # 48     ecut=    30.00 Ry     beta= 0.70
     Davidson diagonalization with overlap

---- Real-time Memory Report at c_bands before calling an iterative solver
           704 MiB given to the printing process from OS
             0 MiB allocation reported by mallinfo(arena+hblkhd)
         81562 MiB available memory on the node where the printing process lives
------------------
     ethr =  2.98E-04,  avg # of iterations =  1.0

     total cpu time spent up to now is       56.2 secs

     total energy              =   -1550.89012515 Ry
     estimated scf accuracy    <       1.96564510 Ry

     iteration # 49     ecut=    30.00 Ry     beta= 0.70
     Davidson diagonalization with overlap

---- Real-time Memory Report at c_bands before calling an iterative solver
           704 MiB given to the printing process from OS
             0 MiB allocation reported by mallinfo(arena+hblkhd)
         81562 MiB available memory on the node where the printing process lives
------------------
     ethr =  2.98E-04,  avg # of iterations =  1.0

     total cpu time spent up to now is       57.2 secs

     total energy              =   -1550.88860282 Ry
     estimated scf accuracy    <       0.76035754 Ry

     iteration # 50     ecut=    30.00 Ry     beta= 0.70
     Davidson diagonalization with overlap

---- Real-time Memory Report at c_bands before calling an iterative solver
           704 MiB given to the printing process from OS
             0 MiB allocation reported by mallinfo(arena+hblkhd)
         81562 MiB available memory on the node where the printing process lives
------------------
     ethr =  2.98E-04,  avg # of iterations =  1.0

     total cpu time spent up to now is       58.2 secs

     total energy              =   -1550.88959377 Ry
     estimated scf accuracy    <       0.47341146 Ry

     iteration # 51     ecut=    30.00 Ry     beta= 0.70
     Davidson diagonalization with overlap

---- Real-time Memory Report at c_bands before calling an iterative solver
           704 MiB given to the printing process from OS
             0 MiB allocation reported by mallinfo(arena+hblkhd)
         81562 MiB available memory on the node where the printing process lives
------------------
     ethr =  2.98E-04,  avg # of iterations =  1.0

     total cpu time spent up to now is       59.2 secs

     total energy              =   -1550.88495638 Ry
     estimated scf accuracy    <       0.58910949 Ry

     iteration # 52     ecut=    30.00 Ry     beta= 0.70
     Davidson diagonalization with overlap

---- Real-time Memory Report at c_bands before calling an iterative solver
           704 MiB given to the printing process from OS
             0 MiB allocation reported by mallinfo(arena+hblkhd)
         81562 MiB available memory on the node where the printing process lives
------------------
     ethr =  2.98E-04,  avg # of iterations =  1.0

     total cpu time spent up to now is       60.2 secs

     total energy              =   -1550.73289827 Ry
     estimated scf accuracy    <      48.77812266 Ry

     iteration # 53     ecut=    30.00 Ry     beta= 0.70
     Davidson diagonalization with overlap

---- Real-time Memory Report at c_bands before calling an iterative solver
           704 MiB given to the printing process from OS
             0 MiB allocation reported by mallinfo(arena+hblkhd)
         81563 MiB available memory on the node where the printing process lives
------------------
     ethr =  2.98E-04,  avg # of iterations =  2.0

     total cpu time spent up to now is       61.2 secs

     total energy              =   -1550.84616971 Ry
     estimated scf accuracy    <      10.09016119 Ry

     iteration # 54     ecut=    30.00 Ry     beta= 0.70
     Davidson diagonalization with overlap

---- Real-time Memory Report at c_bands before calling an iterative solver
           704 MiB given to the printing process from OS
             0 MiB allocation reported by mallinfo(arena+hblkhd)
         81562 MiB available memory on the node where the printing process lives
------------------
     ethr =  2.98E-04,  avg # of iterations =  1.0

     total cpu time spent up to now is       62.2 secs

     total energy              =   -1550.88707971 Ry
     estimated scf accuracy    <       1.11575547 Ry

     iteration # 55     ecut=    30.00 Ry     beta= 0.70
     Davidson diagonalization with overlap

---- Real-time Memory Report at c_bands before calling an iterative solver
           704 MiB given to the printing process from OS
             0 MiB allocation reported by mallinfo(arena+hblkhd)
         81562 MiB available memory on the node where the printing process lives
------------------
     ethr =  2.98E-04,  avg # of iterations =  1.0

     total cpu time spent up to now is       63.2 secs

     total energy              =   -1550.88807441 Ry
     estimated scf accuracy    <       0.13832460 Ry

     iteration # 56     ecut=    30.00 Ry     beta= 0.70
     Davidson diagonalization with overlap

---- Real-time Memory Report at c_bands before calling an iterative solver
           704 MiB given to the printing process from OS
             0 MiB allocation reported by mallinfo(arena+hblkhd)
         81562 MiB available memory on the node where the printing process lives
------------------
     ethr =  2.98E-04,  avg # of iterations =  1.0

     total cpu time spent up to now is       64.2 secs

     total energy              =   -1550.88947583 Ry
     estimated scf accuracy    <       0.33872490 Ry

     iteration # 57     ecut=    30.00 Ry     beta= 0.70
     Davidson diagonalization with overlap

---- Real-time Memory Report at c_bands before calling an iterative solver
           704 MiB given to the printing process from OS
             0 MiB allocation reported by mallinfo(arena+hblkhd)
         81562 MiB available memory on the node where the printing process lives
------------------
     ethr =  2.98E-04,  avg # of iterations =  1.0
     Minimization algorithm failed to find Fermi energy: reverting to bisection
     Possible cause: smearing is larger than the electronic band-gap.

     total cpu time spent up to now is       65.1 secs

     total energy              =   -1550.88598934 Ry
     estimated scf accuracy    <       0.40289582 Ry

     iteration # 58     ecut=    30.00 Ry     beta= 0.70
     Davidson diagonalization with overlap

---- Real-time Memory Report at c_bands before calling an iterative solver
           704 MiB given to the printing process from OS
             0 MiB allocation reported by mallinfo(arena+hblkhd)
         81563 MiB available memory on the node where the printing process lives
------------------
     ethr =  2.98E-04,  avg # of iterations =  1.0

     total cpu time spent up to now is       66.1 secs

     total energy              =   -1550.88610523 Ry
     estimated scf accuracy    <       2.59120537 Ry

     iteration # 59     ecut=    30.00 Ry     beta= 0.70
     Davidson diagonalization with overlap

---- Real-time Memory Report at c_bands before calling an iterative solver
           704 MiB given to the printing process from OS
             0 MiB allocation reported by mallinfo(arena+hblkhd)
         81563 MiB available memory on the node where the printing process lives
------------------
     ethr =  2.98E-04,  avg # of iterations =  1.0

     total cpu time spent up to now is       67.5 secs

     total energy              =   -1550.88745042 Ry
     estimated scf accuracy    <       1.23645069 Ry

     iteration # 60     ecut=    30.00 Ry     beta= 0.70
     Davidson diagonalization with overlap

---- Real-time Memory Report at c_bands before calling an iterative solver
           704 MiB given to the printing process from OS
             0 MiB allocation reported by mallinfo(arena+hblkhd)
         81613 MiB available memory on the node where the printing process lives
------------------
     ethr =  2.98E-04,  avg # of iterations =  1.0

     total cpu time spent up to now is       68.8 secs

     total energy              =   -1550.88652452 Ry
     estimated scf accuracy    <       0.80645492 Ry

     iteration # 61     ecut=    30.00 Ry     beta= 0.70
     Davidson diagonalization with overlap

---- Real-time Memory Report at c_bands before calling an iterative solver
           704 MiB given to the printing process from OS
             0 MiB allocation reported by mallinfo(arena+hblkhd)
         81387 MiB available memory on the node where the printing process lives
------------------
     ethr =  2.98E-04,  avg # of iterations =  1.0

     total cpu time spent up to now is       69.8 secs

     total energy              =   -1550.89163335 Ry
     estimated scf accuracy    <       0.35200749 Ry

     iteration # 62     ecut=    30.00 Ry     beta= 0.70
     Davidson diagonalization with overlap

---- Real-time Memory Report at c_bands before calling an iterative solver
           704 MiB given to the printing process from OS
             0 MiB allocation reported by mallinfo(arena+hblkhd)
         81328 MiB available memory on the node where the printing process lives
------------------
     ethr =  2.98E-04,  avg # of iterations =  1.0

     total cpu time spent up to now is       70.8 secs

     total energy              =   -1550.73751617 Ry
     estimated scf accuracy    <      48.09911685 Ry

     iteration # 63     ecut=    30.00 Ry     beta= 0.70
     Davidson diagonalization with overlap

---- Real-time Memory Report at c_bands before calling an iterative solver
           704 MiB given to the printing process from OS
             0 MiB allocation reported by mallinfo(arena+hblkhd)
         81329 MiB available memory on the node where the printing process lives
------------------
     ethr =  2.98E-04,  avg # of iterations =  2.0

     total cpu time spent up to now is       72.6 secs

     total energy              =   -1550.84946497 Ry
     estimated scf accuracy    <      10.80930750 Ry

     iteration # 64     ecut=    30.00 Ry     beta= 0.70
     Davidson diagonalization with overlap

---- Real-time Memory Report at c_bands before calling an iterative solver
           704 MiB given to the printing process from OS
             0 MiB allocation reported by mallinfo(arena+hblkhd)
         81099 MiB available memory on the node where the printing process lives
------------------
     ethr =  2.98E-04,  avg # of iterations =  1.0

     total cpu time spent up to now is       73.6 secs

     total energy              =   -1550.88847417 Ry
     estimated scf accuracy    <       0.98613602 Ry

     iteration # 65     ecut=    30.00 Ry     beta= 0.70
     Davidson diagonalization with overlap

---- Real-time Memory Report at c_bands before calling an iterative solver
           704 MiB given to the printing process from OS
             0 MiB allocation reported by mallinfo(arena+hblkhd)
         81327 MiB available memory on the node where the printing process lives
------------------
     ethr =  2.98E-04,  avg # of iterations =  1.0

     total cpu time spent up to now is       74.6 secs

     total energy              =   -1550.88724796 Ry
     estimated scf accuracy    <       0.25269818 Ry

     iteration # 66     ecut=    30.00 Ry     beta= 0.70
     Davidson diagonalization with overlap

---- Real-time Memory Report at c_bands before calling an iterative solver
           704 MiB given to the printing process from OS
             0 MiB allocation reported by mallinfo(arena+hblkhd)
         81327 MiB available memory on the node where the printing process lives
------------------
     ethr =  2.98E-04,  avg # of iterations =  1.0

     total cpu time spent up to now is       75.6 secs

     total energy              =   -1550.88667027 Ry
     estimated scf accuracy    <       0.26030290 Ry

     iteration # 67     ecut=    30.00 Ry     beta= 0.70
     Davidson diagonalization with overlap

---- Real-time Memory Report at c_bands before calling an iterative solver
           704 MiB given to the printing process from OS
             0 MiB allocation reported by mallinfo(arena+hblkhd)
         81165 MiB available memory on the node where the printing process lives
------------------
     ethr =  2.98E-04,  avg # of iterations =  1.0

     total cpu time spent up to now is       76.6 secs

     total energy              =   -1550.88313497 Ry
     estimated scf accuracy    <       0.28079979 Ry

     iteration # 68     ecut=    30.00 Ry     beta= 0.70
     Davidson diagonalization with overlap

---- Real-time Memory Report at c_bands before calling an iterative solver
           704 MiB given to the printing process from OS
             0 MiB allocation reported by mallinfo(arena+hblkhd)
         81325 MiB available memory on the node where the printing process lives
------------------
     ethr =  2.98E-04,  avg # of iterations =  1.0

     total cpu time spent up to now is       77.6 secs

     total energy              =   -1550.85617727 Ry
     estimated scf accuracy    <       3.17238323 Ry

     iteration # 69     ecut=    30.00 Ry     beta= 0.70
     Davidson diagonalization with overlap

---- Real-time Memory Report at c_bands before calling an iterative solver
           704 MiB given to the printing process from OS
             0 MiB allocation reported by mallinfo(arena+hblkhd)
         81326 MiB available memory on the node where the printing process lives
------------------
     ethr =  2.98E-04,  avg # of iterations =  1.0

     total cpu time spent up to now is       78.6 secs

     total energy              =   -1550.88270921 Ry
     estimated scf accuracy    <       0.72435636 Ry

     iteration # 70     ecut=    30.00 Ry     beta= 0.70
     Davidson diagonalization with overlap

---- Real-time Memory Report at c_bands before calling an iterative solver
           704 MiB given to the printing process from OS
             0 MiB allocation reported by mallinfo(arena+hblkhd)
         81325 MiB available memory on the node where the printing process lives
------------------
     ethr =  2.98E-04,  avg # of iterations =  1.0

     total cpu time spent up to now is       79.6 secs

     total energy              =   -1550.88970896 Ry
     estimated scf accuracy    <       0.75353722 Ry

     iteration # 71     ecut=    30.00 Ry     beta= 0.70
     Davidson diagonalization with overlap

---- Real-time Memory Report at c_bands before calling an iterative solver
           704 MiB given to the printing process from OS
             0 MiB allocation reported by mallinfo(arena+hblkhd)
         81326 MiB available memory on the node where the printing process lives
------------------
     ethr =  2.98E-04,  avg # of iterations =  1.0

     total cpu time spent up to now is       80.6 secs

     total energy              =   -1550.88811115 Ry
     estimated scf accuracy    <       0.73487854 Ry

     iteration # 72     ecut=    30.00 Ry     beta= 0.70
     Davidson diagonalization with overlap

---- Real-time Memory Report at c_bands before calling an iterative solver
           704 MiB given to the printing process from OS
             0 MiB allocation reported by mallinfo(arena+hblkhd)
         81462 MiB available memory on the node where the printing process lives
------------------
     ethr =  2.98E-04,  avg # of iterations =  1.0

     total cpu time spent up to now is       81.6 secs

     total energy              =   -1550.77056814 Ry
     estimated scf accuracy    <      48.74196227 Ry

     iteration # 73     ecut=    30.00 Ry     beta= 0.70
     Davidson diagonalization with overlap

---- Real-time Memory Report at c_bands before calling an iterative solver
           704 MiB given to the printing process from OS
             0 MiB allocation reported by mallinfo(arena+hblkhd)
         81324 MiB available memory on the node where the printing process lives
------------------
     ethr =  2.98E-04,  avg # of iterations =  2.0

     total cpu time spent up to now is       82.6 secs

     total energy              =   -1550.84317436 Ry
     estimated scf accuracy    <      10.42160307 Ry

     iteration # 74     ecut=    30.00 Ry     beta= 0.70
     Davidson diagonalization with overlap

---- Real-time Memory Report at c_bands before calling an iterative solver
           704 MiB given to the printing process from OS
             0 MiB allocation reported by mallinfo(arena+hblkhd)
         81325 MiB available memory on the node where the printing process lives
------------------
     ethr =  2.98E-04,  avg # of iterations =  1.0

     total cpu time spent up to now is       83.6 secs

     total energy              =   -1550.88259147 Ry
     estimated scf accuracy    <       1.20633043 Ry

     iteration # 75     ecut=    30.00 Ry     beta= 0.70
     Davidson diagonalization with overlap

---- Real-time Memory Report at c_bands before calling an iterative solver
           704 MiB given to the printing process from OS
             0 MiB allocation reported by mallinfo(arena+hblkhd)
         81324 MiB available memory on the node where the printing process lives
------------------
     ethr =  2.98E-04,  avg # of iterations =  1.0

     total cpu time spent up to now is       84.6 secs

     total energy              =   -1550.88656934 Ry
     estimated scf accuracy    <       0.20584199 Ry

     iteration # 76     ecut=    30.00 Ry     beta= 0.70
     Davidson diagonalization with overlap

---- Real-time Memory Report at c_bands before calling an iterative solver
           704 MiB given to the printing process from OS
             0 MiB allocation reported by mallinfo(arena+hblkhd)
         81840 MiB available memory on the node where the printing process lives
------------------
     ethr =  2.98E-04,  avg # of iterations =  1.0

     total cpu time spent up to now is       85.6 secs

     total energy              =   -1550.88688776 Ry
     estimated scf accuracy    <       0.08429726 Ry

     iteration # 77     ecut=    30.00 Ry     beta= 0.70
     Davidson diagonalization with overlap

---- Real-time Memory Report at c_bands before calling an iterative solver
           704 MiB given to the printing process from OS
             0 MiB allocation reported by mallinfo(arena+hblkhd)
         81725 MiB available memory on the node where the printing process lives
------------------
     ethr =  2.06E-04,  avg # of iterations =  1.0

     total cpu time spent up to now is       86.6 secs

     total energy              =   -1550.88386758 Ry
     estimated scf accuracy    <       0.40384281 Ry

     iteration # 78     ecut=    30.00 Ry     beta= 0.70
     Davidson diagonalization with overlap

---- Real-time Memory Report at c_bands before calling an iterative solver
           704 MiB given to the printing process from OS
             0 MiB allocation reported by mallinfo(arena+hblkhd)
         81726 MiB available memory on the node where the printing process lives
------------------
     ethr =  2.06E-04,  avg # of iterations =  1.0

     total cpu time spent up to now is       87.6 secs

     total energy              =   -1550.85756292 Ry
     estimated scf accuracy    <       5.76338052 Ry

     iteration # 79     ecut=    30.00 Ry     beta= 0.70
     Davidson diagonalization with overlap

---- Real-time Memory Report at c_bands before calling an iterative solver
           704 MiB given to the printing process from OS
             0 MiB allocation reported by mallinfo(arena+hblkhd)
         81496 MiB available memory on the node where the printing process lives
------------------
     ethr =  2.06E-04,  avg # of iterations =  1.0

     total cpu time spent up to now is       88.6 secs

     total energy              =   -1550.88708877 Ry
     estimated scf accuracy    <       0.36532241 Ry

     iteration # 80     ecut=    30.00 Ry     beta= 0.70
     Davidson diagonalization with overlap

---- Real-time Memory Report at c_bands before calling an iterative solver
           704 MiB given to the printing process from OS
             0 MiB allocation reported by mallinfo(arena+hblkhd)
         81552 MiB available memory on the node where the printing process lives
------------------
     ethr =  2.06E-04,  avg # of iterations =  1.0

     total cpu time spent up to now is       89.7 secs

     total energy              =   -1550.88394492 Ry
     estimated scf accuracy    <       0.53138186 Ry

     iteration # 81     ecut=    30.00 Ry     beta= 0.70
     Davidson diagonalization with overlap

---- Real-time Memory Report at c_bands before calling an iterative solver
           704 MiB given to the printing process from OS
             0 MiB allocation reported by mallinfo(arena+hblkhd)
         81552 MiB available memory on the node where the printing process lives
------------------
     ethr =  2.06E-04,  avg # of iterations =  1.0

     total cpu time spent up to now is       91.7 secs

     total energy              =   -1550.88605829 Ry
     estimated scf accuracy    <       0.30569779 Ry

     iteration # 82     ecut=    30.00 Ry     beta= 0.70
     Davidson diagonalization with overlap

---- Real-time Memory Report at c_bands before calling an iterative solver
           704 MiB given to the printing process from OS
             0 MiB allocation reported by mallinfo(arena+hblkhd)
         81552 MiB available memory on the node where the printing process lives
------------------
     ethr =  2.06E-04,  avg # of iterations =  1.0

     total cpu time spent up to now is       93.7 secs

     total energy              =   -1550.85972216 Ry
     estimated scf accuracy    <       1.99453800 Ry

     iteration # 83     ecut=    30.00 Ry     beta= 0.70
     Davidson diagonalization with overlap

---- Real-time Memory Report at c_bands before calling an iterative solver
           704 MiB given to the printing process from OS
             0 MiB allocation reported by mallinfo(arena+hblkhd)
         81552 MiB available memory on the node where the printing process lives
------------------
     ethr =  2.06E-04,  avg # of iterations =  1.0

     total cpu time spent up to now is       94.7 secs

     total energy              =   -1550.85285958 Ry
     estimated scf accuracy    <      10.33608397 Ry

     iteration # 84     ecut=    30.00 Ry     beta= 0.70
     Davidson diagonalization with overlap

---- Real-time Memory Report at c_bands before calling an iterative solver
           704 MiB given to the printing process from OS
             0 MiB allocation reported by mallinfo(arena+hblkhd)
         81553 MiB available memory on the node where the printing process lives
------------------
     ethr =  2.06E-04,  avg # of iterations =  1.0

     total cpu time spent up to now is       95.7 secs

     total energy              =   -1550.88627428 Ry
     estimated scf accuracy    <       1.38809598 Ry

     iteration # 85     ecut=    30.00 Ry     beta= 0.70
     Davidson diagonalization with overlap

---- Real-time Memory Report at c_bands before calling an iterative solver
           704 MiB given to the printing process from OS
             0 MiB allocation reported by mallinfo(arena+hblkhd)
         81552 MiB available memory on the node where the printing process lives
------------------
     ethr =  2.06E-04,  avg # of iterations =  1.0

     total cpu time spent up to now is       96.7 secs

     total energy              =   -1550.88751816 Ry
     estimated scf accuracy    <       0.74576341 Ry

     iteration # 86     ecut=    30.00 Ry     beta= 0.70
     Davidson diagonalization with overlap

---- Real-time Memory Report at c_bands before calling an iterative solver
           704 MiB given to the printing process from OS
             0 MiB allocation reported by mallinfo(arena+hblkhd)
         81552 MiB available memory on the node where the printing process lives
------------------
     ethr =  2.06E-04,  avg # of iterations =  1.0

     total cpu time spent up to now is       97.7 secs

     total energy              =   -1550.88851889 Ry
     estimated scf accuracy    <       0.13608942 Ry

     iteration # 87     ecut=    30.00 Ry     beta= 0.70
     Davidson diagonalization with overlap

---- Real-time Memory Report at c_bands before calling an iterative solver
           704 MiB given to the printing process from OS
             0 MiB allocation reported by mallinfo(arena+hblkhd)
         81552 MiB available memory on the node where the printing process lives
------------------
     ethr =  2.06E-04,  avg # of iterations =  1.0

     total cpu time spent up to now is       98.7 secs

     total energy              =   -1550.87502789 Ry
     estimated scf accuracy    <       0.81345270 Ry

     iteration # 88     ecut=    30.00 Ry     beta= 0.70
     Davidson diagonalization with overlap

---- Real-time Memory Report at c_bands before calling an iterative solver
           704 MiB given to the printing process from OS
             0 MiB allocation reported by mallinfo(arena+hblkhd)
         81552 MiB available memory on the node where the printing process lives
------------------
     ethr =  2.06E-04,  avg # of iterations =  1.0

     total cpu time spent up to now is       99.7 secs

     total energy              =   -1550.84782960 Ry
     estimated scf accuracy    <      24.51327337 Ry

     iteration # 89     ecut=    30.00 Ry     beta= 0.70
     Davidson diagonalization with overlap

---- Real-time Memory Report at c_bands before calling an iterative solver
           704 MiB given to the printing process from OS
             0 MiB allocation reported by mallinfo(arena+hblkhd)
         81554 MiB available memory on the node where the printing process lives
------------------
     ethr =  2.06E-04,  avg # of iterations =  1.0

     total cpu time spent up to now is      100.7 secs

     total energy              =   -1550.88422601 Ry
     estimated scf accuracy    <       0.58874560 Ry

     iteration # 90     ecut=    30.00 Ry     beta= 0.70
     Davidson diagonalization with overlap

---- Real-time Memory Report at c_bands before calling an iterative solver
           704 MiB given to the printing process from OS
             0 MiB allocation reported by mallinfo(arena+hblkhd)
         81554 MiB available memory on the node where the printing process lives
------------------
     ethr =  2.06E-04,  avg # of iterations =  1.0

     total cpu time spent up to now is      101.7 secs

     total energy              =   -1550.88176821 Ry
     estimated scf accuracy    <       0.52736977 Ry

     iteration # 91     ecut=    30.00 Ry     beta= 0.70
     Davidson diagonalization with overlap

---- Real-time Memory Report at c_bands before calling an iterative solver
           704 MiB given to the printing process from OS
             0 MiB allocation reported by mallinfo(arena+hblkhd)
         81324 MiB available memory on the node where the printing process lives
------------------
     ethr =  2.06E-04,  avg # of iterations =  1.0

     total cpu time spent up to now is      102.6 secs

     total energy              =   -1550.88473944 Ry
     estimated scf accuracy    <       0.72358463 Ry

     iteration # 92     ecut=    30.00 Ry     beta= 0.70
     Davidson diagonalization with overlap

---- Real-time Memory Report at c_bands before calling an iterative solver
           704 MiB given to the printing process from OS
             0 MiB allocation reported by mallinfo(arena+hblkhd)
         81324 MiB available memory on the node where the printing process lives
------------------
     ethr =  2.06E-04,  avg # of iterations =  1.0

     total cpu time spent up to now is      103.7 secs

     total energy              =   -1550.84657829 Ry
     estimated scf accuracy    <      13.41144457 Ry

     iteration # 93     ecut=    30.00 Ry     beta= 0.70
     Davidson diagonalization with overlap

---- Real-time Memory Report at c_bands before calling an iterative solver
           704 MiB given to the printing process from OS
             0 MiB allocation reported by mallinfo(arena+hblkhd)
         81383 MiB available memory on the node where the printing process lives
------------------
     ethr =  2.06E-04,  avg # of iterations =  1.0

     total cpu time spent up to now is      104.6 secs

     total energy              =   -1550.88471786 Ry
     estimated scf accuracy    <       0.11044722 Ry

     iteration # 94     ecut=    30.00 Ry     beta= 0.70
     Davidson diagonalization with overlap

---- Real-time Memory Report at c_bands before calling an iterative solver
           704 MiB given to the printing process from OS
             0 MiB allocation reported by mallinfo(arena+hblkhd)
         81324 MiB available memory on the node where the printing process lives
------------------
     ethr =  2.06E-04,  avg # of iterations =  1.0

     total cpu time spent up to now is      105.6 secs

     total energy              =   -1550.88359515 Ry
     estimated scf accuracy    <       1.14591905 Ry

     iteration # 95     ecut=    30.00 Ry     beta= 0.70
     Davidson diagonalization with overlap

---- Real-time Memory Report at c_bands before calling an iterative solver
           704 MiB given to the printing process from OS
             0 MiB allocation reported by mallinfo(arena+hblkhd)
         81325 MiB available memory on the node where the printing process lives
------------------
     ethr =  2.06E-04,  avg # of iterations =  1.0

     total cpu time spent up to now is      106.6 secs

     total energy              =   -1550.88952177 Ry
     estimated scf accuracy    <       0.75688691 Ry

     iteration # 96     ecut=    30.00 Ry     beta= 0.70
     Davidson diagonalization with overlap

---- Real-time Memory Report at c_bands before calling an iterative solver
           704 MiB given to the printing process from OS
             0 MiB allocation reported by mallinfo(arena+hblkhd)
         81096 MiB available memory on the node where the printing process lives
------------------
     ethr =  2.06E-04,  avg # of iterations =  1.0

     total cpu time spent up to now is      107.6 secs

     total energy              =   -1550.88711381 Ry
     estimated scf accuracy    <       0.56228474 Ry

     iteration # 97     ecut=    30.00 Ry     beta= 0.70
     Davidson diagonalization with overlap

---- Real-time Memory Report at c_bands before calling an iterative solver
           704 MiB given to the printing process from OS
             0 MiB allocation reported by mallinfo(arena+hblkhd)
         81326 MiB available memory on the node where the printing process lives
------------------
     ethr =  2.06E-04,  avg # of iterations =  1.0
     Minimization algorithm failed to find Fermi energy: reverting to bisection
     Possible cause: smearing is larger than the electronic band-gap.

     total cpu time spent up to now is      108.6 secs

     total energy              =   -1550.87726247 Ry
     estimated scf accuracy    <       0.47573118 Ry

     iteration # 98     ecut=    30.00 Ry     beta= 0.70
     Davidson diagonalization with overlap

---- Real-time Memory Report at c_bands before calling an iterative solver
           704 MiB given to the printing process from OS
             0 MiB allocation reported by mallinfo(arena+hblkhd)
         81326 MiB available memory on the node where the printing process lives
------------------
     ethr =  2.06E-04,  avg # of iterations =  1.0

     total cpu time spent up to now is      109.5 secs

     total energy              =   -1550.85018461 Ry
     estimated scf accuracy    <      14.58275954 Ry

     iteration # 99     ecut=    30.00 Ry     beta= 0.70
     Davidson diagonalization with overlap

---- Real-time Memory Report at c_bands before calling an iterative solver
           704 MiB given to the printing process from OS
             0 MiB allocation reported by mallinfo(arena+hblkhd)
         81328 MiB available memory on the node where the printing process lives
------------------
     ethr =  2.06E-04,  avg # of iterations =  1.0

     total cpu time spent up to now is      110.5 secs

     total energy              =   -1550.88850423 Ry
     estimated scf accuracy    <       0.61133546 Ry

     iteration #100     ecut=    30.00 Ry     beta= 0.70
     Davidson diagonalization with overlap

---- Real-time Memory Report at c_bands before calling an iterative solver
           704 MiB given to the printing process from OS
             0 MiB allocation reported by mallinfo(arena+hblkhd)
         81098 MiB available memory on the node where the printing process lives
------------------
     ethr =  2.06E-04,  avg # of iterations =  1.0

     total cpu time spent up to now is      111.5 secs

     total energy              =   -1550.88248702 Ry
     estimated scf accuracy    <       0.36481419 Ry

     End of self-consistent calculation

     convergence NOT achieved after 100 iterations: stopping

     Writing config to output data dir new_calculations/myprefix.save/
     Message from routine punch:
     wavefunctions written to file
 
     init_run     :    176.00s CPU      7.39s WALL (       1 calls)
     electrons    :   3132.70s CPU    103.84s WALL (       1 calls)

     Called by init_run:
     wfcinit      :     61.84s CPU      2.07s WALL (       1 calls)
     wfcinit:atom :      0.08s CPU      0.00s WALL (       1 calls)
     wfcinit:wfcr :     61.63s CPU      2.06s WALL (       1 calls)
     potinit      :     45.64s CPU      1.56s WALL (       1 calls)
     hinit0       :     53.05s CPU      3.16s WALL (       1 calls)

     Called by electrons:
     c_bands      :    433.84s CPU     13.86s WALL (     100 calls)
     sum_band     :    523.42s CPU     17.51s WALL (     100 calls)
     v_of_rho     :     47.02s CPU      1.57s WALL (     101 calls)
     v_h          :      3.83s CPU      0.13s WALL (     101 calls)
     v_xc         :     42.94s CPU      1.43s WALL (     101 calls)
     newd         :    469.98s CPU     15.72s WALL (     101 calls)
     PAW_pot      :   1649.14s CPU     54.88s WALL (     101 calls)
     mix_rho      :     14.81s CPU      0.49s WALL (     100 calls)

     Called by c_bands:
     init_us_2    :      2.21s CPU      0.08s WALL (     201 calls)
     init_us_2:cp :      1.87s CPU      0.07s WALL (     201 calls)
     regterg      :    422.88s CPU     13.50s WALL (     100 calls)

     Called by sum_band:
     sum_band:wei :      0.53s CPU      0.02s WALL (     100 calls)
     sum_band:loo :     97.70s CPU      3.11s WALL (     100 calls)
     sum_band:buf :      0.09s CPU      0.00s WALL (     100 calls)
     sum_band:ini :      1.20s CPU      0.04s WALL (     100 calls)
     sum_band:cal :      1.19s CPU      0.04s WALL (     100 calls)
     sum_band:bec :      0.22s CPU      0.01s WALL (     100 calls)
     addusdens    :    414.62s CPU     14.02s WALL (     100 calls)
     addusd:skk   :      0.64s CPU      0.02s WALL (     300 calls)
     addusd:dgemm :     26.39s CPU      1.30s WALL (     300 calls)
     addusd:qvan2 :    377.63s CPU     12.17s WALL (     300 calls)

     Called by *egterg:
     rdiaghg      :      5.94s CPU      0.20s WALL (     258 calls)
     regterg:over :      1.89s CPU      0.06s WALL (     158 calls)
     regterg:upda :      0.87s CPU      0.03s WALL (     158 calls)
     regterg:last :      0.93s CPU      0.03s WALL (     121 calls)
     h_psi        :    468.94s CPU     15.04s WALL (     259 calls)
     s_psi        :      0.36s CPU      0.01s WALL (     259 calls)
     g_psi        :      0.17s CPU      0.01s WALL (     158 calls)

     Called by h_psi:
     h_psi:calbec :      2.03s CPU      0.07s WALL (     259 calls)
     vloc_psi     :    464.91s CPU     14.90s WALL (     259 calls)
     add_vuspsi   :      0.68s CPU      0.02s WALL (     259 calls)

     General routines
     calbec       :      2.71s CPU      0.09s WALL (     359 calls)
     fft          :     49.96s CPU      1.71s WALL (    1111 calls)
     ffts         :     26.83s CPU      0.90s WALL (     201 calls)
     fftw         :    520.76s CPU     16.64s WALL (    6874 calls)
     interpolate  :     30.38s CPU      1.02s WALL (     101 calls)
     davcio       :      0.23s CPU      0.03s WALL (      19 calls)
 
     Parallel routines

     PAW routines
     PAW_pot      :   1649.14s CPU     54.88s WALL (     101 calls)
     PAW_symme    :      5.65s CPU      0.19s WALL (     201 calls)
 
     PWSCF        :  55m 9.23s CPU   1m51.79s WALL

 
   This run was terminated on:  11:55:19  21May2023            

=------------------------------------------------------------------------------=
   JOB DONE.
=------------------------------------------------------------------------------=
