
     Program PWSCF v.7.0 starts on 20May2023 at 22:29:33 

     This program is part of the open-source Quantum ESPRESSO suite
     for quantum simulation of materials; please cite
         "P. Giannozzi et al., J. Phys.:Condens. Matter 21 395502 (2009);
         "P. Giannozzi et al., J. Phys.:Condens. Matter 29 465901 (2017);
         "P. Giannozzi et al., J. Chem. Phys. 152 154105 (2020);
          URL http://www.quantum-espresso.org", 
     in publications or presentations arising from this work. More details at
     http://www.quantum-espresso.org/quote

     Parallel version (MPI & OpenMP), running on      32 processor cores
     Number of MPI processes:                 1
     Threads/MPI process:                    32

     MPI processes distributed on     1 nodes
     136285 MiB available memory on the printing compute node when the environment starts
 
     Reading input from espresso_5728.pwi
Warning: card &CELL ignored
Warning: card / ignored

     Current dimensions of program PWSCF are:
     Max number of different atomic species (ntypx) = 10
     Max number of k-points (npk) =  40000
     Max angular momentum in pseudopotentials (lmaxx) =  4
     file C.pbe-n-kjpaw_psl.1.0.0.UPF: wavefunction(s)  2S 2P renormalized

     gamma-point specific algorithms are used
     Message from routine setup:
     using ibrav=0 with symmetry is DISCOURAGED, use correct ibrav instead

     Subspace diagonalization in iterative solution of the eigenvalue problem:
     a serial algorithm will be used

 
     G-vector sticks info
     --------------------
     sticks:   dense  smooth     PW     G-vecs:    dense   smooth      PW
     Sum         871     433    109                81723    28995    3625
 
     Using Slab Decomposition
 


     bravais-lattice index     =            0
     lattice parameter (alat)  =       7.2746  a.u.
     unit-cell volume          =    1303.9240 (a.u.)^3
     number of atoms/cell      =            8
     number of atomic types    =            3
     number of electrons       =        74.00
     number of Kohn-Sham states=           44
     kinetic-energy cutoff     =      30.0000  Ry
     charge density cutoff     =     240.0000  Ry
     scf convergence threshold =      1.0E-06
     mixing beta               =       0.7000
     number of iterations used =            8  plain     mixing
     Exchange-correlation=  SLA  PW   PBX  PBC
                           (   1   4   3   4   0   0   0)

     celldm(1)=   7.274592  celldm(2)=   0.000000  celldm(3)=   0.000000
     celldm(4)=   0.000000  celldm(5)=   0.000000  celldm(6)=   0.000000

     crystal axes: (cart. coord. in units of alat)
               a(1) = (   1.000000   0.000000   0.000000 )  
               a(2) = (  -0.500000   0.866025   0.000000 )  
               a(3) = (   0.000000   0.000000   3.911071 )  

     reciprocal axes: (cart. coord. in units 2 pi/alat)
               b(1) = (  1.000000  0.577350  0.000000 )  
               b(2) = (  0.000000  1.154701  0.000000 )  
               b(3) = (  0.000000  0.000000  0.255684 )  


     PseudoPot. # 1 for Pr read from file:
     /home/pragov/projects/rrg-bengioy-ad/pragov/crystal_structure_design/SSSP/Pr.GGA-PBE-paw-v1.0.UPF
     MD5 check sum: b5e1e58e76df433569641143f671cc27
     Pseudo is Projector augmented-wave + core cor, Zval = 13.0
     Generated using ATOMPAW code
     Shape of augmentation charge: BESSEL
     Using radial grid of 1103 points,  8 beta functions with: 
                l(1) =   0
                l(2) =   0
                l(3) =   1
                l(4) =   1
                l(5) =   2
                l(6) =   2
                l(7) =   3
                l(8) =   3
     Q(r) pseudized with 0 coefficients 


     PseudoPot. # 2 for C  read from file:
     /home/pragov/projects/rrg-bengioy-ad/pragov/crystal_structure_design/SSSP/C.pbe-n-kjpaw_psl.1.0.0.UPF
     MD5 check sum: 5d2aebdfa2cae82b50a7e79e9516da0f
     Pseudo is Projector augmented-wave + core cor, Zval =  4.0
     Generated using "atomic" code by A. Dal Corso  v.5.1
     Shape of augmentation charge: PSQ
     Using radial grid of 1073 points,  4 beta functions with: 
                l(1) =   0
                l(2) =   0
                l(3) =   1
                l(4) =   1
     Q(r) pseudized with 0 coefficients 


     PseudoPot. # 3 for Br read from file:
     /home/pragov/projects/rrg-bengioy-ad/pragov/crystal_structure_design/SSSP/br_pbe_v1.4.uspp.F.UPF
     MD5 check sum: d3ffb7b29f6225aa16fe06858fb2a80b
     Pseudo is Ultrasoft + core correction, Zval =  7.0
     Generated by new atomic code, or converted to UPF format
     Using radial grid of  879 points,  6 beta functions with: 
                l(1) =   0
                l(2) =   0
                l(3) =   1
                l(4) =   1
                l(5) =   2
                l(6) =   2
     Q(r) pseudized with  8 coefficients,  rinner =    1.100   1.100   1.100
                                                       1.100   1.100

     atomic species   valence    mass     pseudopotential
        Pr            13.00   140.90766     Pr( 1.00)
        C              4.00    12.01100     C ( 1.00)
        Br             7.00    79.90400     Br( 1.00)

     24 Sym. Ops., with inversion, found (12 have fractional translation)


                                    s                        frac. trans.

      isym =  1     identity                                     

 cryst.   s( 1) = (     1          0          0      )
                  (     0          1          0      )
                  (     0          0          1      )

 cart.    s( 1) = (  1.0000000  0.0000000  0.0000000 )
                  (  0.0000000  1.0000000  0.0000000 )
                  (  0.0000000  0.0000000  1.0000000 )


      isym =  2     180 deg rotation - cart. axis [0,0,1]        

 cryst.   s( 2) = (    -1          0          0      )    f =(  0.0000000 )
                  (     0         -1          0      )       (  0.0000000 )
                  (     0          0          1      )       (  0.5000000 )

 cart.    s( 2) = ( -1.0000000 -0.0000000  0.0000000 )    f =(  0.0000000 )
                  (  0.0000000 -1.0000000  0.0000000 )       (  0.0000000 )
                  (  0.0000000  0.0000000  1.0000000 )       (  1.9555354 )


      isym =  3     180 deg rotation - cart. axis [0,1,0]        

 cryst.   s( 3) = (    -1          0          0      )    f =(  0.0000010 )
                  (     1          1          0      )       (  0.0000000 )
                  (     0          0         -1      )       ( -0.5000000 )

 cart.    s( 3) = ( -1.0000000 -0.0000003  0.0000000 )    f =(  0.0000010 )
                  (  0.0000000  1.0000000  0.0000000 )       (  0.0000000 )
                  (  0.0000000  0.0000000 -1.0000000 )       ( -1.9555354 )


      isym =  4     180 deg rotation - cart. axis [1,0,0]        

 cryst.   s( 4) = (     1          0          0      )
                  (    -1         -1          0      )
                  (     0          0         -1      )

 cart.    s( 4) = (  1.0000000  0.0000003  0.0000000 )
                  (  0.0000000 -1.0000000  0.0000000 )
                  (  0.0000000  0.0000000 -1.0000000 )


      isym =  5      60 deg rotation - cryst. axis [0,0,1]       

 cryst.   s( 5) = (     1          1          0      )    f =(  0.0000010 )
                  (    -1          0          0      )       ( -0.0000000 )
                  (     0          0          1      )       (  0.5000000 )

 cart.    s( 5) = (  0.4999999 -0.8660255  0.0000000 )    f =(  0.0000010 )
                  (  0.8660253  0.5000001  0.0000000 )       ( -0.0000000 )
                  (  0.0000000  0.0000000  1.0000000 )       (  1.9555354 )


      isym =  6      60 deg rotation - cryst. axis [0,0,-1]      

 cryst.   s( 6) = (     0         -1          0      )    f =( -0.0000000 )
                  (     1          1          0      )       ( -0.0000010 )
                  (     0          0          1      )       (  0.5000000 )

 cart.    s( 6) = (  0.5000001  0.8660255  0.0000000 )    f =(  0.0000005 )
                  ( -0.8660253  0.4999999  0.0000000 )       ( -0.0000009 )
                  (  0.0000000  0.0000000  1.0000000 )       (  1.9555354 )


      isym =  7     120 deg rotation - cryst. axis [0,0,1]       

 cryst.   s( 7) = (     0          1          0      )
                  (    -1         -1          0      )
                  (     0          0          1      )

 cart.    s( 7) = ( -0.5000001 -0.8660255  0.0000000 )
                  (  0.8660253 -0.4999999  0.0000000 )
                  (  0.0000000  0.0000000  1.0000000 )


      isym =  8     120 deg rotation - cryst. axis [0,0,-1]      

 cryst.   s( 8) = (    -1         -1          0      )
                  (     1          0          0      )
                  (     0          0          1      )

 cart.    s( 8) = ( -0.4999999  0.8660255  0.0000000 )
                  ( -0.8660253 -0.5000001  0.0000000 )
                  (  0.0000000  0.0000000  1.0000000 )


      isym =  9     180 deg rotation - cryst. axis [1,-1,0]      

 cryst.   s( 9) = (     0         -1          0      )    f =(  0.0000000 )
                  (    -1          0          0      )       (  0.0000000 )
                  (     0          0         -1      )       ( -0.5000000 )

 cart.    s( 9) = (  0.5000001 -0.8660253  0.0000000 )    f =(  0.0000000 )
                  ( -0.8660253 -0.5000001  0.0000000 )       (  0.0000000 )
                  (  0.0000000  0.0000000 -1.0000000 )       ( -1.9555354 )


      isym = 10     180 deg rotation - cryst. axis [2,1,0]       

 cryst.   s(10) = (     1          1          0      )    f =(  0.0000000 )
                  (     0         -1          0      )       ( -0.0000010 )
                  (     0          0         -1      )       ( -0.5000000 )

 cart.    s(10) = (  0.4999999  0.8660257  0.0000000 )    f =(  0.0000005 )
                  (  0.8660253 -0.4999999  0.0000000 )       ( -0.0000009 )
                  (  0.0000000  0.0000000 -1.0000000 )       ( -1.9555354 )


      isym = 11     180 deg rotation - cryst. axis [0,1,0]       

 cryst.   s(11) = (    -1         -1          0      )
                  (     0          1          0      )
                  (     0          0         -1      )

 cart.    s(11) = ( -0.4999999 -0.8660257  0.0000000 )
                  ( -0.8660253  0.4999999  0.0000000 )
                  (  0.0000000  0.0000000 -1.0000000 )


      isym = 12     180 deg rotation - cryst. axis [1,1,0]       

 cryst.   s(12) = (     0          1          0      )
                  (     1          0          0      )
                  (     0          0         -1      )

 cart.    s(12) = ( -0.5000001  0.8660253  0.0000000 )
                  (  0.8660253  0.5000001  0.0000000 )
                  (  0.0000000  0.0000000 -1.0000000 )


      isym = 13     inversion                                    

 cryst.   s(13) = (    -1          0          0      )
                  (     0         -1          0      )
                  (     0          0         -1      )

 cart.    s(13) = ( -1.0000000 -0.0000000  0.0000000 )
                  (  0.0000000 -1.0000000  0.0000000 )
                  (  0.0000000  0.0000000 -1.0000000 )


      isym = 14     inv. 180 deg rotation - cart. axis [0,0,1]   

 cryst.   s(14) = (     1          0          0      )    f =(  0.0000000 )
                  (     0          1          0      )       (  0.0000000 )
                  (     0          0         -1      )       ( -0.5000000 )

 cart.    s(14) = (  1.0000000  0.0000000  0.0000000 )    f =(  0.0000000 )
                  (  0.0000000  1.0000000  0.0000000 )       (  0.0000000 )
                  (  0.0000000  0.0000000 -1.0000000 )       ( -1.9555354 )


      isym = 15     inv. 180 deg rotation - cart. axis [0,1,0]   

 cryst.   s(15) = (     1          0          0      )    f =(  0.0000010 )
                  (    -1         -1          0      )       (  0.0000000 )
                  (     0          0          1      )       (  0.5000000 )

 cart.    s(15) = (  1.0000000  0.0000003  0.0000000 )    f =(  0.0000010 )
                  (  0.0000000 -1.0000000  0.0000000 )       (  0.0000000 )
                  (  0.0000000  0.0000000  1.0000000 )       (  1.9555354 )


      isym = 16     inv. 180 deg rotation - cart. axis [1,0,0]   

 cryst.   s(16) = (    -1          0          0      )
                  (     1          1          0      )
                  (     0          0          1      )

 cart.    s(16) = ( -1.0000000 -0.0000003  0.0000000 )
                  (  0.0000000  1.0000000  0.0000000 )
                  (  0.0000000  0.0000000  1.0000000 )


      isym = 17     inv.  60 deg rotation - cryst. axis [0,0,1]  

 cryst.   s(17) = (    -1         -1          0      )    f =(  0.0000010 )
                  (     1          0          0      )       (  0.0000000 )
                  (     0          0         -1      )       ( -0.5000000 )

 cart.    s(17) = ( -0.4999999  0.8660255  0.0000000 )    f =(  0.0000010 )
                  ( -0.8660253 -0.5000001  0.0000000 )       (  0.0000000 )
                  (  0.0000000  0.0000000 -1.0000000 )       ( -1.9555354 )


      isym = 18     inv.  60 deg rotation - cryst. axis [0,0,-1] 

 cryst.   s(18) = (     0          1          0      )    f =(  0.0000000 )
                  (    -1         -1          0      )       ( -0.0000010 )
                  (     0          0         -1      )       ( -0.5000000 )

 cart.    s(18) = ( -0.5000001 -0.8660255  0.0000000 )    f =(  0.0000005 )
                  (  0.8660253 -0.4999999  0.0000000 )       ( -0.0000009 )
                  (  0.0000000  0.0000000 -1.0000000 )       ( -1.9555354 )


      isym = 19     inv. 120 deg rotation - cryst. axis [0,0,1]  

 cryst.   s(19) = (     0         -1          0      )
                  (     1          1          0      )
                  (     0          0         -1      )

 cart.    s(19) = (  0.5000001  0.8660255  0.0000000 )
                  ( -0.8660253  0.4999999  0.0000000 )
                  (  0.0000000  0.0000000 -1.0000000 )


      isym = 20     inv. 120 deg rotation - cryst. axis [0,0,-1] 

 cryst.   s(20) = (     1          1          0      )
                  (    -1          0          0      )
                  (     0          0         -1      )

 cart.    s(20) = (  0.4999999 -0.8660255  0.0000000 )
                  (  0.8660253  0.5000001  0.0000000 )
                  (  0.0000000  0.0000000 -1.0000000 )


      isym = 21     inv. 180 deg rotation - cryst. axis [1,-1,0] 

 cryst.   s(21) = (     0          1          0      )    f =( -0.0000000 )
                  (     1          0          0      )       ( -0.0000000 )
                  (     0          0          1      )       (  0.5000000 )

 cart.    s(21) = ( -0.5000001  0.8660253  0.0000000 )    f =(  0.0000000 )
                  (  0.8660253  0.5000001  0.0000000 )       ( -0.0000000 )
                  (  0.0000000  0.0000000  1.0000000 )       (  1.9555354 )


      isym = 22     inv. 180 deg rotation - cryst. axis [2,1,0]  

 cryst.   s(22) = (    -1         -1          0      )    f =(  0.0000000 )
                  (     0          1          0      )       ( -0.0000010 )
                  (     0          0          1      )       (  0.5000000 )

 cart.    s(22) = ( -0.4999999 -0.8660257  0.0000000 )    f =(  0.0000005 )
                  ( -0.8660253  0.4999999  0.0000000 )       ( -0.0000009 )
                  (  0.0000000  0.0000000  1.0000000 )       (  1.9555354 )


      isym = 23     inv. 180 deg rotation - cryst. axis [0,1,0]  

 cryst.   s(23) = (     1          1          0      )
                  (     0         -1          0      )
                  (     0          0          1      )

 cart.    s(23) = (  0.4999999  0.8660257  0.0000000 )
                  (  0.8660253 -0.4999999  0.0000000 )
                  (  0.0000000  0.0000000  1.0000000 )


      isym = 24     inv. 180 deg rotation - cryst. axis [1,1,0]  

 cryst.   s(24) = (     0         -1          0      )
                  (    -1          0          0      )
                  (     0          0          1      )

 cart.    s(24) = (  0.5000001 -0.8660253  0.0000000 )
                  ( -0.8660253 -0.5000001  0.0000000 )
                  (  0.0000000  0.0000000  1.0000000 )


   Cartesian axes

     site n.     atom                  positions (alat units)
         1           Pr  tau(   1) = (  -0.0000006   0.5773505   0.3602487  )
         2           Pr  tau(   2) = (   0.5000005   0.2886748   2.3157841  )
         3           Pr  tau(   3) = (   0.5000005   0.2886748   3.5508221  )
         4           Pr  tau(   4) = (  -0.0000006   0.5773505   1.5952867  )
         5           C   tau(   5) = (   0.0000000   0.0000000   0.0000000  )
         6           C   tau(   6) = (   0.0000000   0.0000000   1.9555354  )
         7           Br  tau(   7) = (   0.5000005   0.2886748   0.9777677  )
         8           Br  tau(   8) = (  -0.0000006   0.5773505   2.9333031  )

   Crystallographic axes

     site n.     atom                  positions (cryst. coord.)
         1           Pr  tau(   1) = (  0.3333330  0.6666670  0.0921100  )
         2           Pr  tau(   2) = (  0.6666670  0.3333330  0.5921100  )
         3           Pr  tau(   3) = (  0.6666670  0.3333330  0.9078900  )
         4           Pr  tau(   4) = (  0.3333330  0.6666670  0.4078900  )
         5           C   tau(   5) = (  0.0000000  0.0000000  0.0000000  )
         6           C   tau(   6) = (  0.0000000  0.0000000  0.5000000  )
         7           Br  tau(   7) = (  0.6666670  0.3333330  0.2500000  )
         8           Br  tau(   8) = (  0.3333330  0.6666670  0.7500000  )

     number of k points=     1  Methfessel-Paxton smearing, width (Ry)=  0.0010
                       cart. coord. in units 2pi/alat
        k(    1) = (   0.0000000   0.0000000   0.0000000), wk =   2.0000000

                       cryst. coord.
        k(    1) = (   0.0000000   0.0000000   0.0000000), wk =   2.0000000

     Dense  grid:    40862 G-vectors     FFT dimensions: (  36,  36, 144)

     Smooth grid:    14498 G-vectors     FFT dimensions: (  25,  25, 100)

     Dynamical RAM for                 wfc:       1.21 MB

     Dynamical RAM for     wfc (w. buffer):       1.21 MB

     Dynamical RAM for           str. fact:       1.87 MB

     Dynamical RAM for           local pot:       0.00 MB

     Dynamical RAM for          nlocal pot:       4.97 MB

     Dynamical RAM for                qrad:       8.96 MB

     Dynamical RAM for          rho,v,vnew:       6.14 MB

     Dynamical RAM for               rhoin:       2.05 MB

     Dynamical RAM for            rho*nmix:       9.98 MB

     Dynamical RAM for           G-vectors:       2.45 MB

     Dynamical RAM for          h,s,v(r/c):       0.18 MB

     Dynamical RAM for          <psi|beta>:       0.06 MB

     Dynamical RAM for                 psi:       2.43 MB

     Dynamical RAM for                hpsi:       2.43 MB

     Dynamical RAM for                spsi:       2.43 MB

     Dynamical RAM for      wfcinit/wfcrot:       8.43 MB

     Dynamical RAM for           addusdens:     348.54 MB

     Dynamical RAM for          addusforce:     352.64 MB

     Dynamical RAM for         addusstress:     362.88 MB

     Estimated static dynamical RAM per process >      37.26 MB

     Estimated max dynamical RAM per process >     410.12 MB

     Check: negative core charge=   -0.000007

     Initial potential from superposition of free atoms

     starting charge      73.9702, renormalised to      74.0000
     Starting wfcs are  144 randomized atomic wfcs
     Checking if some PAW data can be deallocated... 

     total cpu time spent up to now is       14.9 secs

     Self-consistent Calculation

     iteration #  1     ecut=    30.00 Ry     beta= 0.70
     Davidson diagonalization with overlap

---- Real-time Memory Report at c_bands before calling an iterative solver
           668 MiB given to the printing process from OS
             0 MiB allocation reported by mallinfo(arena+hblkhd)
        135954 MiB available memory on the node where the printing process lives
------------------
     ethr =  1.00E-02,  avg # of iterations =  1.0

     total cpu time spent up to now is       17.6 secs

     total energy              =   -2161.57879174 Ry
     estimated scf accuracy    <       3.44802993 Ry

     iteration #  2     ecut=    30.00 Ry     beta= 0.70
     Davidson diagonalization with overlap

---- Real-time Memory Report at c_bands before calling an iterative solver
           869 MiB given to the printing process from OS
             0 MiB allocation reported by mallinfo(arena+hblkhd)
        135933 MiB available memory on the node where the printing process lives
------------------
     ethr =  4.66E-03,  avg # of iterations = 11.0

     total cpu time spent up to now is       21.6 secs

     total energy              =   -2152.69250863 Ry
     estimated scf accuracy    <     230.93839435 Ry

     iteration #  3     ecut=    30.00 Ry     beta= 0.70
     Davidson diagonalization with overlap

---- Real-time Memory Report at c_bands before calling an iterative solver
           874 MiB given to the printing process from OS
             0 MiB allocation reported by mallinfo(arena+hblkhd)
        135931 MiB available memory on the node where the printing process lives
------------------
     ethr =  4.66E-03,  avg # of iterations =  8.0

     total cpu time spent up to now is       25.2 secs

     total energy              =   -2157.25470720 Ry
     estimated scf accuracy    <     280.43889239 Ry

     iteration #  4     ecut=    30.00 Ry     beta= 0.70
     Davidson diagonalization with overlap

---- Real-time Memory Report at c_bands before calling an iterative solver
           874 MiB given to the printing process from OS
             0 MiB allocation reported by mallinfo(arena+hblkhd)
        135931 MiB available memory on the node where the printing process lives
------------------
     ethr =  4.66E-03,  avg # of iterations = 14.0

     total cpu time spent up to now is       27.0 secs

     total energy              =   -2162.84369148 Ry
     estimated scf accuracy    <      16.07822412 Ry

     iteration #  5     ecut=    30.00 Ry     beta= 0.70
     Davidson diagonalization with overlap

---- Real-time Memory Report at c_bands before calling an iterative solver
           874 MiB given to the printing process from OS
             0 MiB allocation reported by mallinfo(arena+hblkhd)
        135932 MiB available memory on the node where the printing process lives
------------------
     ethr =  4.66E-03,  avg # of iterations =  4.0

     total cpu time spent up to now is       28.8 secs

     total energy              =   -2163.58640491 Ry
     estimated scf accuracy    <      23.94235622 Ry

     iteration #  6     ecut=    30.00 Ry     beta= 0.70
     Davidson diagonalization with overlap

---- Real-time Memory Report at c_bands before calling an iterative solver
           874 MiB given to the printing process from OS
             0 MiB allocation reported by mallinfo(arena+hblkhd)
        135931 MiB available memory on the node where the printing process lives
------------------
     ethr =  4.66E-03,  avg # of iterations =  2.0

     total cpu time spent up to now is       30.4 secs

     total energy              =   -2163.43484926 Ry
     estimated scf accuracy    <      15.07567738 Ry

     iteration #  7     ecut=    30.00 Ry     beta= 0.70
     Davidson diagonalization with overlap

---- Real-time Memory Report at c_bands before calling an iterative solver
           874 MiB given to the printing process from OS
             0 MiB allocation reported by mallinfo(arena+hblkhd)
        135932 MiB available memory on the node where the printing process lives
------------------
     ethr =  4.66E-03,  avg # of iterations =  2.0

     total cpu time spent up to now is       32.1 secs

     total energy              =   -2163.47972594 Ry
     estimated scf accuracy    <       9.60568417 Ry

     iteration #  8     ecut=    30.00 Ry     beta= 0.70
     Davidson diagonalization with overlap

---- Real-time Memory Report at c_bands before calling an iterative solver
           874 MiB given to the printing process from OS
             0 MiB allocation reported by mallinfo(arena+hblkhd)
        135931 MiB available memory on the node where the printing process lives
------------------
     ethr =  4.66E-03,  avg # of iterations =  1.0

     total cpu time spent up to now is       33.7 secs

     total energy              =   -2163.41577192 Ry
     estimated scf accuracy    <       8.78077841 Ry

     iteration #  9     ecut=    30.00 Ry     beta= 0.70
     Davidson diagonalization with overlap

---- Real-time Memory Report at c_bands before calling an iterative solver
           875 MiB given to the printing process from OS
             0 MiB allocation reported by mallinfo(arena+hblkhd)
        135932 MiB available memory on the node where the printing process lives
------------------
     ethr =  4.66E-03,  avg # of iterations =  7.0

     total cpu time spent up to now is       35.4 secs

     total energy              =   -2163.60475816 Ry
     estimated scf accuracy    <       1.35284660 Ry

     iteration # 10     ecut=    30.00 Ry     beta= 0.70
     Davidson diagonalization with overlap

---- Real-time Memory Report at c_bands before calling an iterative solver
           875 MiB given to the printing process from OS
             0 MiB allocation reported by mallinfo(arena+hblkhd)
        135934 MiB available memory on the node where the printing process lives
------------------
     ethr =  1.83E-03,  avg # of iterations = 14.0

     total cpu time spent up to now is       37.2 secs

     total energy              =   -2164.23821939 Ry
     estimated scf accuracy    <      34.04816775 Ry

     iteration # 11     ecut=    30.00 Ry     beta= 0.70
     Davidson diagonalization with overlap

---- Real-time Memory Report at c_bands before calling an iterative solver
           877 MiB given to the printing process from OS
             0 MiB allocation reported by mallinfo(arena+hblkhd)
        135934 MiB available memory on the node where the printing process lives
------------------
     ethr =  1.83E-03,  avg # of iterations =  1.0

     total cpu time spent up to now is       38.9 secs

     total energy              =   -2163.88580008 Ry
     estimated scf accuracy    <      34.95261199 Ry

     iteration # 12     ecut=    30.00 Ry     beta= 0.70
     Davidson diagonalization with overlap

---- Real-time Memory Report at c_bands before calling an iterative solver
           877 MiB given to the printing process from OS
             0 MiB allocation reported by mallinfo(arena+hblkhd)
        135935 MiB available memory on the node where the printing process lives
------------------
     ethr =  1.83E-03,  avg # of iterations =  9.0

     total cpu time spent up to now is       40.6 secs

     total energy              =   -2164.14815847 Ry
     estimated scf accuracy    <      27.45329077 Ry

     iteration # 13     ecut=    30.00 Ry     beta= 0.70
     Davidson diagonalization with overlap

---- Real-time Memory Report at c_bands before calling an iterative solver
           877 MiB given to the printing process from OS
             0 MiB allocation reported by mallinfo(arena+hblkhd)
        135936 MiB available memory on the node where the printing process lives
------------------
     ethr =  1.83E-03,  avg # of iterations =  1.0

     total cpu time spent up to now is       42.2 secs

     total energy              =   -2164.10929049 Ry
     estimated scf accuracy    <      30.95453889 Ry

     iteration # 14     ecut=    30.00 Ry     beta= 0.70
     Davidson diagonalization with overlap

---- Real-time Memory Report at c_bands before calling an iterative solver
           877 MiB given to the printing process from OS
             0 MiB allocation reported by mallinfo(arena+hblkhd)
        135939 MiB available memory on the node where the printing process lives
------------------
     ethr =  1.83E-03,  avg # of iterations =  1.0

     total cpu time spent up to now is       43.9 secs

     total energy              =   -2164.13586401 Ry
     estimated scf accuracy    <      32.00460361 Ry

     iteration # 15     ecut=    30.00 Ry     beta= 0.70
     Davidson diagonalization with overlap

---- Real-time Memory Report at c_bands before calling an iterative solver
           877 MiB given to the printing process from OS
             0 MiB allocation reported by mallinfo(arena+hblkhd)
        135939 MiB available memory on the node where the printing process lives
------------------
     ethr =  1.83E-03,  avg # of iterations =  1.0

     total cpu time spent up to now is       45.5 secs

     total energy              =   -2163.98927367 Ry
     estimated scf accuracy    <      32.81619262 Ry

     iteration # 16     ecut=    30.00 Ry     beta= 0.70
     Davidson diagonalization with overlap

---- Real-time Memory Report at c_bands before calling an iterative solver
           877 MiB given to the printing process from OS
             0 MiB allocation reported by mallinfo(arena+hblkhd)
        135940 MiB available memory on the node where the printing process lives
------------------
     ethr =  1.83E-03,  avg # of iterations =  1.0

     total cpu time spent up to now is       47.1 secs

     total energy              =   -2163.90589249 Ry
     estimated scf accuracy    <      26.34001574 Ry

     iteration # 17     ecut=    30.00 Ry     beta= 0.70
     Davidson diagonalization with overlap

---- Real-time Memory Report at c_bands before calling an iterative solver
           877 MiB given to the printing process from OS
             0 MiB allocation reported by mallinfo(arena+hblkhd)
        135942 MiB available memory on the node where the printing process lives
------------------
     ethr =  1.83E-03,  avg # of iterations =  1.0

     total cpu time spent up to now is       48.8 secs

     total energy              =   -2163.76251673 Ry
     estimated scf accuracy    <      11.17589357 Ry

     iteration # 18     ecut=    30.00 Ry     beta= 0.70
     Davidson diagonalization with overlap

---- Real-time Memory Report at c_bands before calling an iterative solver
           877 MiB given to the printing process from OS
             0 MiB allocation reported by mallinfo(arena+hblkhd)
        135942 MiB available memory on the node where the printing process lives
------------------
     ethr =  1.83E-03,  avg # of iterations =  7.0

     negative rho (up, down):  2.415E-06 0.000E+00

     total cpu time spent up to now is       50.5 secs

     total energy              =   -2165.27842033 Ry
     estimated scf accuracy    <      73.71891622 Ry

     iteration # 19     ecut=    30.00 Ry     beta= 0.70
     Davidson diagonalization with overlap

---- Real-time Memory Report at c_bands before calling an iterative solver
           877 MiB given to the printing process from OS
             0 MiB allocation reported by mallinfo(arena+hblkhd)
        135943 MiB available memory on the node where the printing process lives
------------------
     ethr =  1.83E-03,  avg # of iterations =  8.0

     total cpu time spent up to now is       52.3 secs

     total energy              =   -2160.58330822 Ry
     estimated scf accuracy    <     211.39482850 Ry

     iteration # 20     ecut=    30.00 Ry     beta= 0.70
     Davidson diagonalization with overlap

---- Real-time Memory Report at c_bands before calling an iterative solver
           877 MiB given to the printing process from OS
             0 MiB allocation reported by mallinfo(arena+hblkhd)
        135943 MiB available memory on the node where the printing process lives
------------------
     ethr =  1.83E-03,  avg # of iterations =  5.0

     total cpu time spent up to now is       54.1 secs

     total energy              =   -2163.72122743 Ry
     estimated scf accuracy    <     114.15015047 Ry

     iteration # 21     ecut=    30.00 Ry     beta= 0.70
     Davidson diagonalization with overlap

---- Real-time Memory Report at c_bands before calling an iterative solver
           877 MiB given to the printing process from OS
             0 MiB allocation reported by mallinfo(arena+hblkhd)
        135943 MiB available memory on the node where the printing process lives
------------------
     ethr =  1.83E-03,  avg # of iterations =  9.0

     total cpu time spent up to now is       55.8 secs

     total energy              =   -2162.95629438 Ry
     estimated scf accuracy    <      45.42899662 Ry

     iteration # 22     ecut=    30.00 Ry     beta= 0.70
     Davidson diagonalization with overlap

---- Real-time Memory Report at c_bands before calling an iterative solver
           877 MiB given to the printing process from OS
             0 MiB allocation reported by mallinfo(arena+hblkhd)
        135944 MiB available memory on the node where the printing process lives
------------------
     c_bands:  1 eigenvalues not converged
     ethr =  1.83E-03,  avg # of iterations = 20.0

     total cpu time spent up to now is       57.6 secs

     total energy              =   -2163.36050042 Ry
     estimated scf accuracy    <      10.68972016 Ry

     iteration # 23     ecut=    30.00 Ry     beta= 0.70
     Davidson diagonalization with overlap

---- Real-time Memory Report at c_bands before calling an iterative solver
           877 MiB given to the printing process from OS
             0 MiB allocation reported by mallinfo(arena+hblkhd)
        135944 MiB available memory on the node where the printing process lives
------------------
     ethr =  1.83E-03,  avg # of iterations =  5.0

     total cpu time spent up to now is       59.3 secs

     total energy              =   -2163.69518093 Ry
     estimated scf accuracy    <      22.08577231 Ry

     iteration # 24     ecut=    30.00 Ry     beta= 0.70
     Davidson diagonalization with overlap

---- Real-time Memory Report at c_bands before calling an iterative solver
           877 MiB given to the printing process from OS
             0 MiB allocation reported by mallinfo(arena+hblkhd)
        135944 MiB available memory on the node where the printing process lives
------------------
     ethr =  1.83E-03,  avg # of iterations =  2.0

     total cpu time spent up to now is       61.0 secs

     total energy              =   -2163.72867815 Ry
     estimated scf accuracy    <       5.47746167 Ry

     iteration # 25     ecut=    30.00 Ry     beta= 0.70
     Davidson diagonalization with overlap

---- Real-time Memory Report at c_bands before calling an iterative solver
           877 MiB given to the printing process from OS
             0 MiB allocation reported by mallinfo(arena+hblkhd)
        135944 MiB available memory on the node where the printing process lives
------------------
     ethr =  1.83E-03,  avg # of iterations =  1.0

     total cpu time spent up to now is       62.6 secs

     total energy              =   -2163.73776114 Ry
     estimated scf accuracy    <       7.05339272 Ry

     iteration # 26     ecut=    30.00 Ry     beta= 0.70
     Davidson diagonalization with overlap

---- Real-time Memory Report at c_bands before calling an iterative solver
           877 MiB given to the printing process from OS
             0 MiB allocation reported by mallinfo(arena+hblkhd)
        135942 MiB available memory on the node where the printing process lives
------------------
     ethr =  1.83E-03,  avg # of iterations =  1.0

     total cpu time spent up to now is       64.3 secs

     total energy              =   -2163.28762446 Ry
     estimated scf accuracy    <       7.20471722 Ry

     iteration # 27     ecut=    30.00 Ry     beta= 0.70
     Davidson diagonalization with overlap

---- Real-time Memory Report at c_bands before calling an iterative solver
           877 MiB given to the printing process from OS
             0 MiB allocation reported by mallinfo(arena+hblkhd)
        135943 MiB available memory on the node where the printing process lives
------------------
     ethr =  1.83E-03,  avg # of iterations =  7.0

     total cpu time spent up to now is       66.1 secs

     total energy              =   -2163.47139381 Ry
     estimated scf accuracy    <     106.36971917 Ry

     iteration # 28     ecut=    30.00 Ry     beta= 0.70
     Davidson diagonalization with overlap

---- Real-time Memory Report at c_bands before calling an iterative solver
           877 MiB given to the printing process from OS
             0 MiB allocation reported by mallinfo(arena+hblkhd)
        135940 MiB available memory on the node where the printing process lives
------------------
     ethr =  1.83E-03,  avg # of iterations =  5.0

     total cpu time spent up to now is       67.8 secs

     total energy              =   -2163.84406589 Ry
     estimated scf accuracy    <      42.96297514 Ry

     iteration # 29     ecut=    30.00 Ry     beta= 0.70
     Davidson diagonalization with overlap

---- Real-time Memory Report at c_bands before calling an iterative solver
           877 MiB given to the printing process from OS
             0 MiB allocation reported by mallinfo(arena+hblkhd)
        135936 MiB available memory on the node where the printing process lives
------------------
     ethr =  1.83E-03,  avg # of iterations =  2.0

     total cpu time spent up to now is       69.4 secs

     total energy              =   -2163.64097527 Ry
     estimated scf accuracy    <      40.38239972 Ry

     iteration # 30     ecut=    30.00 Ry     beta= 0.70
     Davidson diagonalization with overlap

---- Real-time Memory Report at c_bands before calling an iterative solver
           877 MiB given to the printing process from OS
             0 MiB allocation reported by mallinfo(arena+hblkhd)
        135937 MiB available memory on the node where the printing process lives
------------------
     ethr =  1.83E-03,  avg # of iterations =  1.0

     total cpu time spent up to now is       71.1 secs

     total energy              =   -2163.69593902 Ry
     estimated scf accuracy    <      25.50168517 Ry

     iteration # 31     ecut=    30.00 Ry     beta= 0.70
     Davidson diagonalization with overlap

---- Real-time Memory Report at c_bands before calling an iterative solver
           877 MiB given to the printing process from OS
             0 MiB allocation reported by mallinfo(arena+hblkhd)
        135936 MiB available memory on the node where the printing process lives
------------------
     ethr =  1.83E-03,  avg # of iterations = 14.0

     total cpu time spent up to now is       72.8 secs

     total energy              =   -2163.46969905 Ry
     estimated scf accuracy    <      42.07611218 Ry

     iteration # 32     ecut=    30.00 Ry     beta= 0.70
     Davidson diagonalization with overlap

---- Real-time Memory Report at c_bands before calling an iterative solver
           877 MiB given to the printing process from OS
             0 MiB allocation reported by mallinfo(arena+hblkhd)
        135937 MiB available memory on the node where the printing process lives
------------------
     ethr =  1.83E-03,  avg # of iterations =  2.0

     total cpu time spent up to now is       74.5 secs

     total energy              =   -2163.53407811 Ry
     estimated scf accuracy    <      35.00205543 Ry

     iteration # 33     ecut=    30.00 Ry     beta= 0.70
     Davidson diagonalization with overlap

---- Real-time Memory Report at c_bands before calling an iterative solver
           877 MiB given to the printing process from OS
             0 MiB allocation reported by mallinfo(arena+hblkhd)
        135938 MiB available memory on the node where the printing process lives
------------------
     ethr =  1.83E-03,  avg # of iterations =  2.0

     total cpu time spent up to now is       76.1 secs

     total energy              =   -2163.53250502 Ry
     estimated scf accuracy    <      17.22250669 Ry

     iteration # 34     ecut=    30.00 Ry     beta= 0.70
     Davidson diagonalization with overlap

---- Real-time Memory Report at c_bands before calling an iterative solver
           877 MiB given to the printing process from OS
             0 MiB allocation reported by mallinfo(arena+hblkhd)
        135938 MiB available memory on the node where the printing process lives
------------------
     ethr =  1.83E-03,  avg # of iterations =  2.0

     total cpu time spent up to now is       77.8 secs

     total energy              =   -2163.72304580 Ry
     estimated scf accuracy    <      35.95746782 Ry

     iteration # 35     ecut=    30.00 Ry     beta= 0.70
     Davidson diagonalization with overlap

---- Real-time Memory Report at c_bands before calling an iterative solver
           877 MiB given to the printing process from OS
             0 MiB allocation reported by mallinfo(arena+hblkhd)
        135939 MiB available memory on the node where the printing process lives
------------------
     ethr =  1.83E-03,  avg # of iterations =  2.0

     total cpu time spent up to now is       79.4 secs

     total energy              =   -2162.63493630 Ry
     estimated scf accuracy    <      33.53545840 Ry

     iteration # 36     ecut=    30.00 Ry     beta= 0.70
     Davidson diagonalization with overlap

---- Real-time Memory Report at c_bands before calling an iterative solver
           877 MiB given to the printing process from OS
             0 MiB allocation reported by mallinfo(arena+hblkhd)
        135940 MiB available memory on the node where the printing process lives
------------------
     ethr =  1.83E-03,  avg # of iterations = 12.0

     total cpu time spent up to now is       81.2 secs

     total energy              =   -2162.74705354 Ry
     estimated scf accuracy    <     270.85539150 Ry

     iteration # 37     ecut=    30.00 Ry     beta= 0.70
     Davidson diagonalization with overlap

---- Real-time Memory Report at c_bands before calling an iterative solver
           877 MiB given to the printing process from OS
             0 MiB allocation reported by mallinfo(arena+hblkhd)
        135941 MiB available memory on the node where the printing process lives
------------------
     ethr =  1.83E-03,  avg # of iterations =  6.0

     total cpu time spent up to now is       82.9 secs

     total energy              =   -2163.78334806 Ry
     estimated scf accuracy    <      70.74417866 Ry

     iteration # 38     ecut=    30.00 Ry     beta= 0.70
     Davidson diagonalization with overlap

---- Real-time Memory Report at c_bands before calling an iterative solver
           877 MiB given to the printing process from OS
             0 MiB allocation reported by mallinfo(arena+hblkhd)
        135940 MiB available memory on the node where the printing process lives
------------------
     ethr =  1.83E-03,  avg # of iterations =  2.0

     total cpu time spent up to now is       84.6 secs

     total energy              =   -2163.57605054 Ry
     estimated scf accuracy    <      39.09687937 Ry

     iteration # 39     ecut=    30.00 Ry     beta= 0.70
     Davidson diagonalization with overlap

---- Real-time Memory Report at c_bands before calling an iterative solver
           877 MiB given to the printing process from OS
             0 MiB allocation reported by mallinfo(arena+hblkhd)
        135940 MiB available memory on the node where the printing process lives
------------------
     ethr =  1.83E-03,  avg # of iterations =  2.0

     total cpu time spent up to now is       86.2 secs

     total energy              =   -2163.33296333 Ry
     estimated scf accuracy    <      22.90639193 Ry

     iteration # 40     ecut=    30.00 Ry     beta= 0.70
     Davidson diagonalization with overlap

---- Real-time Memory Report at c_bands before calling an iterative solver
           877 MiB given to the printing process from OS
             0 MiB allocation reported by mallinfo(arena+hblkhd)
        135941 MiB available memory on the node where the printing process lives
------------------
     ethr =  1.83E-03,  avg # of iterations = 16.0

     total cpu time spent up to now is       88.1 secs

     total energy              =   -2163.42785465 Ry
     estimated scf accuracy    <      83.96853113 Ry

     iteration # 41     ecut=    30.00 Ry     beta= 0.70
     Davidson diagonalization with overlap

---- Real-time Memory Report at c_bands before calling an iterative solver
           877 MiB given to the printing process from OS
             0 MiB allocation reported by mallinfo(arena+hblkhd)
        135941 MiB available memory on the node where the printing process lives
------------------
     ethr =  1.83E-03,  avg # of iterations =  2.0

     total cpu time spent up to now is       89.7 secs

     total energy              =   -2163.75247627 Ry
     estimated scf accuracy    <       3.69789584 Ry

     iteration # 42     ecut=    30.00 Ry     beta= 0.70
     Davidson diagonalization with overlap

---- Real-time Memory Report at c_bands before calling an iterative solver
           877 MiB given to the printing process from OS
             0 MiB allocation reported by mallinfo(arena+hblkhd)
        135942 MiB available memory on the node where the printing process lives
------------------
     ethr =  1.83E-03,  avg # of iterations =  1.0

     total cpu time spent up to now is       91.7 secs

     total energy              =   -2163.69117388 Ry
     estimated scf accuracy    <       3.24969519 Ry

     iteration # 43     ecut=    30.00 Ry     beta= 0.70
     Davidson diagonalization with overlap

---- Real-time Memory Report at c_bands before calling an iterative solver
           877 MiB given to the printing process from OS
             0 MiB allocation reported by mallinfo(arena+hblkhd)
        135941 MiB available memory on the node where the printing process lives
------------------
     ethr =  1.83E-03,  avg # of iterations =  2.0

     total cpu time spent up to now is       93.4 secs

     total energy              =   -2163.69764047 Ry
     estimated scf accuracy    <       8.06445425 Ry

     iteration # 44     ecut=    30.00 Ry     beta= 0.70
     Davidson diagonalization with overlap

---- Real-time Memory Report at c_bands before calling an iterative solver
           877 MiB given to the printing process from OS
             0 MiB allocation reported by mallinfo(arena+hblkhd)
        135942 MiB available memory on the node where the printing process lives
------------------
     ethr =  1.83E-03,  avg # of iterations =  1.0

     total cpu time spent up to now is       95.0 secs

     total energy              =   -2162.97496284 Ry
     estimated scf accuracy    <       3.03568565 Ry

     iteration # 45     ecut=    30.00 Ry     beta= 0.70
     Davidson diagonalization with overlap

---- Real-time Memory Report at c_bands before calling an iterative solver
           877 MiB given to the printing process from OS
             0 MiB allocation reported by mallinfo(arena+hblkhd)
        135943 MiB available memory on the node where the printing process lives
------------------
     ethr =  1.83E-03,  avg # of iterations =  9.0

     total cpu time spent up to now is       96.8 secs

     total energy              =   -2162.84772021 Ry
     estimated scf accuracy    <     236.14486980 Ry

     iteration # 46     ecut=    30.00 Ry     beta= 0.70
     Davidson diagonalization with overlap

---- Real-time Memory Report at c_bands before calling an iterative solver
           877 MiB given to the printing process from OS
             0 MiB allocation reported by mallinfo(arena+hblkhd)
        135943 MiB available memory on the node where the printing process lives
------------------
     ethr =  1.83E-03,  avg # of iterations =  6.0

     total cpu time spent up to now is       98.5 secs

     total energy              =   -2163.63128885 Ry
     estimated scf accuracy    <      71.91437474 Ry

     iteration # 47     ecut=    30.00 Ry     beta= 0.70
     Davidson diagonalization with overlap

---- Real-time Memory Report at c_bands before calling an iterative solver
           877 MiB given to the printing process from OS
             0 MiB allocation reported by mallinfo(arena+hblkhd)
        135943 MiB available memory on the node where the printing process lives
------------------
     ethr =  1.83E-03,  avg # of iterations =  2.0

     total cpu time spent up to now is      100.2 secs

     total energy              =   -2163.69592633 Ry
     estimated scf accuracy    <      31.14764277 Ry

     iteration # 48     ecut=    30.00 Ry     beta= 0.70
     Davidson diagonalization with overlap

---- Real-time Memory Report at c_bands before calling an iterative solver
           877 MiB given to the printing process from OS
             0 MiB allocation reported by mallinfo(arena+hblkhd)
        135943 MiB available memory on the node where the printing process lives
------------------
     ethr =  1.83E-03,  avg # of iterations =  1.0

     total cpu time spent up to now is      101.8 secs

     total energy              =   -2163.64327824 Ry
     estimated scf accuracy    <      37.15657392 Ry

     iteration # 49     ecut=    30.00 Ry     beta= 0.70
     Davidson diagonalization with overlap

---- Real-time Memory Report at c_bands before calling an iterative solver
           877 MiB given to the printing process from OS
             0 MiB allocation reported by mallinfo(arena+hblkhd)
        135943 MiB available memory on the node where the printing process lives
------------------
     ethr =  1.83E-03,  avg # of iterations =  8.0

     total cpu time spent up to now is      103.5 secs

     total energy              =   -2163.65889044 Ry
     estimated scf accuracy    <      15.63856999 Ry

     iteration # 50     ecut=    30.00 Ry     beta= 0.70
     Davidson diagonalization with overlap

---- Real-time Memory Report at c_bands before calling an iterative solver
           877 MiB given to the printing process from OS
             0 MiB allocation reported by mallinfo(arena+hblkhd)
        135943 MiB available memory on the node where the printing process lives
------------------
     ethr =  1.83E-03,  avg # of iterations =  2.0

     total cpu time spent up to now is      105.1 secs

     total energy              =   -2163.66386195 Ry
     estimated scf accuracy    <      11.26881448 Ry

     iteration # 51     ecut=    30.00 Ry     beta= 0.70
     Davidson diagonalization with overlap

---- Real-time Memory Report at c_bands before calling an iterative solver
           877 MiB given to the printing process from OS
             0 MiB allocation reported by mallinfo(arena+hblkhd)
        135943 MiB available memory on the node where the printing process lives
------------------
     ethr =  1.83E-03,  avg # of iterations =  1.0

     total cpu time spent up to now is      106.7 secs

     total energy              =   -2163.65979678 Ry
     estimated scf accuracy    <      11.25760139 Ry

     iteration # 52     ecut=    30.00 Ry     beta= 0.70
     Davidson diagonalization with overlap

---- Real-time Memory Report at c_bands before calling an iterative solver
           877 MiB given to the printing process from OS
             0 MiB allocation reported by mallinfo(arena+hblkhd)
        135944 MiB available memory on the node where the printing process lives
------------------
     ethr =  1.83E-03,  avg # of iterations =  1.0

     total cpu time spent up to now is      108.4 secs

     total energy              =   -2163.66746663 Ry
     estimated scf accuracy    <      10.41369206 Ry

     iteration # 53     ecut=    30.00 Ry     beta= 0.70
     Davidson diagonalization with overlap

---- Real-time Memory Report at c_bands before calling an iterative solver
           877 MiB given to the printing process from OS
             0 MiB allocation reported by mallinfo(arena+hblkhd)
        135944 MiB available memory on the node where the printing process lives
------------------
     ethr =  1.83E-03,  avg # of iterations =  1.0

     total cpu time spent up to now is      110.0 secs

     total energy              =   -2162.45581331 Ry
     estimated scf accuracy    <       9.87006049 Ry

     iteration # 54     ecut=    30.00 Ry     beta= 0.70
     Davidson diagonalization with overlap

---- Real-time Memory Report at c_bands before calling an iterative solver
           877 MiB given to the printing process from OS
             0 MiB allocation reported by mallinfo(arena+hblkhd)
        135943 MiB available memory on the node where the printing process lives
------------------
     ethr =  1.83E-03,  avg # of iterations =  9.0

     total cpu time spent up to now is      111.8 secs

     total energy              =   -2162.85864185 Ry
     estimated scf accuracy    <     223.41988279 Ry

     iteration # 55     ecut=    30.00 Ry     beta= 0.70
     Davidson diagonalization with overlap

---- Real-time Memory Report at c_bands before calling an iterative solver
           877 MiB given to the printing process from OS
             0 MiB allocation reported by mallinfo(arena+hblkhd)
        135949 MiB available memory on the node where the printing process lives
------------------
     ethr =  1.83E-03,  avg # of iterations = 11.0

     total cpu time spent up to now is      113.6 secs

     total energy              =   -2163.92989575 Ry
     estimated scf accuracy    <     101.84388938 Ry

     iteration # 56     ecut=    30.00 Ry     beta= 0.70
     Davidson diagonalization with overlap

---- Real-time Memory Report at c_bands before calling an iterative solver
           877 MiB given to the printing process from OS
             0 MiB allocation reported by mallinfo(arena+hblkhd)
        135949 MiB available memory on the node where the printing process lives
------------------
     ethr =  1.83E-03,  avg # of iterations =  4.0

     total cpu time spent up to now is      115.2 secs

     total energy              =   -2163.01158933 Ry
     estimated scf accuracy    <      63.15674421 Ry

     iteration # 57     ecut=    30.00 Ry     beta= 0.70
     Davidson diagonalization with overlap

---- Real-time Memory Report at c_bands before calling an iterative solver
           877 MiB given to the printing process from OS
             0 MiB allocation reported by mallinfo(arena+hblkhd)
        135950 MiB available memory on the node where the printing process lives
------------------
     ethr =  1.83E-03,  avg # of iterations = 11.0

     total cpu time spent up to now is      117.0 secs

     total energy              =   -2163.79050452 Ry
     estimated scf accuracy    <      49.05448340 Ry

     iteration # 58     ecut=    30.00 Ry     beta= 0.70
     Davidson diagonalization with overlap

---- Real-time Memory Report at c_bands before calling an iterative solver
           877 MiB given to the printing process from OS
             0 MiB allocation reported by mallinfo(arena+hblkhd)
        135949 MiB available memory on the node where the printing process lives
------------------
     ethr =  1.83E-03,  avg # of iterations =  1.0

     total cpu time spent up to now is      118.6 secs

     total energy              =   -2163.76169596 Ry
     estimated scf accuracy    <      29.79034862 Ry

     iteration # 59     ecut=    30.00 Ry     beta= 0.70
     Davidson diagonalization with overlap

---- Real-time Memory Report at c_bands before calling an iterative solver
           877 MiB given to the printing process from OS
             0 MiB allocation reported by mallinfo(arena+hblkhd)
        135950 MiB available memory on the node where the printing process lives
------------------
     ethr =  1.83E-03,  avg # of iterations =  2.0

     total cpu time spent up to now is      120.3 secs

     total energy              =   -2163.82624172 Ry
     estimated scf accuracy    <      24.79511187 Ry

     iteration # 60     ecut=    30.00 Ry     beta= 0.70
     Davidson diagonalization with overlap

---- Real-time Memory Report at c_bands before calling an iterative solver
           877 MiB given to the printing process from OS
             0 MiB allocation reported by mallinfo(arena+hblkhd)
        135951 MiB available memory on the node where the printing process lives
------------------
     ethr =  1.83E-03,  avg # of iterations =  1.0

     total cpu time spent up to now is      121.9 secs

     total energy              =   -2163.84444536 Ry
     estimated scf accuracy    <      22.34341695 Ry

     iteration # 61     ecut=    30.00 Ry     beta= 0.70
     Davidson diagonalization with overlap

---- Real-time Memory Report at c_bands before calling an iterative solver
           877 MiB given to the printing process from OS
             0 MiB allocation reported by mallinfo(arena+hblkhd)
        135949 MiB available memory on the node where the printing process lives
------------------
     ethr =  1.83E-03,  avg # of iterations =  1.0

     total cpu time spent up to now is      123.5 secs

     total energy              =   -2163.87352437 Ry
     estimated scf accuracy    <      30.34359623 Ry

     iteration # 62     ecut=    30.00 Ry     beta= 0.70
     Davidson diagonalization with overlap

---- Real-time Memory Report at c_bands before calling an iterative solver
           877 MiB given to the printing process from OS
             0 MiB allocation reported by mallinfo(arena+hblkhd)
        135949 MiB available memory on the node where the printing process lives
------------------
     ethr =  1.83E-03,  avg # of iterations =  1.0

     total cpu time spent up to now is      125.2 secs

     total energy              =   -2162.23323642 Ry
     estimated scf accuracy    <      28.73100899 Ry

     iteration # 63     ecut=    30.00 Ry     beta= 0.70
     Davidson diagonalization with overlap

---- Real-time Memory Report at c_bands before calling an iterative solver
           877 MiB given to the printing process from OS
             0 MiB allocation reported by mallinfo(arena+hblkhd)
        135948 MiB available memory on the node where the printing process lives
------------------
     ethr =  1.83E-03,  avg # of iterations = 13.0

     total cpu time spent up to now is      127.1 secs

     total energy              =   -2160.64335488 Ry
     estimated scf accuracy    <     423.63098298 Ry

     iteration # 64     ecut=    30.00 Ry     beta= 0.70
     Davidson diagonalization with overlap

---- Real-time Memory Report at c_bands before calling an iterative solver
           877 MiB given to the printing process from OS
             0 MiB allocation reported by mallinfo(arena+hblkhd)
        135948 MiB available memory on the node where the printing process lives
------------------
     ethr =  1.83E-03,  avg # of iterations = 10.0

     total cpu time spent up to now is      128.8 secs

     total energy              =   -2163.22271082 Ry
     estimated scf accuracy    <      83.14200896 Ry

     iteration # 65     ecut=    30.00 Ry     beta= 0.70
     Davidson diagonalization with overlap

---- Real-time Memory Report at c_bands before calling an iterative solver
           877 MiB given to the printing process from OS
             0 MiB allocation reported by mallinfo(arena+hblkhd)
        135948 MiB available memory on the node where the printing process lives
------------------
     ethr =  1.83E-03,  avg # of iterations =  4.0

     total cpu time spent up to now is      130.5 secs

     total energy              =   -2163.88468086 Ry
     estimated scf accuracy    <      70.23503462 Ry

     iteration # 66     ecut=    30.00 Ry     beta= 0.70
     Davidson diagonalization with overlap

---- Real-time Memory Report at c_bands before calling an iterative solver
           877 MiB given to the printing process from OS
             0 MiB allocation reported by mallinfo(arena+hblkhd)
        135948 MiB available memory on the node where the printing process lives
------------------
     ethr =  1.83E-03,  avg # of iterations =  4.0

     total cpu time spent up to now is      132.2 secs

     total energy              =   -2163.63553721 Ry
     estimated scf accuracy    <      44.18735722 Ry

     iteration # 67     ecut=    30.00 Ry     beta= 0.70
     Davidson diagonalization with overlap

---- Real-time Memory Report at c_bands before calling an iterative solver
           877 MiB given to the printing process from OS
             0 MiB allocation reported by mallinfo(arena+hblkhd)
        135947 MiB available memory on the node where the printing process lives
------------------
     ethr =  1.83E-03,  avg # of iterations =  2.0

     total cpu time spent up to now is      133.8 secs

     total energy              =   -2163.62745551 Ry
     estimated scf accuracy    <      32.84467185 Ry

     iteration # 68     ecut=    30.00 Ry     beta= 0.70
     Davidson diagonalization with overlap

---- Real-time Memory Report at c_bands before calling an iterative solver
           877 MiB given to the printing process from OS
             0 MiB allocation reported by mallinfo(arena+hblkhd)
        135948 MiB available memory on the node where the printing process lives
------------------
     ethr =  1.83E-03,  avg # of iterations =  2.0

     total cpu time spent up to now is      135.4 secs

     total energy              =   -2163.59734966 Ry
     estimated scf accuracy    <      30.99891680 Ry

     iteration # 69     ecut=    30.00 Ry     beta= 0.70
     Davidson diagonalization with overlap

---- Real-time Memory Report at c_bands before calling an iterative solver
           877 MiB given to the printing process from OS
             0 MiB allocation reported by mallinfo(arena+hblkhd)
        135948 MiB available memory on the node where the printing process lives
------------------
     ethr =  1.83E-03,  avg # of iterations =  2.0

     total cpu time spent up to now is      137.1 secs

     total energy              =   -2162.88691899 Ry
     estimated scf accuracy    <      38.44370706 Ry

     iteration # 70     ecut=    30.00 Ry     beta= 0.70
     Davidson diagonalization with overlap

---- Real-time Memory Report at c_bands before calling an iterative solver
           877 MiB given to the printing process from OS
             0 MiB allocation reported by mallinfo(arena+hblkhd)
        135947 MiB available memory on the node where the printing process lives
------------------
     ethr =  1.83E-03,  avg # of iterations = 17.0

     total cpu time spent up to now is      138.9 secs

     total energy              =   -2163.67275732 Ry
     estimated scf accuracy    <      75.83351331 Ry

     iteration # 71     ecut=    30.00 Ry     beta= 0.70
     Davidson diagonalization with overlap

---- Real-time Memory Report at c_bands before calling an iterative solver
           877 MiB given to the printing process from OS
             0 MiB allocation reported by mallinfo(arena+hblkhd)
        135948 MiB available memory on the node where the printing process lives
------------------
     ethr =  1.83E-03,  avg # of iterations =  2.0

     total cpu time spent up to now is      140.5 secs

     total energy              =   -2162.80032882 Ry
     estimated scf accuracy    <      16.29725436 Ry

     iteration # 72     ecut=    30.00 Ry     beta= 0.70
     Davidson diagonalization with overlap

---- Real-time Memory Report at c_bands before calling an iterative solver
           877 MiB given to the printing process from OS
             0 MiB allocation reported by mallinfo(arena+hblkhd)
        135948 MiB available memory on the node where the printing process lives
------------------
     ethr =  1.83E-03,  avg # of iterations =  9.0

     total cpu time spent up to now is      142.3 secs

     total energy              =   -2162.71539743 Ry
     estimated scf accuracy    <     215.27327207 Ry

     iteration # 73     ecut=    30.00 Ry     beta= 0.70
     Davidson diagonalization with overlap

---- Real-time Memory Report at c_bands before calling an iterative solver
           877 MiB given to the printing process from OS
             0 MiB allocation reported by mallinfo(arena+hblkhd)
        135948 MiB available memory on the node where the printing process lives
------------------
     ethr =  1.83E-03,  avg # of iterations =  5.0

     total cpu time spent up to now is      144.0 secs

     total energy              =   -2163.69460830 Ry
     estimated scf accuracy    <      68.77041524 Ry

     iteration # 74     ecut=    30.00 Ry     beta= 0.70
     Davidson diagonalization with overlap

---- Real-time Memory Report at c_bands before calling an iterative solver
           877 MiB given to the printing process from OS
             0 MiB allocation reported by mallinfo(arena+hblkhd)
        135948 MiB available memory on the node where the printing process lives
------------------
     ethr =  1.83E-03,  avg # of iterations =  2.0

     total cpu time spent up to now is      145.7 secs

     total energy              =   -2163.71269769 Ry
     estimated scf accuracy    <      34.26344336 Ry

     iteration # 75     ecut=    30.00 Ry     beta= 0.70
     Davidson diagonalization with overlap

---- Real-time Memory Report at c_bands before calling an iterative solver
           877 MiB given to the printing process from OS
             0 MiB allocation reported by mallinfo(arena+hblkhd)
        135947 MiB available memory on the node where the printing process lives
------------------
     ethr =  1.83E-03,  avg # of iterations =  2.0

     total cpu time spent up to now is      147.3 secs

     total energy              =   -2163.76600499 Ry
     estimated scf accuracy    <      19.92878094 Ry

     iteration # 76     ecut=    30.00 Ry     beta= 0.70
     Davidson diagonalization with overlap

---- Real-time Memory Report at c_bands before calling an iterative solver
           877 MiB given to the printing process from OS
             0 MiB allocation reported by mallinfo(arena+hblkhd)
        135949 MiB available memory on the node where the printing process lives
------------------
     ethr =  1.83E-03,  avg # of iterations =  1.0

     total cpu time spent up to now is      149.0 secs

     total energy              =   -2163.77524816 Ry
     estimated scf accuracy    <      22.45788871 Ry

     iteration # 77     ecut=    30.00 Ry     beta= 0.70
     Davidson diagonalization with overlap

---- Real-time Memory Report at c_bands before calling an iterative solver
           877 MiB given to the printing process from OS
             0 MiB allocation reported by mallinfo(arena+hblkhd)
        135949 MiB available memory on the node where the printing process lives
------------------
     ethr =  1.83E-03,  avg # of iterations =  1.0

     total cpu time spent up to now is      150.6 secs

     total energy              =   -2163.79210811 Ry
     estimated scf accuracy    <      20.27072522 Ry

     iteration # 78     ecut=    30.00 Ry     beta= 0.70
     Davidson diagonalization with overlap

---- Real-time Memory Report at c_bands before calling an iterative solver
           877 MiB given to the printing process from OS
             0 MiB allocation reported by mallinfo(arena+hblkhd)
        135949 MiB available memory on the node where the printing process lives
------------------
     ethr =  1.83E-03,  avg # of iterations =  1.0

     total cpu time spent up to now is      152.3 secs

     total energy              =   -2161.15788251 Ry
     estimated scf accuracy    <      30.94842988 Ry

     iteration # 79     ecut=    30.00 Ry     beta= 0.70
     Davidson diagonalization with overlap

---- Real-time Memory Report at c_bands before calling an iterative solver
           877 MiB given to the printing process from OS
             0 MiB allocation reported by mallinfo(arena+hblkhd)
        135949 MiB available memory on the node where the printing process lives
------------------
     ethr =  1.83E-03,  avg # of iterations = 19.0

     total cpu time spent up to now is      154.3 secs

     total energy              =   -2157.20496688 Ry
     estimated scf accuracy    <     548.32558641 Ry

     iteration # 80     ecut=    30.00 Ry     beta= 0.70
     Davidson diagonalization with overlap

---- Real-time Memory Report at c_bands before calling an iterative solver
           877 MiB given to the printing process from OS
             0 MiB allocation reported by mallinfo(arena+hblkhd)
        135950 MiB available memory on the node where the printing process lives
------------------
     c_bands:  1 eigenvalues not converged
     ethr =  1.83E-03,  avg # of iterations = 20.0

     total cpu time spent up to now is      156.3 secs

     total energy              =   -2163.03704623 Ry
     estimated scf accuracy    <     109.41096657 Ry

     iteration # 81     ecut=    30.00 Ry     beta= 0.70
     Davidson diagonalization with overlap

---- Real-time Memory Report at c_bands before calling an iterative solver
           877 MiB given to the printing process from OS
             0 MiB allocation reported by mallinfo(arena+hblkhd)
        135950 MiB available memory on the node where the printing process lives
------------------
     ethr =  1.83E-03,  avg # of iterations = 10.0

     total cpu time spent up to now is      158.1 secs

     total energy              =   -2162.88249306 Ry
     estimated scf accuracy    <     206.78333452 Ry

     iteration # 82     ecut=    30.00 Ry     beta= 0.70
     Davidson diagonalization with overlap

---- Real-time Memory Report at c_bands before calling an iterative solver
           877 MiB given to the printing process from OS
             0 MiB allocation reported by mallinfo(arena+hblkhd)
        135943 MiB available memory on the node where the printing process lives
------------------
     ethr =  1.83E-03,  avg # of iterations =  5.0

     total cpu time spent up to now is      159.8 secs

     total energy              =   -2163.80942905 Ry
     estimated scf accuracy    <      52.32441742 Ry

     iteration # 83     ecut=    30.00 Ry     beta= 0.70
     Davidson diagonalization with overlap

---- Real-time Memory Report at c_bands before calling an iterative solver
           877 MiB given to the printing process from OS
             0 MiB allocation reported by mallinfo(arena+hblkhd)
        135945 MiB available memory on the node where the printing process lives
------------------
     ethr =  1.83E-03,  avg # of iterations =  2.0

     total cpu time spent up to now is      161.4 secs

     total energy              =   -2163.85180532 Ry
     estimated scf accuracy    <      44.89108318 Ry

     iteration # 84     ecut=    30.00 Ry     beta= 0.70
     Davidson diagonalization with overlap

---- Real-time Memory Report at c_bands before calling an iterative solver
           877 MiB given to the printing process from OS
             0 MiB allocation reported by mallinfo(arena+hblkhd)
        135946 MiB available memory on the node where the printing process lives
------------------
     ethr =  1.83E-03,  avg # of iterations =  2.0

     total cpu time spent up to now is      163.1 secs

     total energy              =   -2163.74657069 Ry
     estimated scf accuracy    <      33.07491182 Ry

     iteration # 85     ecut=    30.00 Ry     beta= 0.70
     Davidson diagonalization with overlap

---- Real-time Memory Report at c_bands before calling an iterative solver
           877 MiB given to the printing process from OS
             0 MiB allocation reported by mallinfo(arena+hblkhd)
        135945 MiB available memory on the node where the printing process lives
------------------
     ethr =  1.83E-03,  avg # of iterations =  1.0

     total cpu time spent up to now is      164.7 secs

     total energy              =   -2163.68286962 Ry
     estimated scf accuracy    <      32.43200190 Ry

     iteration # 86     ecut=    30.00 Ry     beta= 0.70
     Davidson diagonalization with overlap

---- Real-time Memory Report at c_bands before calling an iterative solver
           877 MiB given to the printing process from OS
             0 MiB allocation reported by mallinfo(arena+hblkhd)
        135946 MiB available memory on the node where the printing process lives
------------------
     ethr =  1.83E-03,  avg # of iterations =  2.0

     total cpu time spent up to now is      166.3 secs

     total energy              =   -2160.35245485 Ry
     estimated scf accuracy    <      31.13934991 Ry

     iteration # 87     ecut=    30.00 Ry     beta= 0.70
     Davidson diagonalization with overlap

---- Real-time Memory Report at c_bands before calling an iterative solver
           877 MiB given to the printing process from OS
             0 MiB allocation reported by mallinfo(arena+hblkhd)
        135947 MiB available memory on the node where the printing process lives
------------------
     ethr =  1.83E-03,  avg # of iterations = 18.0

     total cpu time spent up to now is      168.4 secs

     total energy              =   -2166.13463958 Ry
     estimated scf accuracy    <     566.81871354 Ry

     iteration # 88     ecut=    30.00 Ry     beta= 0.70
     Davidson diagonalization with overlap

---- Real-time Memory Report at c_bands before calling an iterative solver
           877 MiB given to the printing process from OS
             0 MiB allocation reported by mallinfo(arena+hblkhd)
        135943 MiB available memory on the node where the printing process lives
------------------
     ethr =  1.83E-03,  avg # of iterations = 14.0

     total cpu time spent up to now is      170.4 secs

     total energy              =   -2158.46107847 Ry
     estimated scf accuracy    <     607.36889869 Ry

     iteration # 89     ecut=    30.00 Ry     beta= 0.70
     Davidson diagonalization with overlap

---- Real-time Memory Report at c_bands before calling an iterative solver
           877 MiB given to the printing process from OS
             0 MiB allocation reported by mallinfo(arena+hblkhd)
        135947 MiB available memory on the node where the printing process lives
------------------
     ethr =  1.83E-03,  avg # of iterations =  8.0

     total cpu time spent up to now is      172.3 secs

     total energy              =   -2158.57386524 Ry
     estimated scf accuracy    <     241.19196519 Ry

     iteration # 90     ecut=    30.00 Ry     beta= 0.70
     Davidson diagonalization with overlap

---- Real-time Memory Report at c_bands before calling an iterative solver
           877 MiB given to the printing process from OS
             0 MiB allocation reported by mallinfo(arena+hblkhd)
        135948 MiB available memory on the node where the printing process lives
------------------
     ethr =  1.83E-03,  avg # of iterations = 18.0

     total cpu time spent up to now is      174.2 secs

     total energy              =   -2163.62959191 Ry
     estimated scf accuracy    <       9.67971577 Ry

     iteration # 91     ecut=    30.00 Ry     beta= 0.70
     Davidson diagonalization with overlap

---- Real-time Memory Report at c_bands before calling an iterative solver
           877 MiB given to the printing process from OS
             0 MiB allocation reported by mallinfo(arena+hblkhd)
        135949 MiB available memory on the node where the printing process lives
------------------
     ethr =  1.83E-03,  avg # of iterations = 11.0

     total cpu time spent up to now is      176.0 secs

     total energy              =   -2162.71105499 Ry
     estimated scf accuracy    <     132.89701331 Ry

     iteration # 92     ecut=    30.00 Ry     beta= 0.70
     Davidson diagonalization with overlap

---- Real-time Memory Report at c_bands before calling an iterative solver
           877 MiB given to the printing process from OS
             0 MiB allocation reported by mallinfo(arena+hblkhd)
        135948 MiB available memory on the node where the printing process lives
------------------
     ethr =  1.83E-03,  avg # of iterations =  4.0

     total cpu time spent up to now is      177.7 secs

     total energy              =   -2163.94518705 Ry
     estimated scf accuracy    <      43.17040269 Ry

     iteration # 93     ecut=    30.00 Ry     beta= 0.70
     Davidson diagonalization with overlap

---- Real-time Memory Report at c_bands before calling an iterative solver
           877 MiB given to the printing process from OS
             0 MiB allocation reported by mallinfo(arena+hblkhd)
        135949 MiB available memory on the node where the printing process lives
------------------
     ethr =  1.83E-03,  avg # of iterations =  1.0

     total cpu time spent up to now is      179.3 secs

     total energy              =   -2164.09527598 Ry
     estimated scf accuracy    <      28.57989316 Ry

     iteration # 94     ecut=    30.00 Ry     beta= 0.70
     Davidson diagonalization with overlap

---- Real-time Memory Report at c_bands before calling an iterative solver
           877 MiB given to the printing process from OS
             0 MiB allocation reported by mallinfo(arena+hblkhd)
        135949 MiB available memory on the node where the printing process lives
------------------
     ethr =  1.83E-03,  avg # of iterations = 15.0

     total cpu time spent up to now is      181.1 secs

     total energy              =   -2163.21953756 Ry
     estimated scf accuracy    <      50.10949889 Ry

     iteration # 95     ecut=    30.00 Ry     beta= 0.70
     Davidson diagonalization with overlap

---- Real-time Memory Report at c_bands before calling an iterative solver
           877 MiB given to the printing process from OS
             0 MiB allocation reported by mallinfo(arena+hblkhd)
        135949 MiB available memory on the node where the printing process lives
------------------
     ethr =  1.83E-03,  avg # of iterations =  5.0

     negative rho (up, down):  4.424E-02 0.000E+00

     total cpu time spent up to now is      182.8 secs

     total energy              =   -2159.87148145 Ry
     estimated scf accuracy    <      38.14060697 Ry

     iteration # 96     ecut=    30.00 Ry     beta= 0.70
     Davidson diagonalization with overlap

---- Real-time Memory Report at c_bands before calling an iterative solver
           877 MiB given to the printing process from OS
             0 MiB allocation reported by mallinfo(arena+hblkhd)
        135950 MiB available memory on the node where the printing process lives
------------------
     ethr =  1.83E-03,  avg # of iterations = 17.0

     total cpu time spent up to now is      184.7 secs

     total energy              =   -2157.38563034 Ry
     estimated scf accuracy    <     379.86002297 Ry

     iteration # 97     ecut=    30.00 Ry     beta= 0.70
     Davidson diagonalization with overlap

---- Real-time Memory Report at c_bands before calling an iterative solver
           877 MiB given to the printing process from OS
             0 MiB allocation reported by mallinfo(arena+hblkhd)
        135950 MiB available memory on the node where the printing process lives
------------------
     ethr =  1.83E-03,  avg # of iterations = 11.0

     total cpu time spent up to now is      186.5 secs

     total energy              =   -2162.99463297 Ry
     estimated scf accuracy    <      72.37085745 Ry

     iteration # 98     ecut=    30.00 Ry     beta= 0.70
     Davidson diagonalization with overlap

---- Real-time Memory Report at c_bands before calling an iterative solver
           877 MiB given to the printing process from OS
             0 MiB allocation reported by mallinfo(arena+hblkhd)
        135951 MiB available memory on the node where the printing process lives
------------------
     ethr =  1.83E-03,  avg # of iterations =  2.0

     total cpu time spent up to now is      188.2 secs

     total energy              =   -2163.54906774 Ry
     estimated scf accuracy    <      61.90785239 Ry

     iteration # 99     ecut=    30.00 Ry     beta= 0.70
     Davidson diagonalization with overlap

---- Real-time Memory Report at c_bands before calling an iterative solver
           877 MiB given to the printing process from OS
             0 MiB allocation reported by mallinfo(arena+hblkhd)
        135951 MiB available memory on the node where the printing process lives
------------------
     ethr =  1.83E-03,  avg # of iterations =  2.0

     total cpu time spent up to now is      190.0 secs

     total energy              =   -2163.53088085 Ry
     estimated scf accuracy    <      39.77922038 Ry

     iteration #100     ecut=    30.00 Ry     beta= 0.70
     Davidson diagonalization with overlap

---- Real-time Memory Report at c_bands before calling an iterative solver
           877 MiB given to the printing process from OS
             0 MiB allocation reported by mallinfo(arena+hblkhd)
        135950 MiB available memory on the node where the printing process lives
------------------
     ethr =  1.83E-03,  avg # of iterations =  2.0

     total cpu time spent up to now is      193.4 secs

     total energy              =   -2163.40129223 Ry
     estimated scf accuracy    <      37.58939400 Ry

     End of self-consistent calculation

     convergence NOT achieved after 100 iterations: stopping

     Writing config to output data dir new_calculations/myprefix.save/
     Message from routine punch:
     wavefunctions written to file
 
     init_run     :    289.51s CPU     14.50s WALL (       1 calls)
     electrons    :   5073.83s CPU    178.57s WALL (       1 calls)

     Called by init_run:
     wfcinit      :    115.17s CPU      4.27s WALL (       1 calls)
     wfcinit:atom :      0.06s CPU      0.00s WALL (       1 calls)
     wfcinit:wfcr :    114.80s CPU      4.25s WALL (       1 calls)
     potinit      :     71.42s CPU      2.71s WALL (       1 calls)
     hinit0       :     87.33s CPU      6.67s WALL (       1 calls)

     Called by electrons:
     c_bands      :    765.51s CPU     25.01s WALL (     100 calls)
     sum_band     :    565.21s CPU     27.05s WALL (     100 calls)
     v_of_rho     :     68.64s CPU      2.29s WALL (     101 calls)
     v_h          :      5.36s CPU      0.18s WALL (     101 calls)
     v_xc         :     63.05s CPU      2.10s WALL (     101 calls)
     newd         :    503.53s CPU     16.96s WALL (     101 calls)
     PAW_pot      :   3154.71s CPU    106.91s WALL (     101 calls)
     mix_rho      :     23.46s CPU      0.77s WALL (     100 calls)

     Called by c_bands:
     init_us_2    :      3.00s CPU      0.10s WALL (     201 calls)
     init_us_2:cp :      2.70s CPU      0.09s WALL (     201 calls)
     regterg      :    744.96s CPU     24.32s WALL (     100 calls)

     Called by sum_band:
     sum_band:wei :      0.33s CPU      0.01s WALL (     100 calls)
     sum_band:loo :    111.14s CPU      3.60s WALL (     100 calls)
     sum_band:buf :      0.08s CPU      0.00s WALL (     100 calls)
     sum_band:ini :      1.54s CPU      0.05s WALL (     100 calls)
     sum_band:cal :      2.05s CPU      0.07s WALL (     100 calls)
     sum_band:bec :      0.38s CPU      0.01s WALL (     100 calls)
     addusdens    :    433.31s CPU     22.75s WALL (     100 calls)
     addusd:skk   :      0.90s CPU      0.03s WALL (     300 calls)
     addusd:dgemm :     42.86s CPU      9.90s WALL (     300 calls)
     addusd:qvan2 :    374.26s CPU     12.12s WALL (     300 calls)

     Called by *egterg:
     rdiaghg      :     45.73s CPU      1.51s WALL (     656 calls)
     regterg:over :     16.86s CPU      0.60s WALL (     556 calls)
     regterg:upda :      3.94s CPU      0.13s WALL (     556 calls)
     regterg:last :      8.84s CPU      0.29s WALL (     247 calls)
     h_psi        :    766.49s CPU     25.43s WALL (     657 calls)
     s_psi        :      1.48s CPU      0.05s WALL (     657 calls)
     g_psi        :      0.56s CPU      0.02s WALL (     556 calls)

     Called by h_psi:
     h_psi:calbec :     13.00s CPU      0.46s WALL (     657 calls)
     vloc_psi     :    746.86s CPU     24.75s WALL (     657 calls)
     add_vuspsi   :      3.01s CPU      0.10s WALL (     657 calls)

     General routines
     calbec       :     14.06s CPU      0.50s WALL (     757 calls)
     fft          :     84.54s CPU      5.01s WALL (    1111 calls)
     ffts         :     41.81s CPU      1.55s WALL (     201 calls)
     fftw         :    753.55s CPU     24.90s WALL (   15216 calls)
     interpolate  :     46.05s CPU      1.70s WALL (     101 calls)
     davcio       :      0.43s CPU      0.02s WALL (      19 calls)
 
     Parallel routines

     PAW routines
     PAW_pot      :   3154.71s CPU    106.91s WALL (     101 calls)
     PAW_symme    :     20.97s CPU      0.71s WALL (     201 calls)
 
     PWSCF        :      1h29m CPU   3m13.52s WALL

 
   This run was terminated on:  22:32:46  20May2023            

=------------------------------------------------------------------------------=
   JOB DONE.
=------------------------------------------------------------------------------=
