
     Program PWSCF v.7.0 starts on 21May2023 at  1: 2:13 

     This program is part of the open-source Quantum ESPRESSO suite
     for quantum simulation of materials; please cite
         "P. Giannozzi et al., J. Phys.:Condens. Matter 21 395502 (2009);
         "P. Giannozzi et al., J. Phys.:Condens. Matter 29 465901 (2017);
         "P. Giannozzi et al., J. Chem. Phys. 152 154105 (2020);
          URL http://www.quantum-espresso.org", 
     in publications or presentations arising from this work. More details at
     http://www.quantum-espresso.org/quote

     Parallel version (MPI & OpenMP), running on      32 processor cores
     Number of MPI processes:                 1
     Threads/MPI process:                    32

     MPI processes distributed on     1 nodes
     129754 MiB available memory on the printing compute node when the environment starts
 
     Reading input from espresso_10870.pwi
Warning: card &CELL ignored
Warning: card / ignored

     Current dimensions of program PWSCF are:
     Max number of different atomic species (ntypx) = 10
     Max number of k-points (npk) =  40000
     Max angular momentum in pseudopotentials (lmaxx) =  4
     file In.pbe-dn-rrkjus_psl.0.2.2.UPF: wavefunction(s)  5S renormalized

     gamma-point specific algorithms are used
     Message from routine setup:
     using ibrav=0 with symmetry is DISCOURAGED, use correct ibrav instead

     Subspace diagonalization in iterative solution of the eigenvalue problem:
     a serial algorithm will be used

 
     G-vector sticks info
     --------------------
     sticks:   dense  smooth     PW     G-vecs:    dense   smooth      PW
     Sum        2017    1003    253                59535    20875    2685
 
     Using Slab Decomposition
 


     bravais-lattice index     =            0
     lattice parameter (alat)  =      11.0248  a.u.
     unit-cell volume          =     947.5291 (a.u.)^3
     number of atoms/cell      =            4
     number of atomic types    =            3
     number of electrons       =        46.00
     number of Kohn-Sham states=           28
     kinetic-energy cutoff     =      30.0000  Ry
     charge density cutoff     =     240.0000  Ry
     scf convergence threshold =      1.0E-06
     mixing beta               =       0.7000
     number of iterations used =            8  plain     mixing
     Exchange-correlation= PBE
                           (   1   4   3   4   0   0   0)

     celldm(1)=  11.024761  celldm(2)=   0.000000  celldm(3)=   0.000000
     celldm(4)=   0.000000  celldm(5)=   0.000000  celldm(6)=   0.000000

     crystal axes: (cart. coord. in units of alat)
               a(1) = (   1.000000   0.000000   0.000000 )  
               a(2) = (   0.500000   0.866025   0.000000 )  
               a(3) = (   0.500000   0.288675   0.816497 )  

     reciprocal axes: (cart. coord. in units 2 pi/alat)
               b(1) = (  1.000000 -0.577350 -0.408248 )  
               b(2) = (  0.000000  1.154701 -0.408248 )  
               b(3) = (  0.000000  0.000000  1.224745 )  


     PseudoPot. # 1 for Sr read from file:
     /home/pragov/projects/rrg-bengioy-ad/pragov/crystal_structure_design/SSSP/Sr_pbe_v1.uspp.F.UPF
     MD5 check sum: 6b418c05fbe9db5448babca5e47b7a5b
     Pseudo is Ultrasoft + core correction, Zval = 10.0
     Generated by new atomic code, or converted to UPF format
     Using radial grid of  883 points,  6 beta functions with: 
                l(1) =   0
                l(2) =   0
                l(3) =   1
                l(4) =   1
                l(5) =   2
                l(6) =   2
     Q(r) pseudized with  6 coefficients,  rinner =    1.400   1.400   1.400
                                                       1.400   1.400

     PseudoPot. # 2 for Tl read from file:
     /home/pragov/projects/rrg-bengioy-ad/pragov/crystal_structure_design/SSSP/Tl_pbe_v1.2.uspp.F.UPF
     MD5 check sum: b76cf1f7e72655a2b2c53cf6385d7059
     Pseudo is Ultrasoft + core correction, Zval = 13.0
     Generated by new atomic code, or converted to UPF format
     Using radial grid of  899 points,  6 beta functions with: 
                l(1) =   0
                l(2) =   0
                l(3) =   1
                l(4) =   1
                l(5) =   2
                l(6) =   2
     Q(r) pseudized with  6 coefficients,  rinner =    1.100   1.100   1.100
                                                       1.100   1.100

     PseudoPot. # 3 for In read from file:
     /home/pragov/projects/rrg-bengioy-ad/pragov/crystal_structure_design/SSSP/In.pbe-dn-rrkjus_psl.0.2.2.UPF
     MD5 check sum: 25e7c42c3b55b68f4bf926be2e7201a4
     Pseudo is Ultrasoft + core correction, Zval = 13.0
     Generated using "atomic" code by A. Dal Corso  v.5.0.99 svn rev. 10869
     Using radial grid of 1241 points,  6 beta functions with: 
                l(1) =   0
                l(2) =   0
                l(3) =   1
                l(4) =   1
                l(5) =   2
                l(6) =   2
     Q(r) pseudized with 0 coefficients 


     atomic species   valence    mass     pseudopotential
        Sr            10.00    87.62000     Sr( 1.00)
        Tl            13.00   204.38000     Tl( 1.00)
        In            13.00   114.81800     In( 1.00)

     12 Sym. Ops., with inversion, found


                                    s                        frac. trans.

      isym =  1     identity                                     

 cryst.   s( 1) = (     1          0          0      )
                  (     0          1          0      )
                  (     0          0          1      )

 cart.    s( 1) = (  1.0000000  0.0000000  0.0000000 )
                  (  0.0000000  1.0000000  0.0000000 )
                  (  0.0000000  0.0000000  1.0000000 )


      isym =  2     180 deg rotation - cart. axis [1,0,0]        

 cryst.   s( 2) = (     1          0          0      )
                  (     1         -1          0      )
                  (     1          0         -1      )

 cart.    s( 2) = (  1.0000000  0.0000000  0.0000000 )
                  (  0.0000000 -1.0000000 -0.0000000 )
                  (  0.0000000  0.0000000 -1.0000000 )


      isym =  3     120 deg rotation - cryst. axis [0,0,1]       

 cryst.   s( 3) = (    -1          1          0      )
                  (    -1          0          0      )
                  (    -1          0          1      )

 cart.    s( 3) = ( -0.5000000 -0.8660254  0.0000000 )
                  (  0.8660254 -0.5000000  0.0000000 )
                  (  0.0000000  0.0000000  1.0000000 )


      isym =  4     120 deg rotation - cryst. axis [0,0,-1]      

 cryst.   s( 4) = (     0         -1          0      )
                  (     1         -1          0      )
                  (     0         -1          1      )

 cart.    s( 4) = ( -0.5000000  0.8660254 -0.0000000 )
                  ( -0.8660254 -0.5000000  0.0000000 )
                  (  0.0000000  0.0000000  1.0000000 )


      isym =  5     180 deg rotation - cryst. axis [0,1,0]       

 cryst.   s( 5) = (     0         -1          0      )
                  (    -1          0          0      )
                  (     0          0         -1      )

 cart.    s( 5) = ( -0.5000000 -0.8660254  0.0000000 )
                  ( -0.8660254  0.5000000 -0.0000000 )
                  (  0.0000000  0.0000000 -1.0000000 )


      isym =  6     180 deg rotation - cryst. axis [1,1,0]       

 cryst.   s( 6) = (    -1          1          0      )
                  (     0          1          0      )
                  (     0          1         -1      )

 cart.    s( 6) = ( -0.5000000  0.8660254 -0.0000000 )
                  (  0.8660254  0.5000000 -0.0000000 )
                  (  0.0000000  0.0000000 -1.0000000 )


      isym =  7     inversion                                    

 cryst.   s( 7) = (    -1          0          0      )
                  (     0         -1          0      )
                  (     0          0         -1      )

 cart.    s( 7) = ( -1.0000000  0.0000000  0.0000000 )
                  (  0.0000000 -1.0000000 -0.0000000 )
                  (  0.0000000  0.0000000 -1.0000000 )


      isym =  8     inv. 180 deg rotation - cart. axis [1,0,0]   

 cryst.   s( 8) = (    -1          0          0      )
                  (    -1          1          0      )
                  (    -1          0          1      )

 cart.    s( 8) = ( -1.0000000  0.0000000  0.0000000 )
                  (  0.0000000  1.0000000  0.0000000 )
                  (  0.0000000  0.0000000  1.0000000 )


      isym =  9     inv. 120 deg rotation - cryst. axis [0,0,1]  

 cryst.   s( 9) = (     1         -1          0      )
                  (     1          0          0      )
                  (     1          0         -1      )

 cart.    s( 9) = (  0.5000000  0.8660254 -0.0000000 )
                  ( -0.8660254  0.5000000 -0.0000000 )
                  (  0.0000000  0.0000000 -1.0000000 )


      isym = 10     inv. 120 deg rotation - cryst. axis [0,0,-1] 

 cryst.   s(10) = (     0          1          0      )
                  (    -1          1          0      )
                  (     0          1         -1      )

 cart.    s(10) = (  0.5000000 -0.8660254  0.0000000 )
                  (  0.8660254  0.5000000 -0.0000000 )
                  (  0.0000000  0.0000000 -1.0000000 )


      isym = 11     inv. 180 deg rotation - cryst. axis [0,1,0]  

 cryst.   s(11) = (     0          1          0      )
                  (     1          0          0      )
                  (     0          0          1      )

 cart.    s(11) = (  0.5000000  0.8660254 -0.0000000 )
                  (  0.8660254 -0.5000000  0.0000000 )
                  (  0.0000000  0.0000000  1.0000000 )


      isym = 12     inv. 180 deg rotation - cryst. axis [1,1,0]  

 cryst.   s(12) = (     1         -1          0      )
                  (     0         -1          0      )
                  (     0         -1          1      )

 cart.    s(12) = (  0.5000000 -0.8660254  0.0000000 )
                  ( -0.8660254 -0.5000000  0.0000000 )
                  (  0.0000000  0.0000000  1.0000000 )


   Cartesian axes

     site n.     atom                  positions (alat units)
         1           Sr  tau(   1) = (   0.5000000   0.2886751   0.2041241  )
         2           Sr  tau(   2) = (   1.5000000   0.8660254   0.6123724  )
         3           Tl  tau(   3) = (   0.0000000   0.0000000   0.0000000  )
         4           In  tau(   4) = (   1.0000000   0.5773503   0.4082483  )

   Crystallographic axes

     site n.     atom                  positions (cryst. coord.)
         1           Sr  tau(   1) = (  0.2500000  0.2500000  0.2500000  )
         2           Sr  tau(   2) = (  0.7500000  0.7500000  0.7500000  )
         3           Tl  tau(   3) = (  0.0000000  0.0000000  0.0000000  )
         4           In  tau(   4) = (  0.5000000  0.5000000  0.5000000  )

     number of k points=     1  Methfessel-Paxton smearing, width (Ry)=  0.0010
                       cart. coord. in units 2pi/alat
        k(    1) = (   0.0000000   0.0000000   0.0000000), wk =   2.0000000

                       cryst. coord.
        k(    1) = (   0.0000000   0.0000000   0.0000000), wk =   2.0000000

     Dense  grid:    29768 G-vectors     FFT dimensions: (  60,  60,  60)

     Smooth grid:    10438 G-vectors     FFT dimensions: (  40,  40,  40)

     Dynamical RAM for                 wfc:       0.56 MB

     Dynamical RAM for     wfc (w. buffer):       0.56 MB

     Dynamical RAM for           str. fact:       1.36 MB

     Dynamical RAM for           local pot:       0.00 MB

     Dynamical RAM for          nlocal pot:       1.44 MB

     Dynamical RAM for                qrad:       3.73 MB

     Dynamical RAM for          rho,v,vnew:       6.31 MB

     Dynamical RAM for               rhoin:       2.10 MB

     Dynamical RAM for            rho*nmix:       7.27 MB

     Dynamical RAM for           G-vectors:       1.78 MB

     Dynamical RAM for          h,s,v(r/c):       0.07 MB

     Dynamical RAM for          <psi|beta>:       0.02 MB

     Dynamical RAM for                 psi:       1.12 MB

     Dynamical RAM for                hpsi:       1.12 MB

     Dynamical RAM for                spsi:       1.12 MB

     Dynamical RAM for      wfcinit/wfcrot:       1.81 MB

     Dynamical RAM for           addusdens:      85.39 MB

     Dynamical RAM for          addusforce:      86.54 MB

     Dynamical RAM for         addusstress:      91.30 MB

     Estimated static dynamical RAM per process >      27.35 MB

     Estimated max dynamical RAM per process >     125.92 MB

     Check: negative core charge=   -0.000004

     Initial potential from superposition of free atoms

     starting charge      45.9241, renormalised to      46.0000

     negative rho (up, down):  1.778E-01 0.000E+00
     Starting wfcs are   44 randomized atomic wfcs

     total cpu time spent up to now is        3.5 secs

     Self-consistent Calculation

     iteration #  1     ecut=    30.00 Ry     beta= 0.70
     Davidson diagonalization with overlap

---- Real-time Memory Report at c_bands before calling an iterative solver
           350 MiB given to the printing process from OS
             0 MiB allocation reported by mallinfo(arena+hblkhd)
        129663 MiB available memory on the node where the printing process lives
------------------
     ethr =  1.00E-02,  avg # of iterations =  2.0

     Threshold (ethr) on eigenvalues was too large:
     Diagonalizing with lowered threshold

     Davidson diagonalization with overlap

---- Real-time Memory Report at c_bands before calling an iterative solver
           374 MiB given to the printing process from OS
             0 MiB allocation reported by mallinfo(arena+hblkhd)
        129639 MiB available memory on the node where the printing process lives
------------------
     ethr =  2.37E-04,  avg # of iterations =  2.0

     negative rho (up, down):  1.771E-01 0.000E+00

     total cpu time spent up to now is        4.2 secs

     total energy              =    -430.25882369 Ry
     estimated scf accuracy    <       0.10383293 Ry

     iteration #  2     ecut=    30.00 Ry     beta= 0.70
     Davidson diagonalization with overlap

---- Real-time Memory Report at c_bands before calling an iterative solver
           398 MiB given to the printing process from OS
             0 MiB allocation reported by mallinfo(arena+hblkhd)
        129609 MiB available memory on the node where the printing process lives
------------------
     ethr =  2.26E-04,  avg # of iterations =  3.0

     negative rho (up, down):  1.795E-01 0.000E+00

     total cpu time spent up to now is        4.7 secs

     total energy              =    -430.28379752 Ry
     estimated scf accuracy    <       0.00951821 Ry

     iteration #  3     ecut=    30.00 Ry     beta= 0.70
     Davidson diagonalization with overlap

---- Real-time Memory Report at c_bands before calling an iterative solver
           407 MiB given to the printing process from OS
             0 MiB allocation reported by mallinfo(arena+hblkhd)
        129603 MiB available memory on the node where the printing process lives
------------------
     ethr =  2.07E-05,  avg # of iterations =  2.0

     negative rho (up, down):  1.798E-01 0.000E+00

     total cpu time spent up to now is        5.1 secs

     total energy              =    -430.28587061 Ry
     estimated scf accuracy    <       0.00353718 Ry

     iteration #  4     ecut=    30.00 Ry     beta= 0.70
     Davidson diagonalization with overlap

---- Real-time Memory Report at c_bands before calling an iterative solver
           407 MiB given to the printing process from OS
             0 MiB allocation reported by mallinfo(arena+hblkhd)
        129602 MiB available memory on the node where the printing process lives
------------------
     ethr =  7.69E-06,  avg # of iterations =  2.0

     negative rho (up, down):  1.800E-01 0.000E+00

     total cpu time spent up to now is        5.5 secs

     total energy              =    -430.28698765 Ry
     estimated scf accuracy    <       0.00048147 Ry

     iteration #  5     ecut=    30.00 Ry     beta= 0.70
     Davidson diagonalization with overlap

---- Real-time Memory Report at c_bands before calling an iterative solver
           408 MiB given to the printing process from OS
             0 MiB allocation reported by mallinfo(arena+hblkhd)
        129601 MiB available memory on the node where the printing process lives
------------------
     ethr =  1.05E-06,  avg # of iterations =  3.0

     negative rho (up, down):  1.799E-01 0.000E+00

     total cpu time spent up to now is        6.0 secs

     total energy              =    -430.28711339 Ry
     estimated scf accuracy    <       0.00001950 Ry

     iteration #  6     ecut=    30.00 Ry     beta= 0.70
     Davidson diagonalization with overlap

---- Real-time Memory Report at c_bands before calling an iterative solver
           408 MiB given to the printing process from OS
             0 MiB allocation reported by mallinfo(arena+hblkhd)
        129600 MiB available memory on the node where the printing process lives
------------------
     ethr =  4.24E-08,  avg # of iterations =  4.0

     negative rho (up, down):  1.799E-01 0.000E+00

     total cpu time spent up to now is        6.4 secs

     total energy              =    -430.28711956 Ry
     estimated scf accuracy    <       0.00000310 Ry

     iteration #  7     ecut=    30.00 Ry     beta= 0.70
     Davidson diagonalization with overlap

---- Real-time Memory Report at c_bands before calling an iterative solver
           410 MiB given to the printing process from OS
             0 MiB allocation reported by mallinfo(arena+hblkhd)
        129599 MiB available memory on the node where the printing process lives
------------------
     ethr =  6.74E-09,  avg # of iterations =  2.0

     negative rho (up, down):  1.799E-01 0.000E+00

     total cpu time spent up to now is        6.8 secs

     End of self-consistent calculation

          k = 0.0000 0.0000 0.0000 (  1343 PWs)   bands (ev):

   -27.8746 -27.8521  -9.9434  -9.9434  -9.9433  -9.8223  -9.8223  -9.8223
    -5.9097  -5.9096  -5.9096  -5.8885  -5.8885  -3.0443  -3.0443  -3.0442
    -3.0037  -3.0037   0.9431   4.3537   6.8397   6.8397   6.8397   9.5035
     9.5035  10.8114  10.8114  10.8114

     occupation numbers 
     1.0000   1.0000   1.0000   1.0000   1.0000   1.0000   1.0000   1.0000
     1.0000   1.0000   1.0000   1.0000   1.0000   1.0000   1.0000   1.0000
     1.0000   1.0000   1.0000   1.0000   1.0000   1.0000   1.0000  -0.0000
    -0.0000  -0.0000  -0.0000  -0.0000

     the Fermi energy is     8.5126 ev

!    total energy              =    -430.28712019 Ry
     estimated scf accuracy    <       0.00000021 Ry
     smearing contrib. (-TS)   =       0.00000000 Ry
     internal energy E=F+TS    =    -430.28712019 Ry

     The total energy is F=E-TS. E is the sum of the following terms:
     one-electron contribution =    -121.24226853 Ry
     hartree contribution      =      86.44071750 Ry
     xc contribution           =    -146.18443054 Ry
     ewald contribution        =    -249.30113863 Ry

     convergence has been achieved in   7 iterations

     negative rho (up, down):  1.799E-01 0.000E+00

     Forces acting on atoms (cartesian axes, Ry/au):

     atom    1 type  1   force =     0.00000000    0.00000000   -0.00003054
     atom    2 type  1   force =     0.00000000    0.00000000    0.00003054
     atom    3 type  2   force =    -0.00000000   -0.00000000    0.00000000
     atom    4 type  3   force =     0.00000000    0.00000000    0.00000000
     The non-local contrib.  to forces
     atom    1 type  1   force =     0.00000000    0.00000000    0.00002220
     atom    2 type  1   force =     0.00000000    0.00000000   -0.00002220
     atom    3 type  2   force =     0.00000000    0.00000000   -0.00000000
     atom    4 type  3   force =    -0.00000000    0.00000000    0.00000000
     The ionic contribution  to forces
     atom    1 type  1   force =     0.00000000    0.00000000   -0.00000000
     atom    2 type  1   force =     0.00000000   -0.00000000    0.00000000
     atom    3 type  2   force =     0.00000000    0.00000000   -0.00000000
     atom    4 type  3   force =    -0.00000000   -0.00000000    0.00000000
     The local contribution  to forces
     atom    1 type  1   force =    -0.00014476    0.00004523   -0.00008924
     atom    2 type  1   force =    -0.00000825    0.00005461    0.00005264
     atom    3 type  2   force =     0.00000589    0.00001079    0.00003341
     atom    4 type  3   force =     0.00011673    0.00001607    0.00004528
     The core correction contribution to forces
     atom    1 type  1   force =    -0.00000645   -0.00000598   -0.00000552
     atom    2 type  1   force =     0.00000190    0.00000504    0.00000126
     atom    3 type  2   force =     0.00000083    0.00000330   -0.00000370
     atom    4 type  3   force =     0.00000139    0.00000278    0.00000449
     The Hubbard contrib.    to forces
     atom    1 type  1   force =     0.00000000    0.00000000    0.00000000
     atom    2 type  1   force =     0.00000000    0.00000000    0.00000000
     atom    3 type  2   force =     0.00000000    0.00000000    0.00000000
     atom    4 type  3   force =     0.00000000    0.00000000    0.00000000
     The SCF correction term to forces
     atom    1 type  1   force =     0.00000901   -0.00003108    0.00000261
     atom    2 type  1   force =     0.00004939   -0.00001190   -0.00004059
     atom    3 type  2   force =    -0.00006828   -0.00002639   -0.00008982
     atom    4 type  3   force =    -0.00017637    0.00000771   -0.00009424

     Total force =     0.000043     Total SCF correction =     0.000242
     SCF correction compared to forces is large: reduce conv_thr to get better values


     Computing stress (Cartesian axis) and pressure


     negative rho (up, down):  1.799E-01 0.000E+00
          total   stress  (Ry/bohr**3)                   (kbar)     P=      -78.87
  -0.00053619   0.00000000  -0.00000000          -78.88        0.00       -0.00
   0.00000000  -0.00053619   0.00000000            0.00      -78.88        0.00
   0.00000000   0.00000000  -0.00053606            0.00        0.00      -78.86

     kinetic stress (kbar)   8489.90     -0.00     -0.00
                               -0.00   8489.90     -0.00
                               -0.00     -0.00   8489.91

     local   stress (kbar)  -3025.40     -0.00     -0.00
                               -0.00  -3025.41      0.00
                               -0.00      0.00  -3025.40

     nonloc. stress (kbar)   6639.84      0.00      0.00
                                0.00   6639.84     -0.00
                                0.00     -0.00   6639.85

     hartree stress (kbar)   4473.34      0.00     -0.00
                                0.00   4473.35      0.00
                               -0.00      0.00   4473.34

     exc-cor stress (kbar)  11397.40      0.00      0.00
                                0.00  11397.40     -0.00
                                0.00     -0.00  11397.40

     corecor stress (kbar) -15152.53      0.00      0.00
                                0.00 -15152.53      0.00
                                0.00      0.00 -15152.53

     ewald   stress (kbar) -12901.44     -0.00      0.00
                               -0.00 -12901.44     -0.00
                                0.00     -0.00 -12901.44

     hubbard stress (kbar)      0.00      0.00      0.00
                                0.00      0.00      0.00
                                0.00      0.00      0.00

     DFT-D   stress (kbar)      0.00      0.00      0.00
                                0.00      0.00      0.00
                                0.00      0.00      0.00

     XDM     stress (kbar)      0.00      0.00      0.00
                                0.00      0.00      0.00
                                0.00      0.00      0.00

     dft-nl  stress (kbar)      0.00      0.00      0.00
                                0.00      0.00      0.00
                                0.00      0.00      0.00

     TS-vdW  stress (kbar)      0.00      0.00      0.00
                                0.00      0.00      0.00
                                0.00      0.00      0.00


                                0.00      0.00      0.00
                                0.00      0.00      0.00


                                0.00      0.00      0.00


     Writing all to output data dir new_calculations/myprefix.save/
 
     init_run     :     78.41s CPU      3.25s WALL (       1 calls)
     electrons    :     99.86s CPU      3.34s WALL (       1 calls)
     forces       :      3.55s CPU      0.12s WALL (       1 calls)
     stress       :     10.44s CPU      0.35s WALL (       1 calls)

     Called by init_run:
     wfcinit      :     21.37s CPU      0.69s WALL (       1 calls)
     wfcinit:atom :      0.03s CPU      0.00s WALL (       1 calls)
     wfcinit:wfcr :     21.16s CPU      0.69s WALL (       1 calls)
     potinit      :     16.94s CPU      0.56s WALL (       1 calls)
     hinit0       :     37.71s CPU      1.90s WALL (       1 calls)

     Called by electrons:
     c_bands      :     48.72s CPU      1.55s WALL (       8 calls)
     sum_band     :     27.11s CPU      0.99s WALL (       8 calls)
     v_of_rho     :      5.37s CPU      0.18s WALL (       8 calls)
     v_h          :      0.41s CPU      0.01s WALL (       8 calls)
     v_xc         :      5.92s CPU      0.20s WALL (      10 calls)
     newd         :     19.36s CPU      0.64s WALL (       8 calls)
     mix_rho      :      0.88s CPU      0.03s WALL (       8 calls)

     Called by c_bands:
     init_us_2    :      0.22s CPU      0.01s WALL (      17 calls)
     init_us_2:cp :      0.20s CPU      0.01s WALL (      17 calls)
     regterg      :     48.16s CPU      1.53s WALL (       8 calls)

     Called by sum_band:
     sum_band:wei :      0.01s CPU      0.00s WALL (       8 calls)
     sum_band:loo :      8.29s CPU      0.26s WALL (       8 calls)
     sum_band:buf :      0.01s CPU      0.00s WALL (       8 calls)
     sum_band:ini :      0.08s CPU      0.00s WALL (       8 calls)
     sum_band:cal :      0.04s CPU      0.00s WALL (       8 calls)
     sum_band:bec :      0.02s CPU      0.00s WALL (       8 calls)
     addusdens    :     18.07s CPU      0.71s WALL (       8 calls)
     addusd:skk   :      0.05s CPU      0.00s WALL (      24 calls)
     addusd:dgemm :      2.64s CPU      0.21s WALL (      24 calls)
     addusd:qvan2 :     14.83s CPU      0.48s WALL (      24 calls)

     Called by *egterg:
     rdiaghg      :      0.87s CPU      0.03s WALL (      27 calls)
     regterg:over :      0.09s CPU      0.00s WALL (      20 calls)
     regterg:upda :      0.13s CPU      0.00s WALL (      20 calls)
     regterg:last :      0.28s CPU      0.01s WALL (      16 calls)
     h_psi        :     66.86s CPU      2.14s WALL (      29 calls)
     s_psi        :      0.05s CPU      0.00s WALL (      29 calls)
     g_psi        :      0.02s CPU      0.00s WALL (      20 calls)

     Called by h_psi:
     h_psi:calbec :      0.17s CPU      0.01s WALL (      29 calls)
     vloc_psi     :     66.47s CPU      2.12s WALL (      29 calls)
     add_vuspsi   :      0.08s CPU      0.00s WALL (      29 calls)

     General routines
     calbec       :      0.17s CPU      0.01s WALL (      42 calls)
     fft          :     25.52s CPU      0.88s WALL (     107 calls)
     ffts         :     15.84s CPU      0.52s WALL (      16 calls)
     fftw         :     69.59s CPU      2.21s WALL (     730 calls)
     interpolate  :     16.18s CPU      0.53s WALL (       8 calls)
 
     Parallel routines
 
     PWSCF        :   3m19.51s CPU      7.93s WALL

 
   This run was terminated on:   1: 2:21  21May2023            

=------------------------------------------------------------------------------=
   JOB DONE.
=------------------------------------------------------------------------------=
