
     Program PWSCF v.7.0 starts on 21May2023 at 17:20:52 

     This program is part of the open-source Quantum ESPRESSO suite
     for quantum simulation of materials; please cite
         "P. Giannozzi et al., J. Phys.:Condens. Matter 21 395502 (2009);
         "P. Giannozzi et al., J. Phys.:Condens. Matter 29 465901 (2017);
         "P. Giannozzi et al., J. Chem. Phys. 152 154105 (2020);
          URL http://www.quantum-espresso.org", 
     in publications or presentations arising from this work. More details at
     http://www.quantum-espresso.org/quote

     Parallel version (MPI & OpenMP), running on      32 processor cores
     Number of MPI processes:                 1
     Threads/MPI process:                    32

     MPI processes distributed on     1 nodes
     170789 MiB available memory on the printing compute node when the environment starts
 
     Reading input from espresso_22896.pwi
Warning: card &CELL ignored
Warning: card / ignored

     Current dimensions of program PWSCF are:
     Max number of different atomic species (ntypx) = 10
     Max number of k-points (npk) =  40000
     Max angular momentum in pseudopotentials (lmaxx) =  4

     gamma-point specific algorithms are used
     Message from routine setup:
     using ibrav=0 with symmetry is DISCOURAGED, use correct ibrav instead

     Subspace diagonalization in iterative solution of the eigenvalue problem:
     a serial algorithm will be used

 
     G-vector sticks info
     --------------------
     sticks:   dense  smooth     PW     G-vecs:    dense   smooth      PW
     Sum        1153     577    145                29279    10395    1309
 
     Using Slab Decomposition
 


     bravais-lattice index     =            0
     lattice parameter (alat)  =       7.7518  a.u.
     unit-cell volume          =     465.8170 (a.u.)^3
     number of atoms/cell      =            7
     number of atomic types    =            2
     number of electrons       =        29.00
     number of Kohn-Sham states=           19
     kinetic-energy cutoff     =      30.0000  Ry
     charge density cutoff     =     240.0000  Ry
     scf convergence threshold =      1.0E-06
     mixing beta               =       0.7000
     number of iterations used =            8  plain     mixing
     Exchange-correlation=  SLA  PW   PBX  PBC
                           (   1   4   3   4   0   0   0)

     celldm(1)=   7.751846  celldm(2)=   0.000000  celldm(3)=   0.000000
     celldm(4)=   0.000000  celldm(5)=   0.000000  celldm(6)=   0.000000

     crystal axes: (cart. coord. in units of alat)
               a(1) = (   1.000000   0.000000   0.000000 )  
               a(2) = (   0.000000   1.000000   0.000000 )  
               a(3) = (   0.000000   0.000000   1.000000 )  

     reciprocal axes: (cart. coord. in units 2 pi/alat)
               b(1) = (  1.000000  0.000000  0.000000 )  
               b(2) = (  0.000000  1.000000  0.000000 )  
               b(3) = (  0.000000  0.000000  1.000000 )  


     PseudoPot. # 1 for Y  read from file:
     /home/pragov/projects/rrg-bengioy-ad/pragov/crystal_structure_design/SSSP/Y_pbe_v1.uspp.F.UPF
     MD5 check sum: 2cf71db95cafeb975fc457bd7f14888e
     Pseudo is Ultrasoft + core correction, Zval = 11.0
     Generated by new atomic code, or converted to UPF format
     Using radial grid of  885 points,  6 beta functions with: 
                l(1) =   0
                l(2) =   0
                l(3) =   1
                l(4) =   1
                l(5) =   2
                l(6) =   2
     Q(r) pseudized with  6 coefficients,  rinner =    1.200   1.200   1.200
                                                       1.200   1.200

     PseudoPot. # 2 for B  read from file:
     /home/pragov/projects/rrg-bengioy-ad/pragov/crystal_structure_design/SSSP/b_pbe_v1.4.uspp.F.UPF
     MD5 check sum: cc6de2960df11db49a60e589f9ebb39b
     Pseudo is Ultrasoft + core correction, Zval =  3.0
     Generated by new atomic code, or converted to UPF format
     Using radial grid of  781 points,  4 beta functions with: 
                l(1) =   0
                l(2) =   0
                l(3) =   1
                l(4) =   1
     Q(r) pseudized with  8 coefficients,  rinner =    1.100   1.100   1.100


     atomic species   valence    mass     pseudopotential
        Y             11.00    88.90584     Y ( 1.00)
        B              3.00    10.81000     B ( 1.00)

     48 Sym. Ops., with inversion, found


                                    s                        frac. trans.

      isym =  1     identity                                     

 cryst.   s( 1) = (     1          0          0      )
                  (     0          1          0      )
                  (     0          0          1      )

 cart.    s( 1) = (  1.0000000  0.0000000  0.0000000 )
                  (  0.0000000  1.0000000  0.0000000 )
                  (  0.0000000  0.0000000  1.0000000 )


      isym =  2     180 deg rotation - cart. axis [0,0,1]        

 cryst.   s( 2) = (    -1          0          0      )
                  (     0         -1          0      )
                  (     0          0          1      )

 cart.    s( 2) = ( -1.0000000  0.0000000  0.0000000 )
                  (  0.0000000 -1.0000000  0.0000000 )
                  (  0.0000000  0.0000000  1.0000000 )


      isym =  3     180 deg rotation - cart. axis [0,1,0]        

 cryst.   s( 3) = (    -1          0          0      )
                  (     0          1          0      )
                  (     0          0         -1      )

 cart.    s( 3) = ( -1.0000000  0.0000000  0.0000000 )
                  (  0.0000000  1.0000000  0.0000000 )
                  (  0.0000000  0.0000000 -1.0000000 )


      isym =  4     180 deg rotation - cart. axis [1,0,0]        

 cryst.   s( 4) = (     1          0          0      )
                  (     0         -1          0      )
                  (     0          0         -1      )

 cart.    s( 4) = (  1.0000000  0.0000000  0.0000000 )
                  (  0.0000000 -1.0000000  0.0000000 )
                  (  0.0000000  0.0000000 -1.0000000 )


      isym =  5     180 deg rotation - cart. axis [1,1,0]        

 cryst.   s( 5) = (     0          1          0      )
                  (     1          0          0      )
                  (     0          0         -1      )

 cart.    s( 5) = (  0.0000000  1.0000000  0.0000000 )
                  (  1.0000000  0.0000000  0.0000000 )
                  (  0.0000000  0.0000000 -1.0000000 )


      isym =  6     180 deg rotation - cart. axis [1,-1,0]       

 cryst.   s( 6) = (     0         -1          0      )
                  (    -1          0          0      )
                  (     0          0         -1      )

 cart.    s( 6) = (  0.0000000 -1.0000000  0.0000000 )
                  ( -1.0000000  0.0000000  0.0000000 )
                  (  0.0000000  0.0000000 -1.0000000 )


      isym =  7      90 deg rotation - cart. axis [0,0,-1]       

 cryst.   s( 7) = (     0         -1          0      )
                  (     1          0          0      )
                  (     0          0          1      )

 cart.    s( 7) = (  0.0000000  1.0000000  0.0000000 )
                  ( -1.0000000  0.0000000  0.0000000 )
                  (  0.0000000  0.0000000  1.0000000 )


      isym =  8      90 deg rotation - cart. axis [0,0,1]        

 cryst.   s( 8) = (     0          1          0      )
                  (    -1          0          0      )
                  (     0          0          1      )

 cart.    s( 8) = (  0.0000000 -1.0000000  0.0000000 )
                  (  1.0000000  0.0000000  0.0000000 )
                  (  0.0000000  0.0000000  1.0000000 )


      isym =  9     180 deg rotation - cart. axis [1,0,1]        

 cryst.   s( 9) = (     0          0          1      )
                  (     0         -1          0      )
                  (     1          0          0      )

 cart.    s( 9) = (  0.0000000  0.0000000  1.0000000 )
                  (  0.0000000 -1.0000000  0.0000000 )
                  (  1.0000000  0.0000000  0.0000000 )


      isym = 10     180 deg rotation - cart. axis [-1,0,1]       

 cryst.   s(10) = (     0          0         -1      )
                  (     0         -1          0      )
                  (    -1          0          0      )

 cart.    s(10) = (  0.0000000  0.0000000 -1.0000000 )
                  (  0.0000000 -1.0000000  0.0000000 )
                  ( -1.0000000  0.0000000  0.0000000 )


      isym = 11      90 deg rotation - cart. axis [0,1,0]        

 cryst.   s(11) = (     0          0         -1      )
                  (     0          1          0      )
                  (     1          0          0      )

 cart.    s(11) = (  0.0000000  0.0000000  1.0000000 )
                  (  0.0000000  1.0000000  0.0000000 )
                  ( -1.0000000  0.0000000  0.0000000 )


      isym = 12      90 deg rotation - cart. axis [0,-1,0]       

 cryst.   s(12) = (     0          0          1      )
                  (     0          1          0      )
                  (    -1          0          0      )

 cart.    s(12) = (  0.0000000  0.0000000 -1.0000000 )
                  (  0.0000000  1.0000000  0.0000000 )
                  (  1.0000000  0.0000000  0.0000000 )


      isym = 13     180 deg rotation - cart. axis [0,1,1]        

 cryst.   s(13) = (    -1          0          0      )
                  (     0          0          1      )
                  (     0          1          0      )

 cart.    s(13) = ( -1.0000000  0.0000000  0.0000000 )
                  (  0.0000000  0.0000000  1.0000000 )
                  (  0.0000000  1.0000000  0.0000000 )


      isym = 14     180 deg rotation - cart. axis [0,1,-1]       

 cryst.   s(14) = (    -1          0          0      )
                  (     0          0         -1      )
                  (     0         -1          0      )

 cart.    s(14) = ( -1.0000000  0.0000000  0.0000000 )
                  (  0.0000000  0.0000000 -1.0000000 )
                  (  0.0000000 -1.0000000  0.0000000 )


      isym = 15      90 deg rotation - cart. axis [-1,0,0]       

 cryst.   s(15) = (     1          0          0      )
                  (     0          0         -1      )
                  (     0          1          0      )

 cart.    s(15) = (  1.0000000  0.0000000  0.0000000 )
                  (  0.0000000  0.0000000  1.0000000 )
                  (  0.0000000 -1.0000000  0.0000000 )


      isym = 16      90 deg rotation - cart. axis [1,0,0]        

 cryst.   s(16) = (     1          0          0      )
                  (     0          0          1      )
                  (     0         -1          0      )

 cart.    s(16) = (  1.0000000  0.0000000  0.0000000 )
                  (  0.0000000  0.0000000 -1.0000000 )
                  (  0.0000000  1.0000000  0.0000000 )


      isym = 17     120 deg rotation - cart. axis [-1,-1,-1]     

 cryst.   s(17) = (     0          0          1      )
                  (     1          0          0      )
                  (     0          1          0      )

 cart.    s(17) = (  0.0000000  1.0000000  0.0000000 )
                  (  0.0000000  0.0000000  1.0000000 )
                  (  1.0000000  0.0000000  0.0000000 )


      isym = 18     120 deg rotation - cart. axis [-1,1,1]       

 cryst.   s(18) = (     0          0         -1      )
                  (    -1          0          0      )
                  (     0          1          0      )

 cart.    s(18) = (  0.0000000 -1.0000000  0.0000000 )
                  (  0.0000000  0.0000000  1.0000000 )
                  ( -1.0000000  0.0000000  0.0000000 )


      isym = 19     120 deg rotation - cart. axis [1,1,-1]       

 cryst.   s(19) = (     0          0         -1      )
                  (     1          0          0      )
                  (     0         -1          0      )

 cart.    s(19) = (  0.0000000  1.0000000  0.0000000 )
                  (  0.0000000  0.0000000 -1.0000000 )
                  ( -1.0000000  0.0000000  0.0000000 )


      isym = 20     120 deg rotation - cart. axis [1,-1,1]       

 cryst.   s(20) = (     0          0          1      )
                  (    -1          0          0      )
                  (     0         -1          0      )

 cart.    s(20) = (  0.0000000 -1.0000000  0.0000000 )
                  (  0.0000000  0.0000000 -1.0000000 )
                  (  1.0000000  0.0000000  0.0000000 )


      isym = 21     120 deg rotation - cart. axis [1,1,1]        

 cryst.   s(21) = (     0          1          0      )
                  (     0          0          1      )
                  (     1          0          0      )

 cart.    s(21) = (  0.0000000  0.0000000  1.0000000 )
                  (  1.0000000  0.0000000  0.0000000 )
                  (  0.0000000  1.0000000  0.0000000 )


      isym = 22     120 deg rotation - cart. axis [-1,1,-1]      

 cryst.   s(22) = (     0         -1          0      )
                  (     0          0         -1      )
                  (     1          0          0      )

 cart.    s(22) = (  0.0000000  0.0000000  1.0000000 )
                  ( -1.0000000  0.0000000  0.0000000 )
                  (  0.0000000 -1.0000000  0.0000000 )


      isym = 23     120 deg rotation - cart. axis [1,-1,-1]      

 cryst.   s(23) = (     0         -1          0      )
                  (     0          0          1      )
                  (    -1          0          0      )

 cart.    s(23) = (  0.0000000  0.0000000 -1.0000000 )
                  ( -1.0000000  0.0000000  0.0000000 )
                  (  0.0000000  1.0000000  0.0000000 )


      isym = 24     120 deg rotation - cart. axis [-1,-1,1]      

 cryst.   s(24) = (     0          1          0      )
                  (     0          0         -1      )
                  (    -1          0          0      )

 cart.    s(24) = (  0.0000000  0.0000000 -1.0000000 )
                  (  1.0000000  0.0000000  0.0000000 )
                  (  0.0000000 -1.0000000  0.0000000 )


      isym = 25     inversion                                    

 cryst.   s(25) = (    -1          0          0      )
                  (     0         -1          0      )
                  (     0          0         -1      )

 cart.    s(25) = ( -1.0000000  0.0000000  0.0000000 )
                  (  0.0000000 -1.0000000  0.0000000 )
                  (  0.0000000  0.0000000 -1.0000000 )


      isym = 26     inv. 180 deg rotation - cart. axis [0,0,1]   

 cryst.   s(26) = (     1          0          0      )
                  (     0          1          0      )
                  (     0          0         -1      )

 cart.    s(26) = (  1.0000000  0.0000000  0.0000000 )
                  (  0.0000000  1.0000000  0.0000000 )
                  (  0.0000000  0.0000000 -1.0000000 )


      isym = 27     inv. 180 deg rotation - cart. axis [0,1,0]   

 cryst.   s(27) = (     1          0          0      )
                  (     0         -1          0      )
                  (     0          0          1      )

 cart.    s(27) = (  1.0000000  0.0000000  0.0000000 )
                  (  0.0000000 -1.0000000  0.0000000 )
                  (  0.0000000  0.0000000  1.0000000 )


      isym = 28     inv. 180 deg rotation - cart. axis [1,0,0]   

 cryst.   s(28) = (    -1          0          0      )
                  (     0          1          0      )
                  (     0          0          1      )

 cart.    s(28) = ( -1.0000000  0.0000000  0.0000000 )
                  (  0.0000000  1.0000000  0.0000000 )
                  (  0.0000000  0.0000000  1.0000000 )


      isym = 29     inv. 180 deg rotation - cart. axis [1,1,0]   

 cryst.   s(29) = (     0         -1          0      )
                  (    -1          0          0      )
                  (     0          0          1      )

 cart.    s(29) = (  0.0000000 -1.0000000  0.0000000 )
                  ( -1.0000000  0.0000000  0.0000000 )
                  (  0.0000000  0.0000000  1.0000000 )


      isym = 30     inv. 180 deg rotation - cart. axis [1,-1,0]  

 cryst.   s(30) = (     0          1          0      )
                  (     1          0          0      )
                  (     0          0          1      )

 cart.    s(30) = (  0.0000000  1.0000000  0.0000000 )
                  (  1.0000000  0.0000000  0.0000000 )
                  (  0.0000000  0.0000000  1.0000000 )


      isym = 31     inv.  90 deg rotation - cart. axis [0,0,-1]  

 cryst.   s(31) = (     0          1          0      )
                  (    -1          0          0      )
                  (     0          0         -1      )

 cart.    s(31) = (  0.0000000 -1.0000000  0.0000000 )
                  (  1.0000000  0.0000000  0.0000000 )
                  (  0.0000000  0.0000000 -1.0000000 )


      isym = 32     inv.  90 deg rotation - cart. axis [0,0,1]   

 cryst.   s(32) = (     0         -1          0      )
                  (     1          0          0      )
                  (     0          0         -1      )

 cart.    s(32) = (  0.0000000  1.0000000  0.0000000 )
                  ( -1.0000000  0.0000000  0.0000000 )
                  (  0.0000000  0.0000000 -1.0000000 )


      isym = 33     inv. 180 deg rotation - cart. axis [1,0,1]   

 cryst.   s(33) = (     0          0         -1      )
                  (     0          1          0      )
                  (    -1          0          0      )

 cart.    s(33) = (  0.0000000  0.0000000 -1.0000000 )
                  (  0.0000000  1.0000000  0.0000000 )
                  ( -1.0000000  0.0000000  0.0000000 )


      isym = 34     inv. 180 deg rotation - cart. axis [-1,0,1]  

 cryst.   s(34) = (     0          0          1      )
                  (     0          1          0      )
                  (     1          0          0      )

 cart.    s(34) = (  0.0000000  0.0000000  1.0000000 )
                  (  0.0000000  1.0000000  0.0000000 )
                  (  1.0000000  0.0000000  0.0000000 )


      isym = 35     inv.  90 deg rotation - cart. axis [0,1,0]   

 cryst.   s(35) = (     0          0          1      )
                  (     0         -1          0      )
                  (    -1          0          0      )

 cart.    s(35) = (  0.0000000  0.0000000 -1.0000000 )
                  (  0.0000000 -1.0000000  0.0000000 )
                  (  1.0000000  0.0000000  0.0000000 )


      isym = 36     inv.  90 deg rotation - cart. axis [0,-1,0]  

 cryst.   s(36) = (     0          0         -1      )
                  (     0         -1          0      )
                  (     1          0          0      )

 cart.    s(36) = (  0.0000000  0.0000000  1.0000000 )
                  (  0.0000000 -1.0000000  0.0000000 )
                  ( -1.0000000  0.0000000  0.0000000 )


      isym = 37     inv. 180 deg rotation - cart. axis [0,1,1]   

 cryst.   s(37) = (     1          0          0      )
                  (     0          0         -1      )
                  (     0         -1          0      )

 cart.    s(37) = (  1.0000000  0.0000000  0.0000000 )
                  (  0.0000000  0.0000000 -1.0000000 )
                  (  0.0000000 -1.0000000  0.0000000 )


      isym = 38     inv. 180 deg rotation - cart. axis [0,1,-1]  

 cryst.   s(38) = (     1          0          0      )
                  (     0          0          1      )
                  (     0          1          0      )

 cart.    s(38) = (  1.0000000  0.0000000  0.0000000 )
                  (  0.0000000  0.0000000  1.0000000 )
                  (  0.0000000  1.0000000  0.0000000 )


      isym = 39     inv.  90 deg rotation - cart. axis [-1,0,0]  

 cryst.   s(39) = (    -1          0          0      )
                  (     0          0          1      )
                  (     0         -1          0      )

 cart.    s(39) = ( -1.0000000  0.0000000  0.0000000 )
                  (  0.0000000  0.0000000 -1.0000000 )
                  (  0.0000000  1.0000000  0.0000000 )


      isym = 40     inv.  90 deg rotation - cart. axis [1,0,0]   

 cryst.   s(40) = (    -1          0          0      )
                  (     0          0         -1      )
                  (     0          1          0      )

 cart.    s(40) = ( -1.0000000  0.0000000  0.0000000 )
                  (  0.0000000  0.0000000  1.0000000 )
                  (  0.0000000 -1.0000000  0.0000000 )


      isym = 41     inv. 120 deg rotation - cart. axis [-1,-1,-1]

 cryst.   s(41) = (     0          0         -1      )
                  (    -1          0          0      )
                  (     0         -1          0      )

 cart.    s(41) = (  0.0000000 -1.0000000  0.0000000 )
                  (  0.0000000  0.0000000 -1.0000000 )
                  ( -1.0000000  0.0000000  0.0000000 )


      isym = 42     inv. 120 deg rotation - cart. axis [-1,1,1]  

 cryst.   s(42) = (     0          0          1      )
                  (     1          0          0      )
                  (     0         -1          0      )

 cart.    s(42) = (  0.0000000  1.0000000  0.0000000 )
                  (  0.0000000  0.0000000 -1.0000000 )
                  (  1.0000000  0.0000000  0.0000000 )


      isym = 43     inv. 120 deg rotation - cart. axis [1,1,-1]  

 cryst.   s(43) = (     0          0          1      )
                  (    -1          0          0      )
                  (     0          1          0      )

 cart.    s(43) = (  0.0000000 -1.0000000  0.0000000 )
                  (  0.0000000  0.0000000  1.0000000 )
                  (  1.0000000  0.0000000  0.0000000 )


      isym = 44     inv. 120 deg rotation - cart. axis [1,-1,1]  

 cryst.   s(44) = (     0          0         -1      )
                  (     1          0          0      )
                  (     0          1          0      )

 cart.    s(44) = (  0.0000000  1.0000000  0.0000000 )
                  (  0.0000000  0.0000000  1.0000000 )
                  ( -1.0000000  0.0000000  0.0000000 )


      isym = 45     inv. 120 deg rotation - cart. axis [1,1,1]   

 cryst.   s(45) = (     0         -1          0      )
                  (     0          0         -1      )
                  (    -1          0          0      )

 cart.    s(45) = (  0.0000000  0.0000000 -1.0000000 )
                  ( -1.0000000  0.0000000  0.0000000 )
                  (  0.0000000 -1.0000000  0.0000000 )


      isym = 46     inv. 120 deg rotation - cart. axis [-1,1,-1] 

 cryst.   s(46) = (     0          1          0      )
                  (     0          0          1      )
                  (    -1          0          0      )

 cart.    s(46) = (  0.0000000  0.0000000 -1.0000000 )
                  (  1.0000000  0.0000000  0.0000000 )
                  (  0.0000000  1.0000000  0.0000000 )


      isym = 47     inv. 120 deg rotation - cart. axis [1,-1,-1] 

 cryst.   s(47) = (     0          1          0      )
                  (     0          0         -1      )
                  (     1          0          0      )

 cart.    s(47) = (  0.0000000  0.0000000  1.0000000 )
                  (  1.0000000  0.0000000  0.0000000 )
                  (  0.0000000 -1.0000000  0.0000000 )


      isym = 48     inv. 120 deg rotation - cart. axis [-1,-1,1] 

 cryst.   s(48) = (     0         -1          0      )
                  (     0          0          1      )
                  (     1          0          0      )

 cart.    s(48) = (  0.0000000  0.0000000  1.0000000 )
                  ( -1.0000000  0.0000000  0.0000000 )
                  (  0.0000000  1.0000000  0.0000000 )


   Cartesian axes

     site n.     atom                  positions (alat units)
         1           Y   tau(   1) = (   0.0000000   0.0000000   0.0000000  )
         2           B   tau(   2) = (   0.8009700   0.5000000   0.5000000  )
         3           B   tau(   3) = (   0.1990300   0.5000000   0.5000000  )
         4           B   tau(   4) = (   0.5000000   0.5000000   0.8009700  )
         5           B   tau(   5) = (   0.5000000   0.5000000   0.1990300  )
         6           B   tau(   6) = (   0.5000000   0.1990300   0.5000000  )
         7           B   tau(   7) = (   0.5000000   0.8009700   0.5000000  )

   Crystallographic axes

     site n.     atom                  positions (cryst. coord.)
         1           Y   tau(   1) = (  0.0000000  0.0000000  0.0000000  )
         2           B   tau(   2) = (  0.8009700  0.5000000  0.5000000  )
         3           B   tau(   3) = (  0.1990300  0.5000000  0.5000000  )
         4           B   tau(   4) = (  0.5000000  0.5000000  0.8009700  )
         5           B   tau(   5) = (  0.5000000  0.5000000  0.1990300  )
         6           B   tau(   6) = (  0.5000000  0.1990300  0.5000000  )
         7           B   tau(   7) = (  0.5000000  0.8009700  0.5000000  )

     number of k points=     1  Methfessel-Paxton smearing, width (Ry)=  0.0010
                       cart. coord. in units 2pi/alat
        k(    1) = (   0.0000000   0.0000000   0.0000000), wk =   2.0000000

                       cryst. coord.
        k(    1) = (   0.0000000   0.0000000   0.0000000), wk =   2.0000000

     Dense  grid:    14640 G-vectors     FFT dimensions: (  40,  40,  40)

     Smooth grid:     5198 G-vectors     FFT dimensions: (  27,  27,  27)

     Dynamical RAM for                 wfc:       0.19 MB

     Dynamical RAM for     wfc (w. buffer):       0.19 MB

     Dynamical RAM for           str. fact:       0.45 MB

     Dynamical RAM for           local pot:       0.00 MB

     Dynamical RAM for          nlocal pot:       0.65 MB

     Dynamical RAM for                qrad:       2.49 MB

     Dynamical RAM for          rho,v,vnew:       2.14 MB

     Dynamical RAM for               rhoin:       0.71 MB

     Dynamical RAM for            rho*nmix:       3.57 MB

     Dynamical RAM for           G-vectors:       0.88 MB

     Dynamical RAM for          h,s,v(r/c):       0.03 MB

     Dynamical RAM for          <psi|beta>:       0.01 MB

     Dynamical RAM for                 psi:       0.37 MB

     Dynamical RAM for                hpsi:       0.37 MB

     Dynamical RAM for                spsi:       0.37 MB

     Dynamical RAM for      wfcinit/wfcrot:       0.76 MB

     Dynamical RAM for           addusdens:      42.89 MB

     Dynamical RAM for          addusforce:      45.26 MB

     Dynamical RAM for         addusstress:      44.90 MB

     Estimated static dynamical RAM per process >      10.61 MB

     Estimated max dynamical RAM per process >      59.44 MB

     Check: negative core charge=   -0.000004

     Initial potential from superposition of free atoms

     starting charge      28.9938, renormalised to      29.0000

     negative rho (up, down):  4.301E-02 0.000E+00
     Starting wfcs are   37 randomized atomic wfcs

     total cpu time spent up to now is        2.6 secs

     Self-consistent Calculation

     iteration #  1     ecut=    30.00 Ry     beta= 0.70
     Davidson diagonalization with overlap

---- Real-time Memory Report at c_bands before calling an iterative solver
           359 MiB given to the printing process from OS
             0 MiB allocation reported by mallinfo(arena+hblkhd)
        170612 MiB available memory on the node where the printing process lives
------------------
     ethr =  1.00E-02,  avg # of iterations =  2.0
     Minimization algorithm failed to find Fermi energy: reverting to bisection
     Possible cause: smearing is larger than the electronic band-gap.

     negative rho (up, down):  4.302E-02 0.000E+00

     total cpu time spent up to now is        2.7 secs

     total energy              =    -124.84818622 Ry
     estimated scf accuracy    <       1.61232130 Ry

     iteration #  2     ecut=    30.00 Ry     beta= 0.70
     Davidson diagonalization with overlap

---- Real-time Memory Report at c_bands before calling an iterative solver
           406 MiB given to the printing process from OS
             0 MiB allocation reported by mallinfo(arena+hblkhd)
        170601 MiB available memory on the node where the printing process lives
------------------
     ethr =  5.56E-03,  avg # of iterations =  5.0

     negative rho (up, down):  4.025E-02 0.000E+00

     total cpu time spent up to now is        2.9 secs

     total energy              =    -124.07132441 Ry
     estimated scf accuracy    <       6.77167264 Ry

     iteration #  3     ecut=    30.00 Ry     beta= 0.70
     Davidson diagonalization with overlap

---- Real-time Memory Report at c_bands before calling an iterative solver
           409 MiB given to the printing process from OS
             0 MiB allocation reported by mallinfo(arena+hblkhd)
        170601 MiB available memory on the node where the printing process lives
------------------
     ethr =  5.56E-03,  avg # of iterations =  5.0

     negative rho (up, down):  3.994E-02 0.000E+00

     total cpu time spent up to now is        3.0 secs

     total energy              =    -125.55502922 Ry
     estimated scf accuracy    <       0.33195301 Ry

     iteration #  4     ecut=    30.00 Ry     beta= 0.70
     Davidson diagonalization with overlap

---- Real-time Memory Report at c_bands before calling an iterative solver
           411 MiB given to the printing process from OS
             0 MiB allocation reported by mallinfo(arena+hblkhd)
        170600 MiB available memory on the node where the printing process lives
------------------
     ethr =  1.14E-03,  avg # of iterations =  1.0

     negative rho (up, down):  4.013E-02 0.000E+00

     total cpu time spent up to now is        3.1 secs

     total energy              =    -125.54856460 Ry
     estimated scf accuracy    <       0.21304960 Ry

     iteration #  5     ecut=    30.00 Ry     beta= 0.70
     Davidson diagonalization with overlap

---- Real-time Memory Report at c_bands before calling an iterative solver
           411 MiB given to the printing process from OS
             0 MiB allocation reported by mallinfo(arena+hblkhd)
        170599 MiB available memory on the node where the printing process lives
------------------
     ethr =  7.35E-04,  avg # of iterations =  1.0

     negative rho (up, down):  4.031E-02 0.000E+00

     total cpu time spent up to now is        3.3 secs

     total energy              =    -125.54430714 Ry
     estimated scf accuracy    <       0.15564528 Ry

     iteration #  6     ecut=    30.00 Ry     beta= 0.70
     Davidson diagonalization with overlap

---- Real-time Memory Report at c_bands before calling an iterative solver
           411 MiB given to the printing process from OS
             0 MiB allocation reported by mallinfo(arena+hblkhd)
        170598 MiB available memory on the node where the printing process lives
------------------
     ethr =  5.37E-04,  avg # of iterations =  1.0

     negative rho (up, down):  4.115E-02 0.000E+00

     total cpu time spent up to now is        3.4 secs

     total energy              =    -125.51714738 Ry
     estimated scf accuracy    <       0.12465492 Ry

     iteration #  7     ecut=    30.00 Ry     beta= 0.70
     Davidson diagonalization with overlap

---- Real-time Memory Report at c_bands before calling an iterative solver
           411 MiB given to the printing process from OS
             0 MiB allocation reported by mallinfo(arena+hblkhd)
        170599 MiB available memory on the node where the printing process lives
------------------
     ethr =  4.30E-04,  avg # of iterations =  3.0

     negative rho (up, down):  4.155E-02 0.000E+00

     total cpu time spent up to now is        3.5 secs

     total energy              =    -125.52853110 Ry
     estimated scf accuracy    <       0.02647869 Ry

     iteration #  8     ecut=    30.00 Ry     beta= 0.70
     Davidson diagonalization with overlap

---- Real-time Memory Report at c_bands before calling an iterative solver
           411 MiB given to the printing process from OS
             0 MiB allocation reported by mallinfo(arena+hblkhd)
        170599 MiB available memory on the node where the printing process lives
------------------
     ethr =  9.13E-05,  avg # of iterations =  3.0

     negative rho (up, down):  4.194E-02 0.000E+00

     total cpu time spent up to now is        3.6 secs

     total energy              =    -125.52932259 Ry
     estimated scf accuracy    <       0.02558687 Ry

     iteration #  9     ecut=    30.00 Ry     beta= 0.70
     Davidson diagonalization with overlap

---- Real-time Memory Report at c_bands before calling an iterative solver
           411 MiB given to the printing process from OS
             0 MiB allocation reported by mallinfo(arena+hblkhd)
        170600 MiB available memory on the node where the printing process lives
------------------
     ethr =  8.82E-05,  avg # of iterations =  2.0

     negative rho (up, down):  4.187E-02 0.000E+00

     total cpu time spent up to now is        3.8 secs

     total energy              =    -125.52999338 Ry
     estimated scf accuracy    <       0.09003414 Ry

     iteration # 10     ecut=    30.00 Ry     beta= 0.70
     Davidson diagonalization with overlap

---- Real-time Memory Report at c_bands before calling an iterative solver
           413 MiB given to the printing process from OS
             0 MiB allocation reported by mallinfo(arena+hblkhd)
        170598 MiB available memory on the node where the printing process lives
------------------
     ethr =  8.82E-05,  avg # of iterations =  1.0

     negative rho (up, down):  4.214E-02 0.000E+00

     total cpu time spent up to now is        3.9 secs

     total energy              =    -125.53039688 Ry
     estimated scf accuracy    <       0.02668537 Ry

     iteration # 11     ecut=    30.00 Ry     beta= 0.70
     Davidson diagonalization with overlap

---- Real-time Memory Report at c_bands before calling an iterative solver
           413 MiB given to the printing process from OS
             0 MiB allocation reported by mallinfo(arena+hblkhd)
        170599 MiB available memory on the node where the printing process lives
------------------
     ethr =  8.82E-05,  avg # of iterations =  1.0

     negative rho (up, down):  4.183E-02 0.000E+00

     total cpu time spent up to now is        4.0 secs

     total energy              =    -125.52896803 Ry
     estimated scf accuracy    <       0.12717367 Ry

     iteration # 12     ecut=    30.00 Ry     beta= 0.70
     Davidson diagonalization with overlap

---- Real-time Memory Report at c_bands before calling an iterative solver
           413 MiB given to the printing process from OS
             0 MiB allocation reported by mallinfo(arena+hblkhd)
        170599 MiB available memory on the node where the printing process lives
------------------
     ethr =  8.82E-05,  avg # of iterations =  1.0

     negative rho (up, down):  4.177E-02 0.000E+00

     total cpu time spent up to now is        4.1 secs

     total energy              =    -125.53054112 Ry
     estimated scf accuracy    <       0.01757872 Ry

     iteration # 13     ecut=    30.00 Ry     beta= 0.70
     Davidson diagonalization with overlap

---- Real-time Memory Report at c_bands before calling an iterative solver
           413 MiB given to the printing process from OS
             0 MiB allocation reported by mallinfo(arena+hblkhd)
        170599 MiB available memory on the node where the printing process lives
------------------
     ethr =  6.06E-05,  avg # of iterations =  1.0

     negative rho (up, down):  4.174E-02 0.000E+00

     total cpu time spent up to now is        4.3 secs

     total energy              =    -125.53022851 Ry
     estimated scf accuracy    <       0.04130714 Ry

     iteration # 14     ecut=    30.00 Ry     beta= 0.70
     Davidson diagonalization with overlap

---- Real-time Memory Report at c_bands before calling an iterative solver
           413 MiB given to the printing process from OS
             0 MiB allocation reported by mallinfo(arena+hblkhd)
        170598 MiB available memory on the node where the printing process lives
------------------
     ethr =  6.06E-05,  avg # of iterations =  1.0

     negative rho (up, down):  4.176E-02 0.000E+00

     total cpu time spent up to now is        4.4 secs

     total energy              =    -125.53035077 Ry
     estimated scf accuracy    <       0.02323652 Ry

     iteration # 15     ecut=    30.00 Ry     beta= 0.70
     Davidson diagonalization with overlap

---- Real-time Memory Report at c_bands before calling an iterative solver
           413 MiB given to the printing process from OS
             0 MiB allocation reported by mallinfo(arena+hblkhd)
        170599 MiB available memory on the node where the printing process lives
------------------
     ethr =  6.06E-05,  avg # of iterations =  1.0

     negative rho (up, down):  4.177E-02 0.000E+00

     total cpu time spent up to now is        4.5 secs

     total energy              =    -125.53073887 Ry
     estimated scf accuracy    <       0.00614220 Ry

     iteration # 16     ecut=    30.00 Ry     beta= 0.70
     Davidson diagonalization with overlap

---- Real-time Memory Report at c_bands before calling an iterative solver
           413 MiB given to the printing process from OS
             0 MiB allocation reported by mallinfo(arena+hblkhd)
        170599 MiB available memory on the node where the printing process lives
------------------
     ethr =  2.12E-05,  avg # of iterations =  1.0
     Minimization algorithm failed to find Fermi energy: reverting to bisection
     Possible cause: smearing is larger than the electronic band-gap.

     negative rho (up, down):  4.179E-02 0.000E+00

     total cpu time spent up to now is        4.6 secs

     total energy              =    -125.53080549 Ry
     estimated scf accuracy    <       0.00246717 Ry

     iteration # 17     ecut=    30.00 Ry     beta= 0.70
     Davidson diagonalization with overlap

---- Real-time Memory Report at c_bands before calling an iterative solver
           413 MiB given to the printing process from OS
             0 MiB allocation reported by mallinfo(arena+hblkhd)
        170599 MiB available memory on the node where the printing process lives
------------------
     ethr =  8.51E-06,  avg # of iterations =  1.0
     Minimization algorithm failed to find Fermi energy: reverting to bisection
     Possible cause: smearing is larger than the electronic band-gap.

     negative rho (up, down):  4.178E-02 0.000E+00

     total cpu time spent up to now is        4.7 secs

     total energy              =    -125.53085812 Ry
     estimated scf accuracy    <       0.00181460 Ry

     iteration # 18     ecut=    30.00 Ry     beta= 0.70
     Davidson diagonalization with overlap

---- Real-time Memory Report at c_bands before calling an iterative solver
           413 MiB given to the printing process from OS
             0 MiB allocation reported by mallinfo(arena+hblkhd)
        170599 MiB available memory on the node where the printing process lives
------------------
     ethr =  6.26E-06,  avg # of iterations =  1.0
     Minimization algorithm failed to find Fermi energy: reverting to bisection
     Possible cause: smearing is larger than the electronic band-gap.

     negative rho (up, down):  4.179E-02 0.000E+00

     total cpu time spent up to now is        4.8 secs

     total energy              =    -125.53084410 Ry
     estimated scf accuracy    <       0.00142256 Ry

     iteration # 19     ecut=    30.00 Ry     beta= 0.70
     Davidson diagonalization with overlap

---- Real-time Memory Report at c_bands before calling an iterative solver
           413 MiB given to the printing process from OS
             0 MiB allocation reported by mallinfo(arena+hblkhd)
        170599 MiB available memory on the node where the printing process lives
------------------
     ethr =  4.91E-06,  avg # of iterations =  1.0
     Minimization algorithm failed to find Fermi energy: reverting to bisection
     Possible cause: smearing is larger than the electronic band-gap.

     negative rho (up, down):  4.180E-02 0.000E+00

     total cpu time spent up to now is        5.0 secs

     total energy              =    -125.53083712 Ry
     estimated scf accuracy    <       0.00074399 Ry

     iteration # 20     ecut=    30.00 Ry     beta= 0.70
     Davidson diagonalization with overlap

---- Real-time Memory Report at c_bands before calling an iterative solver
           413 MiB given to the printing process from OS
             0 MiB allocation reported by mallinfo(arena+hblkhd)
        170599 MiB available memory on the node where the printing process lives
------------------
     ethr =  2.57E-06,  avg # of iterations =  1.0
     Minimization algorithm failed to find Fermi energy: reverting to bisection
     Possible cause: smearing is larger than the electronic band-gap.

     negative rho (up, down):  4.201E-02 0.000E+00

     total cpu time spent up to now is        5.1 secs

     total energy              =    -125.53059335 Ry
     estimated scf accuracy    <       0.00060522 Ry

     iteration # 21     ecut=    30.00 Ry     beta= 0.70
     Davidson diagonalization with overlap

---- Real-time Memory Report at c_bands before calling an iterative solver
           413 MiB given to the printing process from OS
             0 MiB allocation reported by mallinfo(arena+hblkhd)
        170598 MiB available memory on the node where the printing process lives
------------------
     ethr =  2.09E-06,  avg # of iterations =  3.0

     negative rho (up, down):  4.191E-02 0.000E+00

     total cpu time spent up to now is        5.2 secs

     total energy              =    -125.52955453 Ry
     estimated scf accuracy    <       0.02868818 Ry

     iteration # 22     ecut=    30.00 Ry     beta= 0.70
     Davidson diagonalization with overlap

---- Real-time Memory Report at c_bands before calling an iterative solver
           413 MiB given to the printing process from OS
             0 MiB allocation reported by mallinfo(arena+hblkhd)
        170598 MiB available memory on the node where the printing process lives
------------------
     ethr =  2.09E-06,  avg # of iterations =  2.0

     negative rho (up, down):  4.190E-02 0.000E+00

     total cpu time spent up to now is        5.3 secs

     total energy              =    -125.53075239 Ry
     estimated scf accuracy    <       0.00039219 Ry

     iteration # 23     ecut=    30.00 Ry     beta= 0.70
     Davidson diagonalization with overlap

---- Real-time Memory Report at c_bands before calling an iterative solver
           413 MiB given to the printing process from OS
             0 MiB allocation reported by mallinfo(arena+hblkhd)
        170599 MiB available memory on the node where the printing process lives
------------------
     ethr =  1.35E-06,  avg # of iterations =  2.0
     Minimization algorithm failed to find Fermi energy: reverting to bisection
     Possible cause: smearing is larger than the electronic band-gap.

     negative rho (up, down):  4.187E-02 0.000E+00

     total cpu time spent up to now is        5.5 secs

     total energy              =    -125.53076779 Ry
     estimated scf accuracy    <       0.00020368 Ry

     iteration # 24     ecut=    30.00 Ry     beta= 0.70
     Davidson diagonalization with overlap

---- Real-time Memory Report at c_bands before calling an iterative solver
           413 MiB given to the printing process from OS
             0 MiB allocation reported by mallinfo(arena+hblkhd)
        170599 MiB available memory on the node where the printing process lives
------------------
     ethr =  7.02E-07,  avg # of iterations =  3.0
     Minimization algorithm failed to find Fermi energy: reverting to bisection
     Possible cause: smearing is larger than the electronic band-gap.

     negative rho (up, down):  4.188E-02 0.000E+00

     total cpu time spent up to now is        5.6 secs

     total energy              =    -125.53078983 Ry
     estimated scf accuracy    <       0.00063320 Ry

     iteration # 25     ecut=    30.00 Ry     beta= 0.70
     Davidson diagonalization with overlap

---- Real-time Memory Report at c_bands before calling an iterative solver
           413 MiB given to the printing process from OS
             0 MiB allocation reported by mallinfo(arena+hblkhd)
        170599 MiB available memory on the node where the printing process lives
------------------
     ethr =  7.02E-07,  avg # of iterations =  1.0
     Minimization algorithm failed to find Fermi energy: reverting to bisection
     Possible cause: smearing is larger than the electronic band-gap.

     negative rho (up, down):  4.188E-02 0.000E+00

     total cpu time spent up to now is        5.7 secs

     total energy              =    -125.53078611 Ry
     estimated scf accuracy    <       0.00037448 Ry

     iteration # 26     ecut=    30.00 Ry     beta= 0.70
     Davidson diagonalization with overlap

---- Real-time Memory Report at c_bands before calling an iterative solver
           413 MiB given to the printing process from OS
             0 MiB allocation reported by mallinfo(arena+hblkhd)
        170599 MiB available memory on the node where the printing process lives
------------------
     ethr =  7.02E-07,  avg # of iterations =  1.0
     Minimization algorithm failed to find Fermi energy: reverting to bisection
     Possible cause: smearing is larger than the electronic band-gap.

     negative rho (up, down):  4.188E-02 0.000E+00

     total cpu time spent up to now is        5.8 secs

     total energy              =    -125.53079175 Ry
     estimated scf accuracy    <       0.00008397 Ry

     iteration # 27     ecut=    30.00 Ry     beta= 0.70
     Davidson diagonalization with overlap

---- Real-time Memory Report at c_bands before calling an iterative solver
           413 MiB given to the printing process from OS
             0 MiB allocation reported by mallinfo(arena+hblkhd)
        170599 MiB available memory on the node where the printing process lives
------------------
     ethr =  2.90E-07,  avg # of iterations =  1.0
     Minimization algorithm failed to find Fermi energy: reverting to bisection
     Possible cause: smearing is larger than the electronic band-gap.

     negative rho (up, down):  4.188E-02 0.000E+00

     total cpu time spent up to now is        5.9 secs

     total energy              =    -125.53078763 Ry
     estimated scf accuracy    <       0.00006420 Ry

     iteration # 28     ecut=    30.00 Ry     beta= 0.70
     Davidson diagonalization with overlap

---- Real-time Memory Report at c_bands before calling an iterative solver
           413 MiB given to the printing process from OS
             0 MiB allocation reported by mallinfo(arena+hblkhd)
        170599 MiB available memory on the node where the printing process lives
------------------
     ethr =  2.21E-07,  avg # of iterations =  1.0
     Minimization algorithm failed to find Fermi energy: reverting to bisection
     Possible cause: smearing is larger than the electronic band-gap.

     negative rho (up, down):  4.189E-02 0.000E+00

     total cpu time spent up to now is        6.0 secs

     total energy              =    -125.53078825 Ry
     estimated scf accuracy    <       0.00003974 Ry

     iteration # 29     ecut=    30.00 Ry     beta= 0.70
     Davidson diagonalization with overlap

---- Real-time Memory Report at c_bands before calling an iterative solver
           413 MiB given to the printing process from OS
             0 MiB allocation reported by mallinfo(arena+hblkhd)
        170599 MiB available memory on the node where the printing process lives
------------------
     ethr =  1.37E-07,  avg # of iterations =  1.0
     Minimization algorithm failed to find Fermi energy: reverting to bisection
     Possible cause: smearing is larger than the electronic band-gap.

     negative rho (up, down):  4.189E-02 0.000E+00

     total cpu time spent up to now is        6.2 secs

     total energy              =    -125.53078644 Ry
     estimated scf accuracy    <       0.00003595 Ry

     iteration # 30     ecut=    30.00 Ry     beta= 0.70
     Davidson diagonalization with overlap

---- Real-time Memory Report at c_bands before calling an iterative solver
           413 MiB given to the printing process from OS
             0 MiB allocation reported by mallinfo(arena+hblkhd)
        170598 MiB available memory on the node where the printing process lives
------------------
     ethr =  1.24E-07,  avg # of iterations =  1.0
     Minimization algorithm failed to find Fermi energy: reverting to bisection
     Possible cause: smearing is larger than the electronic band-gap.

     negative rho (up, down):  4.191E-02 0.000E+00

     total cpu time spent up to now is        6.3 secs

     total energy              =    -125.53077782 Ry
     estimated scf accuracy    <       0.00002435 Ry

     iteration # 31     ecut=    30.00 Ry     beta= 0.70
     Davidson diagonalization with overlap

---- Real-time Memory Report at c_bands before calling an iterative solver
           413 MiB given to the printing process from OS
             0 MiB allocation reported by mallinfo(arena+hblkhd)
        170599 MiB available memory on the node where the printing process lives
------------------
     ethr =  8.40E-08,  avg # of iterations =  4.0
     Minimization algorithm failed to find Fermi energy: reverting to bisection
     Possible cause: smearing is larger than the electronic band-gap.

     negative rho (up, down):  4.192E-02 0.000E+00

     total cpu time spent up to now is        6.5 secs

     total energy              =    -125.53078094 Ry
     estimated scf accuracy    <       0.00024989 Ry

     iteration # 32     ecut=    30.00 Ry     beta= 0.70
     Davidson diagonalization with overlap

---- Real-time Memory Report at c_bands before calling an iterative solver
           413 MiB given to the printing process from OS
             0 MiB allocation reported by mallinfo(arena+hblkhd)
        170598 MiB available memory on the node where the printing process lives
------------------
     ethr =  8.40E-08,  avg # of iterations =  1.0
     Minimization algorithm failed to find Fermi energy: reverting to bisection
     Possible cause: smearing is larger than the electronic band-gap.

     negative rho (up, down):  4.191E-02 0.000E+00

     total cpu time spent up to now is        6.6 secs

     total energy              =    -125.53078418 Ry
     estimated scf accuracy    <       0.00013446 Ry

     iteration # 33     ecut=    30.00 Ry     beta= 0.70
     Davidson diagonalization with overlap

---- Real-time Memory Report at c_bands before calling an iterative solver
           413 MiB given to the printing process from OS
             0 MiB allocation reported by mallinfo(arena+hblkhd)
        170598 MiB available memory on the node where the printing process lives
------------------
     ethr =  8.40E-08,  avg # of iterations =  1.0
     Minimization algorithm failed to find Fermi energy: reverting to bisection
     Possible cause: smearing is larger than the electronic band-gap.

     negative rho (up, down):  4.191E-02 0.000E+00

     total cpu time spent up to now is        6.7 secs

     total energy              =    -125.53078447 Ry
     estimated scf accuracy    <       0.00008725 Ry

     iteration # 34     ecut=    30.00 Ry     beta= 0.70
     Davidson diagonalization with overlap

---- Real-time Memory Report at c_bands before calling an iterative solver
           413 MiB given to the printing process from OS
             0 MiB allocation reported by mallinfo(arena+hblkhd)
        170597 MiB available memory on the node where the printing process lives
------------------
     ethr =  8.40E-08,  avg # of iterations =  1.0
     Minimization algorithm failed to find Fermi energy: reverting to bisection
     Possible cause: smearing is larger than the electronic band-gap.

     negative rho (up, down):  4.190E-02 0.000E+00

     total cpu time spent up to now is        6.8 secs

     total energy              =    -125.53078382 Ry
     estimated scf accuracy    <       0.00005231 Ry

     iteration # 35     ecut=    30.00 Ry     beta= 0.70
     Davidson diagonalization with overlap

---- Real-time Memory Report at c_bands before calling an iterative solver
           413 MiB given to the printing process from OS
             0 MiB allocation reported by mallinfo(arena+hblkhd)
        170598 MiB available memory on the node where the printing process lives
------------------
     ethr =  8.40E-08,  avg # of iterations =  1.0
     Minimization algorithm failed to find Fermi energy: reverting to bisection
     Possible cause: smearing is larger than the electronic band-gap.

     negative rho (up, down):  4.190E-02 0.000E+00

     total cpu time spent up to now is        6.9 secs

     total energy              =    -125.53078517 Ry
     estimated scf accuracy    <       0.00002528 Ry

     iteration # 36     ecut=    30.00 Ry     beta= 0.70
     Davidson diagonalization with overlap

---- Real-time Memory Report at c_bands before calling an iterative solver
           413 MiB given to the printing process from OS
             0 MiB allocation reported by mallinfo(arena+hblkhd)
        170598 MiB available memory on the node where the printing process lives
------------------
     ethr =  8.40E-08,  avg # of iterations =  1.0
     Minimization algorithm failed to find Fermi energy: reverting to bisection
     Possible cause: smearing is larger than the electronic band-gap.

     negative rho (up, down):  4.191E-02 0.000E+00

     total cpu time spent up to now is        7.1 secs

     End of self-consistent calculation

          k = 0.0000 0.0000 0.0000 (   655 PWs)   bands (ev):

   -32.2910 -12.2529 -12.2528 -12.2528  -4.1929   2.8629   3.7510   3.7510
     3.7511   4.0929   4.0930   9.8148   9.8148   9.8148  12.6195  12.6195
    12.6196  12.6658  12.6659

     occupation numbers 
     1.0000   1.0000   1.0000   1.0000   1.0000   1.0000   1.0000   1.0000
     1.0000   1.0000   1.0000   1.0000   1.0000   1.0000   0.1679   0.1669
     0.1652  -0.0000  -0.0000

     the Fermi energy is    12.6136 ev

!    total energy              =    -125.53078491 Ry
     estimated scf accuracy    <       0.00000097 Ry
     smearing contrib. (-TS)   =      -0.00043271 Ry
     internal energy E=F+TS    =    -125.53035220 Ry

     The total energy is F=E-TS. E is the sum of the following terms:
     one-electron contribution =       1.32374681 Ry
     hartree contribution      =      14.27042201 Ry
     xc contribution           =     -40.17835550 Ry
     ewald contribution        =    -100.94616553 Ry

     convergence has been achieved in  36 iterations

     negative rho (up, down):  4.191E-02 0.000E+00

     Forces acting on atoms (cartesian axes, Ry/au):

     atom    1 type  1   force =     0.00000000    0.00000000    0.00000000
     atom    2 type  2   force =    -0.23186643    0.00000000    0.00000000
     atom    3 type  2   force =     0.23186643   -0.00000000   -0.00000000
     atom    4 type  2   force =     0.00000000    0.00000000   -0.23186643
     atom    5 type  2   force =     0.00000000    0.00000000    0.23186643
     atom    6 type  2   force =     0.00000000    0.23186643    0.00000000
     atom    7 type  2   force =     0.00000000   -0.23186643    0.00000000
     The non-local contrib.  to forces
     atom    1 type  1   force =     0.00000000    0.00000000    0.00000000
     atom    2 type  2   force =    -0.19124401    0.00000000    0.00000000
     atom    3 type  2   force =     0.19124401   -0.00000000    0.00000000
     atom    4 type  2   force =     0.00000000    0.00000000   -0.19124401
     atom    5 type  2   force =     0.00000000    0.00000000    0.19124401
     atom    6 type  2   force =     0.00000000    0.19124401    0.00000000
     atom    7 type  2   force =     0.00000000   -0.19124401    0.00000000
     The ionic contribution  to forces
     atom    1 type  1   force =    -0.00000000   -0.00000000   -0.00000000
     atom    2 type  2   force =     1.54625241   -0.00000000   -0.00000000
     atom    3 type  2   force =    -1.54625241    0.00000000   -0.00000000
     atom    4 type  2   force =    -0.00000000   -0.00000000    1.54625241
     atom    5 type  2   force =    -0.00000000    0.00000000   -1.54625241
     atom    6 type  2   force =     0.00000000   -1.54625241    0.00000000
     atom    7 type  2   force =    -0.00000000    1.54625241   -0.00000000
     The local contribution  to forces
     atom    1 type  1   force =     0.00001169    0.00005192   -0.00000971
     atom    2 type  2   force =    -1.58752443    0.00001980   -0.00002782
     atom    3 type  2   force =     1.58755815    0.00000884    0.00002230
     atom    4 type  2   force =     0.00000652   -0.00000614   -1.58609730
     atom    5 type  2   force =     0.00006166    0.00002866    1.58610070
     atom    6 type  2   force =     0.00002067    1.58701651    0.00002099
     atom    7 type  2   force =     0.00003883   -1.58704958   -0.00001315
     The core correction contribution to forces
     atom    1 type  1   force =    -0.00000080   -0.00000095   -0.00000060
     atom    2 type  2   force =    -0.00017560    0.00000094   -0.00000056
     atom    3 type  2   force =     0.00017648    0.00000126    0.00000049
     atom    4 type  2   force =     0.00000019    0.00000089   -0.00016932
     atom    5 type  2   force =     0.00000142    0.00000115    0.00016951
     atom    6 type  2   force =     0.00000089    0.00017300    0.00000023
     atom    7 type  2   force =     0.00000097   -0.00017406   -0.00000027
     The Hubbard contrib.    to forces
     atom    1 type  1   force =     0.00000000    0.00000000    0.00000000
     atom    2 type  2   force =     0.00000000    0.00000000    0.00000000
     atom    3 type  2   force =     0.00000000    0.00000000    0.00000000
     atom    4 type  2   force =     0.00000000    0.00000000    0.00000000
     atom    5 type  2   force =     0.00000000    0.00000000    0.00000000
     atom    6 type  2   force =     0.00000000    0.00000000    0.00000000
     atom    7 type  2   force =     0.00000000    0.00000000    0.00000000
     The SCF correction term to forces
     atom    1 type  1   force =     0.00006926   -0.00006767    0.00000728
     atom    2 type  2   force =     0.00046621    0.00001463    0.00000708
     atom    3 type  2   force =    -0.00045511    0.00001988   -0.00000878
     atom    4 type  2   force =    -0.00001353    0.00002736   -0.00014392
     atom    5 type  2   force =    -0.00002877    0.00001751    0.00014573
     atom    6 type  2   force =    -0.00001223   -0.00025869   -0.00000968
     atom    7 type  2   force =    -0.00001757    0.00024531    0.00000042

     Total force =     0.567954     Total SCF correction =     0.000779


     Computing stress (Cartesian axis) and pressure


     negative rho (up, down):  4.191E-02 0.000E+00
          total   stress  (Ry/bohr**3)                   (kbar)     P=       96.75
   0.00065768   0.00000000   0.00000000           96.75        0.00        0.00
   0.00000000   0.00065768   0.00000000            0.00       96.75        0.00
   0.00000000   0.00000000   0.00065768            0.00        0.00       96.75

     kinetic stress (kbar)   9628.38      0.00      0.00
                                0.00   9628.38      0.00
                                0.00      0.00   9628.38

     local   stress (kbar)  -2708.65     -0.04      0.03
                               -0.04  -2708.49      0.02
                                0.03      0.02  -2708.15

     nonloc. stress (kbar)   5248.23      0.00      0.00
                                0.00   5248.23      0.00
                                0.00      0.00   5248.23

     hartree stress (kbar)   1501.91      0.01     -0.01
                                0.01   1502.14     -0.01
                               -0.01     -0.01   1502.55

     exc-cor stress (kbar)   2405.64      0.00     -0.00
                                0.00   2405.63     -0.00
                               -0.00     -0.00   2405.61

     corecor stress (kbar)  -5353.02     -0.00      0.00
                               -0.00  -5352.99      0.00
                                0.00      0.00  -5352.94

     ewald   stress (kbar) -10626.27     -0.00      0.00
                               -0.00 -10626.27      0.00
                                0.00      0.00 -10626.27

     hubbard stress (kbar)      0.00      0.00      0.00
                                0.00      0.00      0.00
                                0.00      0.00      0.00

     DFT-D   stress (kbar)      0.00      0.00      0.00
                                0.00      0.00      0.00
                                0.00      0.00      0.00

     XDM     stress (kbar)      0.00      0.00      0.00
                                0.00      0.00      0.00
                                0.00      0.00      0.00

     dft-nl  stress (kbar)      0.00      0.00      0.00
                                0.00      0.00      0.00
                                0.00      0.00      0.00

     TS-vdW  stress (kbar)      0.00      0.00      0.00
                                0.00      0.00      0.00
                                0.00      0.00      0.00


                                0.00      0.00      0.00
                                0.00      0.00      0.00


                                0.00      0.00      0.00


     Writing all to output data dir new_calculations/myprefix.save/
 
     init_run     :     63.40s CPU      2.44s WALL (       1 calls)
     electrons    :    139.01s CPU      4.52s WALL (       1 calls)
     forces       :      0.99s CPU      0.03s WALL (       1 calls)
     stress       :      2.38s CPU      0.08s WALL (       1 calls)

     Called by init_run:
     wfcinit      :      8.05s CPU      0.26s WALL (       1 calls)
     wfcinit:atom :      0.01s CPU      0.00s WALL (       1 calls)
     wfcinit:wfcr :      7.98s CPU      0.26s WALL (       1 calls)
     potinit      :      7.92s CPU      0.26s WALL (       1 calls)
     hinit0       :     46.68s CPU      1.89s WALL (       1 calls)

     Called by electrons:
     c_bands      :     67.89s CPU      2.15s WALL (      36 calls)
     sum_band     :     36.06s CPU      1.21s WALL (      36 calls)
     v_of_rho     :      7.34s CPU      0.24s WALL (      37 calls)
     v_h          :      0.78s CPU      0.03s WALL (      37 calls)
     v_xc         :      6.78s CPU      0.22s WALL (      39 calls)
     newd         :     23.33s CPU      0.78s WALL (      37 calls)
     mix_rho      :      2.34s CPU      0.08s WALL (      36 calls)

     Called by c_bands:
     init_us_2    :      0.57s CPU      0.02s WALL (      73 calls)
     init_us_2:cp :      0.43s CPU      0.01s WALL (      73 calls)
     regterg      :     66.45s CPU      2.10s WALL (      36 calls)

     Called by sum_band:
     sum_band:wei :      0.24s CPU      0.01s WALL (      36 calls)
     sum_band:loo :     13.54s CPU      0.43s WALL (      36 calls)
     sum_band:buf :      0.03s CPU      0.00s WALL (      36 calls)
     sum_band:ini :      0.34s CPU      0.01s WALL (      36 calls)
     sum_band:cal :      0.15s CPU      0.00s WALL (      36 calls)
     sum_band:bec :      0.08s CPU      0.00s WALL (      36 calls)
     addusdens    :     20.92s CPU      0.72s WALL (      36 calls)
     addusd:skk   :      0.15s CPU      0.00s WALL (      72 calls)
     addusd:dgemm :      3.35s CPU      0.16s WALL (      72 calls)
     addusd:qvan2 :     16.02s CPU      0.52s WALL (      72 calls)

     Called by *egterg:
     rdiaghg      :      1.42s CPU      0.05s WALL (      95 calls)
     regterg:over :      0.14s CPU      0.00s WALL (      59 calls)
     regterg:upda :      0.21s CPU      0.01s WALL (      59 calls)
     regterg:last :      0.23s CPU      0.01s WALL (      49 calls)
     h_psi        :     70.96s CPU      2.25s WALL (      96 calls)
     s_psi        :      0.12s CPU      0.00s WALL (      96 calls)
     g_psi        :      0.06s CPU      0.00s WALL (      59 calls)

     Called by h_psi:
     h_psi:calbec :      0.40s CPU      0.01s WALL (      96 calls)
     vloc_psi     :     69.87s CPU      2.21s WALL (      96 calls)
     add_vuspsi   :      0.22s CPU      0.01s WALL (      96 calls)

     General routines
     calbec       :      0.35s CPU      0.01s WALL (     137 calls)
     fft          :     40.32s CPU      1.49s WALL (     425 calls)
     ffts         :      7.78s CPU      0.25s WALL (      73 calls)
     fftw         :     77.04s CPU      2.44s WALL (    1964 calls)
     interpolate  :      8.25s CPU      0.27s WALL (      37 calls)
 
     Parallel routines
 
     PWSCF        :   3m32.40s CPU      8.77s WALL

 
   This run was terminated on:  17:21: 0  21May2023            

=------------------------------------------------------------------------------=
   JOB DONE.
=------------------------------------------------------------------------------=
