
     Program PWSCF v.7.0 starts on 20May2023 at  1:19:28 

     This program is part of the open-source Quantum ESPRESSO suite
     for quantum simulation of materials; please cite
         "P. Giannozzi et al., J. Phys.:Condens. Matter 21 395502 (2009);
         "P. Giannozzi et al., J. Phys.:Condens. Matter 29 465901 (2017);
         "P. Giannozzi et al., J. Chem. Phys. 152 154105 (2020);
          URL http://www.quantum-espresso.org", 
     in publications or presentations arising from this work. More details at
     http://www.quantum-espresso.org/quote

     Parallel version (MPI & OpenMP), running on      32 processor cores
     Number of MPI processes:                 1
     Threads/MPI process:                    32

     MPI processes distributed on     1 nodes
     161725 MiB available memory on the printing compute node when the environment starts
 
     Reading input from espresso_82.pwi
Warning: card &CELL ignored
Warning: card / ignored

     Current dimensions of program PWSCF are:
     Max number of different atomic species (ntypx) = 10
     Max number of k-points (npk) =  40000
     Max angular momentum in pseudopotentials (lmaxx) =  4
     file Fe.pbe-spn-kjpaw_psl.0.2.1.UPF: wavefunction(s)  3D renormalized

     gamma-point specific algorithms are used
     Message from routine setup:
     using ibrav=0 with symmetry is DISCOURAGED, use correct ibrav instead

     Subspace diagonalization in iterative solution of the eigenvalue problem:
     a serial algorithm will be used

 
     G-vector sticks info
     --------------------
     sticks:   dense  smooth     PW     G-vecs:    dense   smooth      PW
     Sum        1547     769    199                66383    23465    2961
 
     Using Slab Decomposition
 


     bravais-lattice index     =            0
     lattice parameter (alat)  =       9.6481  a.u.
     unit-cell volume          =    1058.5380 (a.u.)^3
     number of atoms/cell      =           12
     number of atomic types    =            4
     number of electrons       =       170.00
     number of Kohn-Sham states=          102
     kinetic-energy cutoff     =      30.0000  Ry
     charge density cutoff     =     240.0000  Ry
     scf convergence threshold =      1.0E-06
     mixing beta               =       0.7000
     number of iterations used =            8  plain     mixing
     Exchange-correlation=  SLA  PW   PBX  PBC
                           (   1   4   3   4   0   0   0)

     celldm(1)=   9.648122  celldm(2)=   0.000000  celldm(3)=   0.000000
     celldm(4)=   0.000000  celldm(5)=   0.000000  celldm(6)=   0.000000

     crystal axes: (cart. coord. in units of alat)
               a(1) = (   1.000000   0.000000   0.000000 )  
               a(2) = (   0.500000   0.873328   0.000000 )  
               a(3) = (   0.000202   0.000000   1.349587 )  

     reciprocal axes: (cart. coord. in units 2 pi/alat)
               b(1) = (  1.000000 -0.572523 -0.000150 )  
               b(2) = (  0.000000  1.145045 -0.000000 )  
               b(3) = (  0.000000  0.000000  0.740968 )  


     PseudoPot. # 1 for Sm read from file:
     /home/pragov/projects/rrg-bengioy-ad/pragov/crystal_structure_design/SSSP/Sm.GGA-PBE-paw-v1.0.UPF
     MD5 check sum: 886f70968969f895acf876f5617e0641
     Pseudo is Projector augmented-wave + core cor, Zval = 16.0
     Generated using ATOMPAW code
     Shape of augmentation charge: BESSEL
     Using radial grid of 1107 points,  8 beta functions with: 
                l(1) =   0
                l(2) =   0
                l(3) =   1
                l(4) =   1
                l(5) =   2
                l(6) =   2
                l(7) =   3
                l(8) =   3
     Q(r) pseudized with 0 coefficients 


     PseudoPot. # 2 for Fe read from file:
     /home/pragov/projects/rrg-bengioy-ad/pragov/crystal_structure_design/SSSP/Fe.pbe-spn-kjpaw_psl.0.2.1.UPF
     MD5 check sum: e86618425769142926afa95317d90200
     Pseudo is Projector augmented-wave + core cor, Zval = 16.0
     Generated using "atomic" code by A. Dal Corso  v.5.0.99 svn rev. 10869
     Shape of augmentation charge: PSQ
     Using radial grid of 1191 points,  6 beta functions with: 
                l(1) =   0
                l(2) =   0
                l(3) =   1
                l(4) =   1
                l(5) =   2
                l(6) =   2
     Q(r) pseudized with 0 coefficients 


     PseudoPot. # 3 for Co read from file:
     /home/pragov/projects/rrg-bengioy-ad/pragov/crystal_structure_design/SSSP/Co_pbe_v1.2.uspp.F.UPF
     MD5 check sum: 5f91765df6ddd3222702df6e7b74a16d
     Pseudo is Ultrasoft + core correction, Zval = 17.0
     Generated by new atomic code, or converted to UPF format
     Using radial grid of  863 points,  6 beta functions with: 
                l(1) =   0
                l(2) =   0
                l(3) =   1
                l(4) =   1
                l(5) =   2
                l(6) =   2
     Q(r) pseudized with  8 coefficients,  rinner =    1.200   1.200   1.200
                                                       1.200   1.200

     PseudoPot. # 4 for B  read from file:
     /home/pragov/projects/rrg-bengioy-ad/pragov/crystal_structure_design/SSSP/b_pbe_v1.4.uspp.F.UPF
     MD5 check sum: cc6de2960df11db49a60e589f9ebb39b
     Pseudo is Ultrasoft + core correction, Zval =  3.0
     Generated by new atomic code, or converted to UPF format
     Using radial grid of  781 points,  4 beta functions with: 
                l(1) =   0
                l(2) =   0
                l(3) =   1
                l(4) =   1
     Q(r) pseudized with  8 coefficients,  rinner =    1.100   1.100   1.100


     atomic species   valence    mass     pseudopotential
        Sm            16.00   150.36000     Sm( 1.00)
        Fe            16.00    55.84500     Fe( 1.00)
        Co            17.00    58.93319     Co( 1.00)
        B              3.00    10.81000     B ( 1.00)

      2 Sym. Ops. (no inversion) found


                                    s                        frac. trans.

      isym =  1     identity                                     

 cryst.   s( 1) = (     1          0          0      )
                  (     0          1          0      )
                  (     0          0          1      )

 cart.    s( 1) = (  1.0000000  0.0000000  0.0000000 )
                  (  0.0000000  1.0000000 -0.0000000 )
                  (  0.0000000  0.0000000  1.0000000 )


      isym =  2     inv. 180 deg rotation - cart. axis [0,1,0]   

 cryst.   s( 2) = (     1          0          0      )
                  (     1         -1          0      )
                  (     0          0          1      )

 cart.    s( 2) = (  1.0000000  0.0000003 -0.0000000 )
                  (  0.0000000 -1.0000000  0.0000001 )
                  (  0.0000000  0.0000000  1.0000000 )


   Cartesian axes

     site n.     atom                  positions (alat units)
         1           Sm  tau(   1) = (   0.9999905   0.0000000   0.0032903  )
         2           Sm  tau(   2) = (   1.5000846   0.8733279   0.6649010  )
         3           Fe  tau(   3) = (   1.2501346   0.4366596   0.9615051  )
         4           Fe  tau(   4) = (   0.7501346   0.4366683   0.9615051  )
         5           Fe  tau(   5) = (   0.9999400   0.5804163   0.0040852  )
         6           Fe  tau(   6) = (   0.4999401   0.2929115   0.0040852  )
         7           Co  tau(   7) = (   0.5000714   0.0000000   0.3896703  )
         8           Co  tau(   8) = (   1.2500616   0.4366919   0.3912749  )
         9           Co  tau(   9) = (   0.7500606   0.4366360   0.3912749  )
        10           Co  tau(  10) = (   1.0001560   0.8733279   0.9612864  )
        11           B   tau(  11) = (   1.0000679   0.5851236   0.6701320  )
        12           B   tau(  12) = (   0.5000679   0.2882043   0.6701320  )

   Crystallographic axes

     site n.     atom                  positions (cryst. coord.)
         1           Sm  tau(   1) = (  0.9999900 -0.0000000  0.0024380  )
         2           Sm  tau(   2) = (  0.9999850  1.0000000  0.4926700  )
         3           Fe  tau(   3) = (  0.9999930  0.4999950  0.7124440  )
         4           Fe  tau(   4) = (  0.4999880  0.5000050  0.7124440  )
         5           Fe  tau(   5) = (  0.6676380  0.6646030  0.0030270  )
         6           Fe  tau(   6) = (  0.3322410  0.3353970  0.0030270  )
         7           Co  tau(   7) = (  0.5000130 -0.0000000  0.2887330  )
         8           Co  tau(   8) = (  0.9999870  0.5000320  0.2899220  )
         9           Co  tau(   9) = (  0.5000180  0.4999680  0.2899220  )
        10           Co  tau(  10) = (  0.5000120  1.0000000  0.7122820  )
        11           B   tau(  11) = (  0.6649710  0.6699930  0.4965460  )
        12           B   tau(  12) = (  0.3349640  0.3300070  0.4965460  )

     number of k points=     1  Methfessel-Paxton smearing, width (Ry)=  0.0010
                       cart. coord. in units 2pi/alat
        k(    1) = (   0.0000000   0.0000000   0.0000000), wk =   2.0000000

                       cryst. coord.
        k(    1) = (   0.0000000   0.0000000   0.0000000), wk =   2.0000000

     Dense  grid:    33192 G-vectors     FFT dimensions: (  48,  48,  72)

     Smooth grid:    11733 G-vectors     FFT dimensions: (  36,  36,  45)

     Dynamical RAM for                 wfc:       2.29 MB

     Dynamical RAM for     wfc (w. buffer):       2.29 MB

     Dynamical RAM for           str. fact:       2.03 MB

     Dynamical RAM for           local pot:       0.00 MB

     Dynamical RAM for          nlocal pot:       5.02 MB

     Dynamical RAM for                qrad:      11.94 MB

     Dynamical RAM for          rho,v,vnew:       5.32 MB

     Dynamical RAM for               rhoin:       1.77 MB

     Dynamical RAM for            rho*nmix:       8.10 MB

     Dynamical RAM for           G-vectors:       1.99 MB

     Dynamical RAM for          h,s,v(r/c):       0.95 MB

     Dynamical RAM for          <psi|beta>:       0.17 MB

     Dynamical RAM for                 psi:       4.57 MB

     Dynamical RAM for                hpsi:       4.57 MB

     Dynamical RAM for                spsi:       4.57 MB

     Dynamical RAM for      wfcinit/wfcrot:       8.60 MB

     Dynamical RAM for           addusdens:     283.12 MB

     Dynamical RAM for          addusforce:     286.46 MB

     Dynamical RAM for         addusstress:     294.77 MB

     Estimated static dynamical RAM per process >      39.21 MB

     Estimated max dynamical RAM per process >     342.08 MB

     Check: negative core charge=   -0.000145

     Initial potential from superposition of free atoms

     starting charge     165.9865, renormalised to     170.0000
     Starting wfcs are  176 randomized atomic wfcs
     Checking if some PAW data can be deallocated... 

     total cpu time spent up to now is       10.5 secs

     Self-consistent Calculation

     iteration #  1     ecut=    30.00 Ry     beta= 0.70
     Davidson diagonalization with overlap

---- Real-time Memory Report at c_bands before calling an iterative solver
           586 MiB given to the printing process from OS
             0 MiB allocation reported by mallinfo(arena+hblkhd)
        161473 MiB available memory on the node where the printing process lives
------------------
     ethr =  1.00E-02,  avg # of iterations =  2.0

     negative rho (up, down):  2.010E-03 0.000E+00

     total cpu time spent up to now is       13.7 secs

     total energy              =   -3568.85008331 Ry
     estimated scf accuracy    <     176.16308860 Ry

     iteration #  2     ecut=    30.00 Ry     beta= 0.70
     Davidson diagonalization with overlap

---- Real-time Memory Report at c_bands before calling an iterative solver
           758 MiB given to the printing process from OS
             0 MiB allocation reported by mallinfo(arena+hblkhd)
        161449 MiB available memory on the node where the printing process lives
------------------
     ethr =  1.00E-02,  avg # of iterations =  8.0

     negative rho (up, down):  6.570E-03 0.000E+00

     total cpu time spent up to now is       16.7 secs

     total energy              =   -3634.92967452 Ry
     estimated scf accuracy    <    2240.36336191 Ry

     iteration #  3     ecut=    30.00 Ry     beta= 0.70
     Davidson diagonalization with overlap

---- Real-time Memory Report at c_bands before calling an iterative solver
           761 MiB given to the printing process from OS
             0 MiB allocation reported by mallinfo(arena+hblkhd)
        161473 MiB available memory on the node where the printing process lives
------------------
     ethr =  1.00E-02,  avg # of iterations =  8.0

     negative rho (up, down):  4.999E-03 0.000E+00

     total cpu time spent up to now is       19.3 secs

     total energy              =   -3747.33737186 Ry
     estimated scf accuracy    <     337.35379735 Ry

     iteration #  4     ecut=    30.00 Ry     beta= 0.70
     Davidson diagonalization with overlap

---- Real-time Memory Report at c_bands before calling an iterative solver
           761 MiB given to the printing process from OS
             0 MiB allocation reported by mallinfo(arena+hblkhd)
        161470 MiB available memory on the node where the printing process lives
------------------
     ethr =  1.00E-02,  avg # of iterations =  5.0

     negative rho (up, down):  2.985E-03 0.000E+00

     total cpu time spent up to now is       21.3 secs

     total energy              =   -3750.51930810 Ry
     estimated scf accuracy    <     368.10415128 Ry

     iteration #  5     ecut=    30.00 Ry     beta= 0.70
     Davidson diagonalization with overlap

---- Real-time Memory Report at c_bands before calling an iterative solver
           761 MiB given to the printing process from OS
             0 MiB allocation reported by mallinfo(arena+hblkhd)
        161471 MiB available memory on the node where the printing process lives
------------------
     ethr =  1.00E-02,  avg # of iterations =  2.0

     negative rho (up, down):  1.959E-03 0.000E+00

     total cpu time spent up to now is       23.2 secs

     total energy              =   -3751.64612719 Ry
     estimated scf accuracy    <     202.60191187 Ry

     iteration #  6     ecut=    30.00 Ry     beta= 0.70
     Davidson diagonalization with overlap

---- Real-time Memory Report at c_bands before calling an iterative solver
           761 MiB given to the printing process from OS
             0 MiB allocation reported by mallinfo(arena+hblkhd)
        161470 MiB available memory on the node where the printing process lives
------------------
     ethr =  1.00E-02,  avg # of iterations =  1.0

     negative rho (up, down):  1.631E-03 0.000E+00

     total cpu time spent up to now is       25.0 secs

     total energy              =   -3749.90691225 Ry
     estimated scf accuracy    <     195.23637746 Ry

     iteration #  7     ecut=    30.00 Ry     beta= 0.70
     Davidson diagonalization with overlap

---- Real-time Memory Report at c_bands before calling an iterative solver
           761 MiB given to the printing process from OS
             0 MiB allocation reported by mallinfo(arena+hblkhd)
        161471 MiB available memory on the node where the printing process lives
------------------
     ethr =  1.00E-02,  avg # of iterations =  1.0

     negative rho (up, down):  1.222E-03 0.000E+00

     total cpu time spent up to now is       26.8 secs

     total energy              =   -3743.07493113 Ry
     estimated scf accuracy    <     149.46007837 Ry

     iteration #  8     ecut=    30.00 Ry     beta= 0.70
     Davidson diagonalization with overlap

---- Real-time Memory Report at c_bands before calling an iterative solver
           761 MiB given to the printing process from OS
             0 MiB allocation reported by mallinfo(arena+hblkhd)
        161472 MiB available memory on the node where the printing process lives
------------------
     ethr =  1.00E-02,  avg # of iterations =  1.0

     negative rho (up, down):  7.106E-04 0.000E+00

     total cpu time spent up to now is       28.5 secs

     total energy              =   -3742.13020065 Ry
     estimated scf accuracy    <      82.39777199 Ry

     iteration #  9     ecut=    30.00 Ry     beta= 0.70
     Davidson diagonalization with overlap

---- Real-time Memory Report at c_bands before calling an iterative solver
           761 MiB given to the printing process from OS
             0 MiB allocation reported by mallinfo(arena+hblkhd)
        161473 MiB available memory on the node where the printing process lives
------------------
     ethr =  1.00E-02,  avg # of iterations =  1.0

     negative rho (up, down):  5.130E-04 0.000E+00

     total cpu time spent up to now is       30.3 secs

     total energy              =   -3741.86651746 Ry
     estimated scf accuracy    <     152.60796408 Ry

     iteration # 10     ecut=    30.00 Ry     beta= 0.70
     Davidson diagonalization with overlap

---- Real-time Memory Report at c_bands before calling an iterative solver
           763 MiB given to the printing process from OS
             0 MiB allocation reported by mallinfo(arena+hblkhd)
        161473 MiB available memory on the node where the printing process lives
------------------
     ethr =  1.00E-02,  avg # of iterations =  1.0

     total cpu time spent up to now is       32.1 secs

     total energy              =   -3691.22857183 Ry
     estimated scf accuracy    <     123.87025897 Ry

     iteration # 11     ecut=    30.00 Ry     beta= 0.70
     Davidson diagonalization with overlap

---- Real-time Memory Report at c_bands before calling an iterative solver
           763 MiB given to the printing process from OS
             0 MiB allocation reported by mallinfo(arena+hblkhd)
        161476 MiB available memory on the node where the printing process lives
------------------
     ethr =  1.00E-02,  avg # of iterations =  6.0

     total cpu time spent up to now is       35.5 secs

     total energy              =   -3734.95752396 Ry
     estimated scf accuracy    <     575.04345219 Ry

     iteration # 12     ecut=    30.00 Ry     beta= 0.70
     Davidson diagonalization with overlap

---- Real-time Memory Report at c_bands before calling an iterative solver
           763 MiB given to the printing process from OS
             0 MiB allocation reported by mallinfo(arena+hblkhd)
        161447 MiB available memory on the node where the printing process lives
------------------
     ethr =  1.00E-02,  avg # of iterations =  3.0

     total cpu time spent up to now is       37.4 secs

     total energy              =   -3734.61460188 Ry
     estimated scf accuracy    <     191.02551191 Ry

     iteration # 13     ecut=    30.00 Ry     beta= 0.70
     Davidson diagonalization with overlap

---- Real-time Memory Report at c_bands before calling an iterative solver
           763 MiB given to the printing process from OS
             0 MiB allocation reported by mallinfo(arena+hblkhd)
        161433 MiB available memory on the node where the printing process lives
------------------
     ethr =  1.00E-02,  avg # of iterations =  3.0

     total cpu time spent up to now is       39.3 secs

     total energy              =   -3729.97890435 Ry
     estimated scf accuracy    <     154.96618692 Ry

     iteration # 14     ecut=    30.00 Ry     beta= 0.70
     Davidson diagonalization with overlap

---- Real-time Memory Report at c_bands before calling an iterative solver
           763 MiB given to the printing process from OS
             0 MiB allocation reported by mallinfo(arena+hblkhd)
        161435 MiB available memory on the node where the printing process lives
------------------
     ethr =  1.00E-02,  avg # of iterations =  4.0

     total cpu time spent up to now is       41.2 secs

     total energy              =   -3728.55603466 Ry
     estimated scf accuracy    <      60.48132394 Ry

     iteration # 15     ecut=    30.00 Ry     beta= 0.70
     Davidson diagonalization with overlap

---- Real-time Memory Report at c_bands before calling an iterative solver
           763 MiB given to the printing process from OS
             0 MiB allocation reported by mallinfo(arena+hblkhd)
        161438 MiB available memory on the node where the printing process lives
------------------
     ethr =  1.00E-02,  avg # of iterations =  3.0

     total cpu time spent up to now is       43.0 secs

     total energy              =   -3730.23357018 Ry
     estimated scf accuracy    <      34.56439337 Ry

     iteration # 16     ecut=    30.00 Ry     beta= 0.70
     Davidson diagonalization with overlap

---- Real-time Memory Report at c_bands before calling an iterative solver
           763 MiB given to the printing process from OS
             0 MiB allocation reported by mallinfo(arena+hblkhd)
        161440 MiB available memory on the node where the printing process lives
------------------
     ethr =  1.00E-02,  avg # of iterations =  1.0

     total cpu time spent up to now is       44.8 secs

     total energy              =   -3729.57401353 Ry
     estimated scf accuracy    <      32.77881854 Ry

     iteration # 17     ecut=    30.00 Ry     beta= 0.70
     Davidson diagonalization with overlap

---- Real-time Memory Report at c_bands before calling an iterative solver
           763 MiB given to the printing process from OS
             0 MiB allocation reported by mallinfo(arena+hblkhd)
        161441 MiB available memory on the node where the printing process lives
------------------
     ethr =  1.00E-02,  avg # of iterations =  1.0

     total cpu time spent up to now is       46.6 secs

     total energy              =   -3730.74479099 Ry
     estimated scf accuracy    <      42.61059165 Ry

     iteration # 18     ecut=    30.00 Ry     beta= 0.70
     Davidson diagonalization with overlap

---- Real-time Memory Report at c_bands before calling an iterative solver
           763 MiB given to the printing process from OS
             0 MiB allocation reported by mallinfo(arena+hblkhd)
        161443 MiB available memory on the node where the printing process lives
------------------
     ethr =  1.00E-02,  avg # of iterations =  1.0

     total cpu time spent up to now is       48.3 secs

     total energy              =   -3730.70713159 Ry
     estimated scf accuracy    <      27.55765533 Ry

     iteration # 19     ecut=    30.00 Ry     beta= 0.70
     Davidson diagonalization with overlap

---- Real-time Memory Report at c_bands before calling an iterative solver
           763 MiB given to the printing process from OS
             0 MiB allocation reported by mallinfo(arena+hblkhd)
        161444 MiB available memory on the node where the printing process lives
------------------
     ethr =  1.00E-02,  avg # of iterations =  4.0

     total cpu time spent up to now is       50.2 secs

     total energy              =   -3736.29614840 Ry
     estimated scf accuracy    <      70.74461594 Ry

     iteration # 20     ecut=    30.00 Ry     beta= 0.70
     Davidson diagonalization with overlap

---- Real-time Memory Report at c_bands before calling an iterative solver
           763 MiB given to the printing process from OS
             0 MiB allocation reported by mallinfo(arena+hblkhd)
        161444 MiB available memory on the node where the printing process lives
------------------
     ethr =  1.00E-02,  avg # of iterations =  5.0

     total cpu time spent up to now is       52.2 secs

     total energy              =   -3728.49047138 Ry
     estimated scf accuracy    <     173.03227984 Ry

     iteration # 21     ecut=    30.00 Ry     beta= 0.70
     Davidson diagonalization with overlap

---- Real-time Memory Report at c_bands before calling an iterative solver
           763 MiB given to the printing process from OS
             0 MiB allocation reported by mallinfo(arena+hblkhd)
        161446 MiB available memory on the node where the printing process lives
------------------
     ethr =  1.00E-02,  avg # of iterations =  2.0

     total cpu time spent up to now is       54.1 secs

     total energy              =   -3729.29288193 Ry
     estimated scf accuracy    <     137.93210006 Ry

     iteration # 22     ecut=    30.00 Ry     beta= 0.70
     Davidson diagonalization with overlap

---- Real-time Memory Report at c_bands before calling an iterative solver
           763 MiB given to the printing process from OS
             0 MiB allocation reported by mallinfo(arena+hblkhd)
        161445 MiB available memory on the node where the printing process lives
------------------
     ethr =  1.00E-02,  avg # of iterations =  1.0

     negative rho (up, down):  1.488E-04 0.000E+00

     total cpu time spent up to now is       55.8 secs

     total energy              =   -3730.41239258 Ry
     estimated scf accuracy    <      49.48958195 Ry

     iteration # 23     ecut=    30.00 Ry     beta= 0.70
     Davidson diagonalization with overlap

---- Real-time Memory Report at c_bands before calling an iterative solver
           763 MiB given to the printing process from OS
             0 MiB allocation reported by mallinfo(arena+hblkhd)
        161464 MiB available memory on the node where the printing process lives
------------------
     ethr =  1.00E-02,  avg # of iterations =  2.0

     negative rho (up, down):  2.511E-04 0.000E+00

     total cpu time spent up to now is       57.6 secs

     total energy              =   -3727.20956372 Ry
     estimated scf accuracy    <     202.38478509 Ry

     iteration # 24     ecut=    30.00 Ry     beta= 0.70
     Davidson diagonalization with overlap

---- Real-time Memory Report at c_bands before calling an iterative solver
           763 MiB given to the printing process from OS
             0 MiB allocation reported by mallinfo(arena+hblkhd)
        161460 MiB available memory on the node where the printing process lives
------------------
     ethr =  1.00E-02,  avg # of iterations =  3.0

     total cpu time spent up to now is       59.5 secs

     total energy              =   -3728.11568038 Ry
     estimated scf accuracy    <     124.73614856 Ry

     iteration # 25     ecut=    30.00 Ry     beta= 0.70
     Davidson diagonalization with overlap

---- Real-time Memory Report at c_bands before calling an iterative solver
           763 MiB given to the printing process from OS
             0 MiB allocation reported by mallinfo(arena+hblkhd)
        161460 MiB available memory on the node where the printing process lives
------------------
     ethr =  1.00E-02,  avg # of iterations =  2.0

     total cpu time spent up to now is       61.3 secs

     total energy              =   -3724.78016349 Ry
     estimated scf accuracy    <      26.58388610 Ry

     iteration # 26     ecut=    30.00 Ry     beta= 0.70
     Davidson diagonalization with overlap

---- Real-time Memory Report at c_bands before calling an iterative solver
           763 MiB given to the printing process from OS
             0 MiB allocation reported by mallinfo(arena+hblkhd)
        161461 MiB available memory on the node where the printing process lives
------------------
     ethr =  1.00E-02,  avg # of iterations =  3.0

     total cpu time spent up to now is       64.0 secs

     total energy              =   -3727.27960948 Ry
     estimated scf accuracy    <     236.73303558 Ry

     iteration # 27     ecut=    30.00 Ry     beta= 0.70
     Davidson diagonalization with overlap

---- Real-time Memory Report at c_bands before calling an iterative solver
           763 MiB given to the printing process from OS
             0 MiB allocation reported by mallinfo(arena+hblkhd)
        161485 MiB available memory on the node where the printing process lives
------------------
     ethr =  1.00E-02,  avg # of iterations =  6.0

     total cpu time spent up to now is       66.3 secs

     total energy              =   -3718.98037573 Ry
     estimated scf accuracy    <     209.85399221 Ry

     iteration # 28     ecut=    30.00 Ry     beta= 0.70
     Davidson diagonalization with overlap

---- Real-time Memory Report at c_bands before calling an iterative solver
           763 MiB given to the printing process from OS
             0 MiB allocation reported by mallinfo(arena+hblkhd)
        161487 MiB available memory on the node where the printing process lives
------------------
     ethr =  1.00E-02,  avg # of iterations =  5.0

     total cpu time spent up to now is       68.5 secs

     total energy              =   -3727.37987372 Ry
     estimated scf accuracy    <     243.35308772 Ry

     iteration # 29     ecut=    30.00 Ry     beta= 0.70
     Davidson diagonalization with overlap

---- Real-time Memory Report at c_bands before calling an iterative solver
           763 MiB given to the printing process from OS
             0 MiB allocation reported by mallinfo(arena+hblkhd)
        161485 MiB available memory on the node where the printing process lives
------------------
     ethr =  1.00E-02,  avg # of iterations =  5.0

     total cpu time spent up to now is       70.5 secs

     total energy              =   -3731.54453264 Ry
     estimated scf accuracy    <     122.03529374 Ry

     iteration # 30     ecut=    30.00 Ry     beta= 0.70
     Davidson diagonalization with overlap

---- Real-time Memory Report at c_bands before calling an iterative solver
           763 MiB given to the printing process from OS
             0 MiB allocation reported by mallinfo(arena+hblkhd)
        161486 MiB available memory on the node where the printing process lives
------------------
     ethr =  1.00E-02,  avg # of iterations =  2.0

     total cpu time spent up to now is       72.3 secs

     total energy              =   -3730.23483398 Ry
     estimated scf accuracy    <     102.50369923 Ry

     iteration # 31     ecut=    30.00 Ry     beta= 0.70
     Davidson diagonalization with overlap

---- Real-time Memory Report at c_bands before calling an iterative solver
           763 MiB given to the printing process from OS
             0 MiB allocation reported by mallinfo(arena+hblkhd)
        161486 MiB available memory on the node where the printing process lives
------------------
     ethr =  1.00E-02,  avg # of iterations =  2.0

     total cpu time spent up to now is       74.1 secs

     total energy              =   -3728.99366307 Ry
     estimated scf accuracy    <      63.57776049 Ry

     iteration # 32     ecut=    30.00 Ry     beta= 0.70
     Davidson diagonalization with overlap

---- Real-time Memory Report at c_bands before calling an iterative solver
           763 MiB given to the printing process from OS
             0 MiB allocation reported by mallinfo(arena+hblkhd)
        161485 MiB available memory on the node where the printing process lives
------------------
     ethr =  1.00E-02,  avg # of iterations =  4.0

     total cpu time spent up to now is       76.0 secs

     total energy              =   -3727.21227243 Ry
     estimated scf accuracy    <     125.07557059 Ry

     iteration # 33     ecut=    30.00 Ry     beta= 0.70
     Davidson diagonalization with overlap

---- Real-time Memory Report at c_bands before calling an iterative solver
           763 MiB given to the printing process from OS
             0 MiB allocation reported by mallinfo(arena+hblkhd)
        161486 MiB available memory on the node where the printing process lives
------------------
     ethr =  1.00E-02,  avg # of iterations =  3.0

     total cpu time spent up to now is       77.9 secs

     total energy              =   -3730.96301989 Ry
     estimated scf accuracy    <     116.18248414 Ry

     iteration # 34     ecut=    30.00 Ry     beta= 0.70
     Davidson diagonalization with overlap

---- Real-time Memory Report at c_bands before calling an iterative solver
           763 MiB given to the printing process from OS
             0 MiB allocation reported by mallinfo(arena+hblkhd)
        161486 MiB available memory on the node where the printing process lives
------------------
     ethr =  1.00E-02,  avg # of iterations =  1.0

     negative rho (up, down):  7.627E-04 0.000E+00

     total cpu time spent up to now is       79.6 secs

     total energy              =   -3705.26409971 Ry
     estimated scf accuracy    <     111.24972548 Ry

     iteration # 35     ecut=    30.00 Ry     beta= 0.70
     Davidson diagonalization with overlap

---- Real-time Memory Report at c_bands before calling an iterative solver
           763 MiB given to the printing process from OS
             0 MiB allocation reported by mallinfo(arena+hblkhd)
        161473 MiB available memory on the node where the printing process lives
------------------
     ethr =  1.00E-02,  avg # of iterations =  5.0

     negative rho (up, down):  1.015E-03 0.000E+00

     total cpu time spent up to now is       81.8 secs

     total energy              =   -3718.00158937 Ry
     estimated scf accuracy    <     557.41231490 Ry

     iteration # 36     ecut=    30.00 Ry     beta= 0.70
     Davidson diagonalization with overlap

---- Real-time Memory Report at c_bands before calling an iterative solver
           763 MiB given to the printing process from OS
             0 MiB allocation reported by mallinfo(arena+hblkhd)
        161472 MiB available memory on the node where the printing process lives
------------------
     ethr =  1.00E-02,  avg # of iterations =  7.0

     negative rho (up, down):  9.171E-04 0.000E+00

     total cpu time spent up to now is       83.9 secs

     total energy              =   -3731.82337801 Ry
     estimated scf accuracy    <     166.07503272 Ry

     iteration # 37     ecut=    30.00 Ry     beta= 0.70
     Davidson diagonalization with overlap

---- Real-time Memory Report at c_bands before calling an iterative solver
           763 MiB given to the printing process from OS
             0 MiB allocation reported by mallinfo(arena+hblkhd)
        161472 MiB available memory on the node where the printing process lives
------------------
     ethr =  1.00E-02,  avg # of iterations =  2.0

     negative rho (up, down):  6.745E-04 0.000E+00

     total cpu time spent up to now is       85.8 secs

     total energy              =   -3730.02322608 Ry
     estimated scf accuracy    <     132.40326586 Ry

     iteration # 38     ecut=    30.00 Ry     beta= 0.70
     Davidson diagonalization with overlap

---- Real-time Memory Report at c_bands before calling an iterative solver
           763 MiB given to the printing process from OS
             0 MiB allocation reported by mallinfo(arena+hblkhd)
        161473 MiB available memory on the node where the printing process lives
------------------
     ethr =  1.00E-02,  avg # of iterations =  2.0

     negative rho (up, down):  2.756E-04 0.000E+00

     total cpu time spent up to now is       87.5 secs

     total energy              =   -3731.96622702 Ry
     estimated scf accuracy    <      56.22659872 Ry

     iteration # 39     ecut=    30.00 Ry     beta= 0.70
     Davidson diagonalization with overlap

---- Real-time Memory Report at c_bands before calling an iterative solver
           763 MiB given to the printing process from OS
             0 MiB allocation reported by mallinfo(arena+hblkhd)
        161473 MiB available memory on the node where the printing process lives
------------------
     ethr =  1.00E-02,  avg # of iterations =  1.0

     negative rho (up, down):  2.139E-04 0.000E+00

     total cpu time spent up to now is       89.3 secs

     total energy              =   -3730.86440412 Ry
     estimated scf accuracy    <     120.07918522 Ry

     iteration # 40     ecut=    30.00 Ry     beta= 0.70
     Davidson diagonalization with overlap

---- Real-time Memory Report at c_bands before calling an iterative solver
           763 MiB given to the printing process from OS
             0 MiB allocation reported by mallinfo(arena+hblkhd)
        161456 MiB available memory on the node where the printing process lives
------------------
     ethr =  1.00E-02,  avg # of iterations =  3.0

     negative rho (up, down):  3.726E-04 0.000E+00

     total cpu time spent up to now is       91.2 secs

     total energy              =   -3724.67597644 Ry
     estimated scf accuracy    <     163.95320874 Ry

     iteration # 41     ecut=    30.00 Ry     beta= 0.70
     Davidson diagonalization with overlap

---- Real-time Memory Report at c_bands before calling an iterative solver
           763 MiB given to the printing process from OS
             0 MiB allocation reported by mallinfo(arena+hblkhd)
        161454 MiB available memory on the node where the printing process lives
------------------
     ethr =  1.00E-02,  avg # of iterations =  6.0

     negative rho (up, down):  5.926E-04 0.000E+00

     total cpu time spent up to now is       93.4 secs

     total energy              =   -3724.33077307 Ry
     estimated scf accuracy    <     222.38904633 Ry

     iteration # 42     ecut=    30.00 Ry     beta= 0.70
     Davidson diagonalization with overlap

---- Real-time Memory Report at c_bands before calling an iterative solver
           763 MiB given to the printing process from OS
             0 MiB allocation reported by mallinfo(arena+hblkhd)
        161453 MiB available memory on the node where the printing process lives
------------------
     ethr =  1.00E-02,  avg # of iterations =  5.0

     negative rho (up, down):  9.306E-06 0.000E+00

     total cpu time spent up to now is       95.4 secs

     total energy              =   -3727.55347188 Ry
     estimated scf accuracy    <      80.15900749 Ry

     iteration # 43     ecut=    30.00 Ry     beta= 0.70
     Davidson diagonalization with overlap

---- Real-time Memory Report at c_bands before calling an iterative solver
           765 MiB given to the printing process from OS
             0 MiB allocation reported by mallinfo(arena+hblkhd)
        161451 MiB available memory on the node where the printing process lives
------------------
     ethr =  1.00E-02,  avg # of iterations =  3.0

     total cpu time spent up to now is       97.3 secs

     total energy              =   -3729.90444985 Ry
     estimated scf accuracy    <      83.38039257 Ry

     iteration # 44     ecut=    30.00 Ry     beta= 0.70
     Davidson diagonalization with overlap

---- Real-time Memory Report at c_bands before calling an iterative solver
           765 MiB given to the printing process from OS
             0 MiB allocation reported by mallinfo(arena+hblkhd)
        161447 MiB available memory on the node where the printing process lives
------------------
     ethr =  1.00E-02,  avg # of iterations =  4.0

     total cpu time spent up to now is       99.4 secs

     total energy              =   -3723.28833453 Ry
     estimated scf accuracy    <     241.55396858 Ry

     iteration # 45     ecut=    30.00 Ry     beta= 0.70
     Davidson diagonalization with overlap

---- Real-time Memory Report at c_bands before calling an iterative solver
           765 MiB given to the printing process from OS
             0 MiB allocation reported by mallinfo(arena+hblkhd)
        161461 MiB available memory on the node where the printing process lives
------------------
     ethr =  1.00E-02,  avg # of iterations =  3.0

     total cpu time spent up to now is      101.3 secs

     total energy              =   -3728.65213268 Ry
     estimated scf accuracy    <     107.80260867 Ry

     iteration # 46     ecut=    30.00 Ry     beta= 0.70
     Davidson diagonalization with overlap

---- Real-time Memory Report at c_bands before calling an iterative solver
           765 MiB given to the printing process from OS
             0 MiB allocation reported by mallinfo(arena+hblkhd)
        161437 MiB available memory on the node where the printing process lives
------------------
     ethr =  1.00E-02,  avg # of iterations =  2.0

     total cpu time spent up to now is      103.1 secs

     total energy              =   -3729.38083352 Ry
     estimated scf accuracy    <      43.72781686 Ry

     iteration # 47     ecut=    30.00 Ry     beta= 0.70
     Davidson diagonalization with overlap

---- Real-time Memory Report at c_bands before calling an iterative solver
           765 MiB given to the printing process from OS
             0 MiB allocation reported by mallinfo(arena+hblkhd)
        161437 MiB available memory on the node where the printing process lives
------------------
     ethr =  1.00E-02,  avg # of iterations =  3.0

     total cpu time spent up to now is      104.9 secs

     total energy              =   -3725.87691874 Ry
     estimated scf accuracy    <     129.57202282 Ry

     iteration # 48     ecut=    30.00 Ry     beta= 0.70
     Davidson diagonalization with overlap

---- Real-time Memory Report at c_bands before calling an iterative solver
           765 MiB given to the printing process from OS
             0 MiB allocation reported by mallinfo(arena+hblkhd)
        161436 MiB available memory on the node where the printing process lives
------------------
     ethr =  1.00E-02,  avg # of iterations =  4.0

     total cpu time spent up to now is      106.8 secs

     total energy              =   -3727.24982645 Ry
     estimated scf accuracy    <      98.83243425 Ry

     iteration # 49     ecut=    30.00 Ry     beta= 0.70
     Davidson diagonalization with overlap

---- Real-time Memory Report at c_bands before calling an iterative solver
           765 MiB given to the printing process from OS
             0 MiB allocation reported by mallinfo(arena+hblkhd)
        161436 MiB available memory on the node where the printing process lives
------------------
     ethr =  1.00E-02,  avg # of iterations =  3.0

     total cpu time spent up to now is      108.7 secs

     total energy              =   -3726.91536921 Ry
     estimated scf accuracy    <     196.70847346 Ry

     iteration # 50     ecut=    30.00 Ry     beta= 0.70
     Davidson diagonalization with overlap

---- Real-time Memory Report at c_bands before calling an iterative solver
           765 MiB given to the printing process from OS
             0 MiB allocation reported by mallinfo(arena+hblkhd)
        161436 MiB available memory on the node where the printing process lives
------------------
     ethr =  1.00E-02,  avg # of iterations =  3.0

     total cpu time spent up to now is      110.6 secs

     total energy              =   -3728.02816614 Ry
     estimated scf accuracy    <     135.31791689 Ry

     iteration # 51     ecut=    30.00 Ry     beta= 0.70
     Davidson diagonalization with overlap

---- Real-time Memory Report at c_bands before calling an iterative solver
           765 MiB given to the printing process from OS
             0 MiB allocation reported by mallinfo(arena+hblkhd)
        161437 MiB available memory on the node where the printing process lives
------------------
     ethr =  1.00E-02,  avg # of iterations =  3.0

     total cpu time spent up to now is      112.4 secs

     total energy              =   -3727.54508165 Ry
     estimated scf accuracy    <      37.46579098 Ry

     iteration # 52     ecut=    30.00 Ry     beta= 0.70
     Davidson diagonalization with overlap

---- Real-time Memory Report at c_bands before calling an iterative solver
           765 MiB given to the printing process from OS
             0 MiB allocation reported by mallinfo(arena+hblkhd)
        161437 MiB available memory on the node where the printing process lives
------------------
     ethr =  1.00E-02,  avg # of iterations =  3.0

     total cpu time spent up to now is      114.3 secs

     total energy              =   -3725.49872161 Ry
     estimated scf accuracy    <     111.64159940 Ry

     iteration # 53     ecut=    30.00 Ry     beta= 0.70
     Davidson diagonalization with overlap

---- Real-time Memory Report at c_bands before calling an iterative solver
           765 MiB given to the printing process from OS
             0 MiB allocation reported by mallinfo(arena+hblkhd)
        161437 MiB available memory on the node where the printing process lives
------------------
     ethr =  1.00E-02,  avg # of iterations =  3.0

     total cpu time spent up to now is      116.2 secs

     total energy              =   -3729.65601542 Ry
     estimated scf accuracy    <     145.87509385 Ry

     iteration # 54     ecut=    30.00 Ry     beta= 0.70
     Davidson diagonalization with overlap

---- Real-time Memory Report at c_bands before calling an iterative solver
           765 MiB given to the printing process from OS
             0 MiB allocation reported by mallinfo(arena+hblkhd)
        161437 MiB available memory on the node where the printing process lives
------------------
     ethr =  1.00E-02,  avg # of iterations =  6.0

     total cpu time spent up to now is      118.3 secs

     total energy              =   -3727.66564959 Ry
     estimated scf accuracy    <     146.81540641 Ry

     iteration # 55     ecut=    30.00 Ry     beta= 0.70
     Davidson diagonalization with overlap

---- Real-time Memory Report at c_bands before calling an iterative solver
           765 MiB given to the printing process from OS
             0 MiB allocation reported by mallinfo(arena+hblkhd)
        161460 MiB available memory on the node where the printing process lives
------------------
     ethr =  1.00E-02,  avg # of iterations =  3.0

     total cpu time spent up to now is      120.2 secs

     total energy              =   -3724.70213111 Ry
     estimated scf accuracy    <     190.82693441 Ry

     iteration # 56     ecut=    30.00 Ry     beta= 0.70
     Davidson diagonalization with overlap

---- Real-time Memory Report at c_bands before calling an iterative solver
           765 MiB given to the printing process from OS
             0 MiB allocation reported by mallinfo(arena+hblkhd)
        161459 MiB available memory on the node where the printing process lives
------------------
     ethr =  1.00E-02,  avg # of iterations =  4.0

     total cpu time spent up to now is      122.1 secs

     total energy              =   -3722.29750706 Ry
     estimated scf accuracy    <     213.28168053 Ry

     iteration # 57     ecut=    30.00 Ry     beta= 0.70
     Davidson diagonalization with overlap

---- Real-time Memory Report at c_bands before calling an iterative solver
           765 MiB given to the printing process from OS
             0 MiB allocation reported by mallinfo(arena+hblkhd)
        161460 MiB available memory on the node where the printing process lives
------------------
     ethr =  1.00E-02,  avg # of iterations =  3.0

     negative rho (up, down):  1.725E-04 0.000E+00

     total cpu time spent up to now is      125.0 secs

     total energy              =   -3722.88663677 Ry
     estimated scf accuracy    <     211.86204094 Ry

     iteration # 58     ecut=    30.00 Ry     beta= 0.70
     Davidson diagonalization with overlap

---- Real-time Memory Report at c_bands before calling an iterative solver
           765 MiB given to the printing process from OS
             0 MiB allocation reported by mallinfo(arena+hblkhd)
        161442 MiB available memory on the node where the printing process lives
------------------
     ethr =  1.00E-02,  avg # of iterations =  6.0

     negative rho (up, down):  1.957E-04 0.000E+00

     total cpu time spent up to now is      129.6 secs

     total energy              =   -3729.03389002 Ry
     estimated scf accuracy    <     114.79019796 Ry

     iteration # 59     ecut=    30.00 Ry     beta= 0.70
     Davidson diagonalization with overlap

---- Real-time Memory Report at c_bands before calling an iterative solver
           765 MiB given to the printing process from OS
             0 MiB allocation reported by mallinfo(arena+hblkhd)
        161450 MiB available memory on the node where the printing process lives
------------------
     ethr =  1.00E-02,  avg # of iterations =  4.0

     total cpu time spent up to now is      131.5 secs

     total energy              =   -3730.25821871 Ry
     estimated scf accuracy    <      69.86548780 Ry

     iteration # 60     ecut=    30.00 Ry     beta= 0.70
     Davidson diagonalization with overlap

---- Real-time Memory Report at c_bands before calling an iterative solver
           765 MiB given to the printing process from OS
             0 MiB allocation reported by mallinfo(arena+hblkhd)
        161452 MiB available memory on the node where the printing process lives
------------------
     ethr =  1.00E-02,  avg # of iterations =  2.0

     total cpu time spent up to now is      133.3 secs

     total energy              =   -3720.01501499 Ry
     estimated scf accuracy    <      57.91075329 Ry

     iteration # 61     ecut=    30.00 Ry     beta= 0.70
     Davidson diagonalization with overlap

---- Real-time Memory Report at c_bands before calling an iterative solver
           765 MiB given to the printing process from OS
             0 MiB allocation reported by mallinfo(arena+hblkhd)
        161452 MiB available memory on the node where the printing process lives
------------------
     ethr =  1.00E-02,  avg # of iterations =  3.0

     total cpu time spent up to now is      135.4 secs

     total energy              =   -3721.63406984 Ry
     estimated scf accuracy    <     381.38139536 Ry

     iteration # 62     ecut=    30.00 Ry     beta= 0.70
     Davidson diagonalization with overlap

---- Real-time Memory Report at c_bands before calling an iterative solver
           765 MiB given to the printing process from OS
             0 MiB allocation reported by mallinfo(arena+hblkhd)
        161454 MiB available memory on the node where the printing process lives
------------------
     ethr =  1.00E-02,  avg # of iterations =  7.0

     total cpu time spent up to now is      137.6 secs

     total energy              =   -3725.67202490 Ry
     estimated scf accuracy    <     203.07719991 Ry

     iteration # 63     ecut=    30.00 Ry     beta= 0.70
     Davidson diagonalization with overlap

---- Real-time Memory Report at c_bands before calling an iterative solver
           765 MiB given to the printing process from OS
             0 MiB allocation reported by mallinfo(arena+hblkhd)
        161454 MiB available memory on the node where the printing process lives
------------------
     ethr =  1.00E-02,  avg # of iterations =  5.0

     total cpu time spent up to now is      139.6 secs

     total energy              =   -3725.62396605 Ry
     estimated scf accuracy    <     145.79076559 Ry

     iteration # 64     ecut=    30.00 Ry     beta= 0.70
     Davidson diagonalization with overlap

---- Real-time Memory Report at c_bands before calling an iterative solver
           765 MiB given to the printing process from OS
             0 MiB allocation reported by mallinfo(arena+hblkhd)
        161456 MiB available memory on the node where the printing process lives
------------------
     ethr =  1.00E-02,  avg # of iterations =  4.0

     total cpu time spent up to now is      141.6 secs

     total energy              =   -3725.73018329 Ry
     estimated scf accuracy    <     158.92849546 Ry

     iteration # 65     ecut=    30.00 Ry     beta= 0.70
     Davidson diagonalization with overlap

---- Real-time Memory Report at c_bands before calling an iterative solver
           765 MiB given to the printing process from OS
             0 MiB allocation reported by mallinfo(arena+hblkhd)
        161438 MiB available memory on the node where the printing process lives
------------------
     ethr =  1.00E-02,  avg # of iterations =  5.0

     total cpu time spent up to now is      143.8 secs

     total energy              =   -3724.34822750 Ry
     estimated scf accuracy    <     219.03672636 Ry

     iteration # 66     ecut=    30.00 Ry     beta= 0.70
     Davidson diagonalization with overlap

---- Real-time Memory Report at c_bands before calling an iterative solver
           765 MiB given to the printing process from OS
             0 MiB allocation reported by mallinfo(arena+hblkhd)
        161494 MiB available memory on the node where the printing process lives
------------------
     ethr =  1.00E-02,  avg # of iterations =  3.0

     total cpu time spent up to now is      145.7 secs

     total energy              =   -3726.79945664 Ry
     estimated scf accuracy    <     176.79564475 Ry

     iteration # 67     ecut=    30.00 Ry     beta= 0.70
     Davidson diagonalization with overlap

---- Real-time Memory Report at c_bands before calling an iterative solver
           773 MiB given to the printing process from OS
             0 MiB allocation reported by mallinfo(arena+hblkhd)
        161487 MiB available memory on the node where the printing process lives
------------------
     ethr =  1.00E-02,  avg # of iterations =  3.0

     total cpu time spent up to now is      147.5 secs

     total energy              =   -3726.87004071 Ry
     estimated scf accuracy    <     127.34490784 Ry

     iteration # 68     ecut=    30.00 Ry     beta= 0.70
     Davidson diagonalization with overlap

---- Real-time Memory Report at c_bands before calling an iterative solver
           773 MiB given to the printing process from OS
             0 MiB allocation reported by mallinfo(arena+hblkhd)
        161487 MiB available memory on the node where the printing process lives
------------------
     ethr =  1.00E-02,  avg # of iterations =  6.0

     negative rho (up, down):  5.605E-05 0.000E+00

     total cpu time spent up to now is      149.5 secs

     total energy              =   -3727.99905358 Ry
     estimated scf accuracy    <      98.06087868 Ry

     iteration # 69     ecut=    30.00 Ry     beta= 0.70
     Davidson diagonalization with overlap

---- Real-time Memory Report at c_bands before calling an iterative solver
           773 MiB given to the printing process from OS
             0 MiB allocation reported by mallinfo(arena+hblkhd)
        161489 MiB available memory on the node where the printing process lives
------------------
     ethr =  1.00E-02,  avg # of iterations =  5.0

     negative rho (up, down):  7.737E-05 0.000E+00

     total cpu time spent up to now is      151.5 secs

     total energy              =   -3718.50691437 Ry
     estimated scf accuracy    <     127.49320190 Ry

     iteration # 70     ecut=    30.00 Ry     beta= 0.70
     Davidson diagonalization with overlap

---- Real-time Memory Report at c_bands before calling an iterative solver
           773 MiB given to the printing process from OS
             0 MiB allocation reported by mallinfo(arena+hblkhd)
        161490 MiB available memory on the node where the printing process lives
------------------
     ethr =  1.00E-02,  avg # of iterations =  5.0

     negative rho (up, down):  4.224E-04 0.000E+00

     total cpu time spent up to now is      153.6 secs

     total energy              =   -3725.36111064 Ry
     estimated scf accuracy    <     232.97774387 Ry

     iteration # 71     ecut=    30.00 Ry     beta= 0.70
     Davidson diagonalization with overlap

---- Real-time Memory Report at c_bands before calling an iterative solver
           773 MiB given to the printing process from OS
             0 MiB allocation reported by mallinfo(arena+hblkhd)
        161489 MiB available memory on the node where the printing process lives
------------------
     ethr =  1.00E-02,  avg # of iterations =  4.0

     negative rho (up, down):  3.279E-04 0.000E+00

     total cpu time spent up to now is      155.6 secs

     total energy              =   -3730.74789051 Ry
     estimated scf accuracy    <      71.35085164 Ry

     iteration # 72     ecut=    30.00 Ry     beta= 0.70
     Davidson diagonalization with overlap

---- Real-time Memory Report at c_bands before calling an iterative solver
           773 MiB given to the printing process from OS
             0 MiB allocation reported by mallinfo(arena+hblkhd)
        161488 MiB available memory on the node where the printing process lives
------------------
     ethr =  1.00E-02,  avg # of iterations =  5.0

     total cpu time spent up to now is      157.5 secs

     total energy              =   -3726.29734319 Ry
     estimated scf accuracy    <     176.30476596 Ry

     iteration # 73     ecut=    30.00 Ry     beta= 0.70
     Davidson diagonalization with overlap

---- Real-time Memory Report at c_bands before calling an iterative solver
           773 MiB given to the printing process from OS
             0 MiB allocation reported by mallinfo(arena+hblkhd)
        161486 MiB available memory on the node where the printing process lives
------------------
     ethr =  1.00E-02,  avg # of iterations =  4.0

     total cpu time spent up to now is      159.5 secs

     total energy              =   -3722.01911650 Ry
     estimated scf accuracy    <     234.07204477 Ry

     iteration # 74     ecut=    30.00 Ry     beta= 0.70
     Davidson diagonalization with overlap

---- Real-time Memory Report at c_bands before calling an iterative solver
           773 MiB given to the printing process from OS
             0 MiB allocation reported by mallinfo(arena+hblkhd)
        161484 MiB available memory on the node where the printing process lives
------------------
     ethr =  1.00E-02,  avg # of iterations =  5.0

     total cpu time spent up to now is      161.6 secs

     total energy              =   -3723.87968533 Ry
     estimated scf accuracy    <     173.85660131 Ry

     iteration # 75     ecut=    30.00 Ry     beta= 0.70
     Davidson diagonalization with overlap

---- Real-time Memory Report at c_bands before calling an iterative solver
           773 MiB given to the printing process from OS
             0 MiB allocation reported by mallinfo(arena+hblkhd)
        161485 MiB available memory on the node where the printing process lives
------------------
     ethr =  1.00E-02,  avg # of iterations =  4.0

     total cpu time spent up to now is      163.5 secs

     total energy              =   -3724.95314502 Ry
     estimated scf accuracy    <     264.36915845 Ry

     iteration # 76     ecut=    30.00 Ry     beta= 0.70
     Davidson diagonalization with overlap

---- Real-time Memory Report at c_bands before calling an iterative solver
           773 MiB given to the printing process from OS
             0 MiB allocation reported by mallinfo(arena+hblkhd)
        161443 MiB available memory on the node where the printing process lives
------------------
     ethr =  1.00E-02,  avg # of iterations =  5.0

     total cpu time spent up to now is      165.6 secs

     total energy              =   -3727.95314747 Ry
     estimated scf accuracy    <     126.68237531 Ry

     iteration # 77     ecut=    30.00 Ry     beta= 0.70
     Davidson diagonalization with overlap

---- Real-time Memory Report at c_bands before calling an iterative solver
           773 MiB given to the printing process from OS
             0 MiB allocation reported by mallinfo(arena+hblkhd)
        161442 MiB available memory on the node where the printing process lives
------------------
     ethr =  1.00E-02,  avg # of iterations =  5.0

     total cpu time spent up to now is      167.4 secs

     total energy              =   -3726.63244737 Ry
     estimated scf accuracy    <      70.55147759 Ry

     iteration # 78     ecut=    30.00 Ry     beta= 0.70
     Davidson diagonalization with overlap

---- Real-time Memory Report at c_bands before calling an iterative solver
           775 MiB given to the printing process from OS
             0 MiB allocation reported by mallinfo(arena+hblkhd)
        161442 MiB available memory on the node where the printing process lives
------------------
     ethr =  1.00E-02,  avg # of iterations =  4.0

     negative rho (up, down):  4.417E-04 0.000E+00

     total cpu time spent up to now is      169.5 secs

     total energy              =   -3725.43390983 Ry
     estimated scf accuracy    <     137.32211438 Ry

     iteration # 79     ecut=    30.00 Ry     beta= 0.70
     Davidson diagonalization with overlap

---- Real-time Memory Report at c_bands before calling an iterative solver
           775 MiB given to the printing process from OS
             0 MiB allocation reported by mallinfo(arena+hblkhd)
        161502 MiB available memory on the node where the printing process lives
------------------
     ethr =  1.00E-02,  avg # of iterations =  5.0

     negative rho (up, down):  3.435E-04 0.000E+00

     total cpu time spent up to now is      171.5 secs

     total energy              =   -3725.32400049 Ry
     estimated scf accuracy    <     221.82334625 Ry

     iteration # 80     ecut=    30.00 Ry     beta= 0.70
     Davidson diagonalization with overlap

---- Real-time Memory Report at c_bands before calling an iterative solver
           775 MiB given to the printing process from OS
             0 MiB allocation reported by mallinfo(arena+hblkhd)
        161464 MiB available memory on the node where the printing process lives
------------------
     ethr =  1.00E-02,  avg # of iterations =  6.0

     total cpu time spent up to now is      173.7 secs

     total energy              =   -3731.16863224 Ry
     estimated scf accuracy    <      57.93554078 Ry

     iteration # 81     ecut=    30.00 Ry     beta= 0.70
     Davidson diagonalization with overlap

---- Real-time Memory Report at c_bands before calling an iterative solver
           775 MiB given to the printing process from OS
             0 MiB allocation reported by mallinfo(arena+hblkhd)
        161465 MiB available memory on the node where the printing process lives
------------------
     ethr =  1.00E-02,  avg # of iterations =  2.0

     total cpu time spent up to now is      175.4 secs

     total energy              =   -3729.35576144 Ry
     estimated scf accuracy    <      61.10085275 Ry

     iteration # 82     ecut=    30.00 Ry     beta= 0.70
     Davidson diagonalization with overlap

---- Real-time Memory Report at c_bands before calling an iterative solver
           775 MiB given to the printing process from OS
             0 MiB allocation reported by mallinfo(arena+hblkhd)
        161465 MiB available memory on the node where the printing process lives
------------------
     ethr =  1.00E-02,  avg # of iterations =  3.0

     total cpu time spent up to now is      177.3 secs

     total energy              =   -3723.53894044 Ry
     estimated scf accuracy    <     197.88099954 Ry

     iteration # 83     ecut=    30.00 Ry     beta= 0.70
     Davidson diagonalization with overlap

---- Real-time Memory Report at c_bands before calling an iterative solver
           775 MiB given to the printing process from OS
             0 MiB allocation reported by mallinfo(arena+hblkhd)
        161465 MiB available memory on the node where the printing process lives
------------------
     ethr =  1.00E-02,  avg # of iterations =  5.0

     total cpu time spent up to now is      179.4 secs

     total energy              =   -3722.98039894 Ry
     estimated scf accuracy    <     285.56006279 Ry

     iteration # 84     ecut=    30.00 Ry     beta= 0.70
     Davidson diagonalization with overlap

---- Real-time Memory Report at c_bands before calling an iterative solver
           775 MiB given to the printing process from OS
             0 MiB allocation reported by mallinfo(arena+hblkhd)
        161470 MiB available memory on the node where the printing process lives
------------------
     ethr =  1.00E-02,  avg # of iterations =  5.0

     total cpu time spent up to now is      181.5 secs

     total energy              =   -3724.85018334 Ry
     estimated scf accuracy    <     221.13159989 Ry

     iteration # 85     ecut=    30.00 Ry     beta= 0.70
     Davidson diagonalization with overlap

---- Real-time Memory Report at c_bands before calling an iterative solver
           775 MiB given to the printing process from OS
             0 MiB allocation reported by mallinfo(arena+hblkhd)
        161470 MiB available memory on the node where the printing process lives
------------------
     ethr =  1.00E-02,  avg # of iterations =  5.0

     total cpu time spent up to now is      183.6 secs

     total energy              =   -3728.09913942 Ry
     estimated scf accuracy    <     143.47272204 Ry

     iteration # 86     ecut=    30.00 Ry     beta= 0.70
     Davidson diagonalization with overlap

---- Real-time Memory Report at c_bands before calling an iterative solver
           775 MiB given to the printing process from OS
             0 MiB allocation reported by mallinfo(arena+hblkhd)
        161471 MiB available memory on the node where the printing process lives
------------------
     ethr =  1.00E-02,  avg # of iterations =  7.0

     total cpu time spent up to now is      185.6 secs

     total energy              =   -3720.88576566 Ry
     estimated scf accuracy    <     144.63359251 Ry

     iteration # 87     ecut=    30.00 Ry     beta= 0.70
     Davidson diagonalization with overlap

---- Real-time Memory Report at c_bands before calling an iterative solver
           775 MiB given to the printing process from OS
             0 MiB allocation reported by mallinfo(arena+hblkhd)
        161481 MiB available memory on the node where the printing process lives
------------------
     ethr =  1.00E-02,  avg # of iterations =  6.0

     total cpu time spent up to now is      187.8 secs

     total energy              =   -3726.28828471 Ry
     estimated scf accuracy    <     278.58265826 Ry

     iteration # 88     ecut=    30.00 Ry     beta= 0.70
     Davidson diagonalization with overlap

---- Real-time Memory Report at c_bands before calling an iterative solver
           775 MiB given to the printing process from OS
             0 MiB allocation reported by mallinfo(arena+hblkhd)
        161500 MiB available memory on the node where the printing process lives
------------------
     ethr =  1.00E-02,  avg # of iterations =  6.0

     total cpu time spent up to now is      189.8 secs

     total energy              =   -3728.98267550 Ry
     estimated scf accuracy    <     120.63859593 Ry

     iteration # 89     ecut=    30.00 Ry     beta= 0.70
     Davidson diagonalization with overlap

---- Real-time Memory Report at c_bands before calling an iterative solver
           775 MiB given to the printing process from OS
             0 MiB allocation reported by mallinfo(arena+hblkhd)
        161500 MiB available memory on the node where the printing process lives
------------------
     ethr =  1.00E-02,  avg # of iterations =  2.0

     total cpu time spent up to now is      191.6 secs

     total energy              =   -3728.76053602 Ry
     estimated scf accuracy    <      60.13300877 Ry

     iteration # 90     ecut=    30.00 Ry     beta= 0.70
     Davidson diagonalization with overlap

---- Real-time Memory Report at c_bands before calling an iterative solver
           775 MiB given to the printing process from OS
             0 MiB allocation reported by mallinfo(arena+hblkhd)
        161500 MiB available memory on the node where the printing process lives
------------------
     ethr =  1.00E-02,  avg # of iterations =  6.0

     total cpu time spent up to now is      193.7 secs

     total energy              =   -3724.96608415 Ry
     estimated scf accuracy    <     105.99444653 Ry

     iteration # 91     ecut=    30.00 Ry     beta= 0.70
     Davidson diagonalization with overlap

---- Real-time Memory Report at c_bands before calling an iterative solver
           775 MiB given to the printing process from OS
             0 MiB allocation reported by mallinfo(arena+hblkhd)
        161500 MiB available memory on the node where the printing process lives
------------------
     ethr =  1.00E-02,  avg # of iterations =  5.0

     total cpu time spent up to now is      195.9 secs

     total energy              =   -3722.78249274 Ry
     estimated scf accuracy    <     186.56421727 Ry

     iteration # 92     ecut=    30.00 Ry     beta= 0.70
     Davidson diagonalization with overlap

---- Real-time Memory Report at c_bands before calling an iterative solver
           776 MiB given to the printing process from OS
             0 MiB allocation reported by mallinfo(arena+hblkhd)
        161484 MiB available memory on the node where the printing process lives
------------------
     ethr =  1.00E-02,  avg # of iterations =  4.0

     negative rho (up, down):  1.217E-04 0.000E+00

     total cpu time spent up to now is      197.9 secs

     total energy              =   -3724.25542182 Ry
     estimated scf accuracy    <     204.03976962 Ry

     iteration # 93     ecut=    30.00 Ry     beta= 0.70
     Davidson diagonalization with overlap

---- Real-time Memory Report at c_bands before calling an iterative solver
           776 MiB given to the printing process from OS
             0 MiB allocation reported by mallinfo(arena+hblkhd)
        161481 MiB available memory on the node where the printing process lives
------------------
     ethr =  1.00E-02,  avg # of iterations =  5.0

     total cpu time spent up to now is      199.9 secs

     total energy              =   -3726.50921693 Ry
     estimated scf accuracy    <      91.03299416 Ry

     iteration # 94     ecut=    30.00 Ry     beta= 0.70
     Davidson diagonalization with overlap

---- Real-time Memory Report at c_bands before calling an iterative solver
           776 MiB given to the printing process from OS
             0 MiB allocation reported by mallinfo(arena+hblkhd)
        161481 MiB available memory on the node where the printing process lives
------------------
     ethr =  1.00E-02,  avg # of iterations =  3.0

     negative rho (up, down):  4.448E-04 0.000E+00

     total cpu time spent up to now is      201.8 secs

     total energy              =   -3725.75831811 Ry
     estimated scf accuracy    <     130.80950531 Ry

     iteration # 95     ecut=    30.00 Ry     beta= 0.70
     Davidson diagonalization with overlap

---- Real-time Memory Report at c_bands before calling an iterative solver
           776 MiB given to the printing process from OS
             0 MiB allocation reported by mallinfo(arena+hblkhd)
        161482 MiB available memory on the node where the printing process lives
------------------
     ethr =  1.00E-02,  avg # of iterations =  5.0

     negative rho (up, down):  1.465E-04 0.000E+00

     total cpu time spent up to now is      203.9 secs

     total energy              =   -3722.35802254 Ry
     estimated scf accuracy    <     265.26176899 Ry

     iteration # 96     ecut=    30.00 Ry     beta= 0.70
     Davidson diagonalization with overlap

---- Real-time Memory Report at c_bands before calling an iterative solver
           776 MiB given to the printing process from OS
             0 MiB allocation reported by mallinfo(arena+hblkhd)
        161480 MiB available memory on the node where the printing process lives
------------------
     ethr =  1.00E-02,  avg # of iterations =  6.0

     total cpu time spent up to now is      206.0 secs

     total energy              =   -3721.12443611 Ry
     estimated scf accuracy    <     211.01341158 Ry

     iteration # 97     ecut=    30.00 Ry     beta= 0.70
     Davidson diagonalization with overlap

---- Real-time Memory Report at c_bands before calling an iterative solver
           776 MiB given to the printing process from OS
             0 MiB allocation reported by mallinfo(arena+hblkhd)
        161437 MiB available memory on the node where the printing process lives
------------------
     ethr =  1.00E-02,  avg # of iterations =  9.0

     total cpu time spent up to now is      208.0 secs

     total energy              =   -3730.19316495 Ry
     estimated scf accuracy    <      68.20835998 Ry

     iteration # 98     ecut=    30.00 Ry     beta= 0.70
     Davidson diagonalization with overlap

---- Real-time Memory Report at c_bands before calling an iterative solver
           776 MiB given to the printing process from OS
             0 MiB allocation reported by mallinfo(arena+hblkhd)
        161438 MiB available memory on the node where the printing process lives
------------------
     ethr =  1.00E-02,  avg # of iterations =  3.0

     total cpu time spent up to now is      209.8 secs

     total energy              =   -3723.56095998 Ry
     estimated scf accuracy    <     121.20842059 Ry

     iteration # 99     ecut=    30.00 Ry     beta= 0.70
     Davidson diagonalization with overlap

---- Real-time Memory Report at c_bands before calling an iterative solver
           776 MiB given to the printing process from OS
             0 MiB allocation reported by mallinfo(arena+hblkhd)
        161441 MiB available memory on the node where the printing process lives
------------------
     ethr =  1.00E-02,  avg # of iterations =  5.0

     total cpu time spent up to now is      211.8 secs

     total energy              =   -3720.94795799 Ry
     estimated scf accuracy    <     231.01418274 Ry

     iteration #100     ecut=    30.00 Ry     beta= 0.70
     Davidson diagonalization with overlap

---- Real-time Memory Report at c_bands before calling an iterative solver
           776 MiB given to the printing process from OS
             0 MiB allocation reported by mallinfo(arena+hblkhd)
        161440 MiB available memory on the node where the printing process lives
------------------
     ethr =  1.00E-02,  avg # of iterations =  6.0

     total cpu time spent up to now is      214.6 secs

     total energy              =   -3726.81231971 Ry
     estimated scf accuracy    <     133.37633538 Ry

     End of self-consistent calculation

     convergence NOT achieved after 100 iterations: stopping

     Writing config to output data dir new_calculations/myprefix.save/
     Message from routine punch:
     wavefunctions written to file
 
     init_run     :    177.63s CPU     10.08s WALL (       1 calls)
     electrons    :   5961.56s CPU    204.14s WALL (       1 calls)

     Called by init_run:
     wfcinit      :     30.83s CPU      1.00s WALL (       1 calls)
     wfcinit:atom :      0.09s CPU      0.00s WALL (       1 calls)
     wfcinit:wfcr :     30.22s CPU      0.98s WALL (       1 calls)
     potinit      :     43.38s CPU      1.47s WALL (       1 calls)
     hinit0       :     88.85s CPU      6.92s WALL (       1 calls)

     Called by electrons:
     c_bands      :   2157.37s CPU     68.99s WALL (     100 calls)
     sum_band     :    822.85s CPU     36.24s WALL (     100 calls)
     v_of_rho     :     66.78s CPU      2.22s WALL (     101 calls)
     v_h          :      5.34s CPU      0.18s WALL (     101 calls)
     v_xc         :     61.19s CPU      2.03s WALL (     101 calls)
     newd         :    542.94s CPU     18.27s WALL (     101 calls)
     PAW_pot      :   2362.43s CPU     78.13s WALL (     101 calls)
     mix_rho      :     21.73s CPU      0.71s WALL (     100 calls)

     Called by c_bands:
     init_us_2    :      3.05s CPU      0.11s WALL (     201 calls)
     init_us_2:cp :      2.75s CPU      0.10s WALL (     201 calls)
     regterg      :   2134.85s CPU     68.25s WALL (     100 calls)

     Called by sum_band:
     sum_band:wei :      0.26s CPU      0.01s WALL (     100 calls)
     sum_band:loo :    339.24s CPU     10.78s WALL (     100 calls)
     sum_band:buf :      0.07s CPU      0.00s WALL (     100 calls)
     sum_band:ini :      1.52s CPU      0.05s WALL (     100 calls)
     sum_band:cal :      1.30s CPU      0.04s WALL (     100 calls)
     sum_band:bec :      1.05s CPU      0.03s WALL (     100 calls)
     addusdens    :    473.87s CPU     25.14s WALL (     100 calls)
     addusd:skk   :      1.15s CPU      0.04s WALL (     400 calls)
     addusd:dgemm :     39.27s CPU     10.86s WALL (     400 calls)
     addusd:qvan2 :    416.07s CPU     13.46s WALL (     400 calls)

     Called by *egterg:
     rdiaghg      :    165.40s CPU      5.47s WALL (     486 calls)
     regterg:over :      5.68s CPU      0.19s WALL (     386 calls)
     regterg:upda :      6.28s CPU      0.21s WALL (     386 calls)
     regterg:last :     15.19s CPU      0.51s WALL (     220 calls)
     h_psi        :   1936.34s CPU     61.64s WALL (     487 calls)
     s_psi        :      2.19s CPU      0.07s WALL (     487 calls)
     g_psi        :      0.52s CPU      0.02s WALL (     386 calls)

     Called by h_psi:
     h_psi:calbec :      4.73s CPU      0.16s WALL (     487 calls)
     vloc_psi     :   1925.26s CPU     61.28s WALL (     487 calls)
     add_vuspsi   :      3.07s CPU      0.10s WALL (     487 calls)

     General routines
     calbec       :      5.14s CPU      0.17s WALL (     587 calls)
     fft          :     78.19s CPU      3.68s WALL (    1111 calls)
     ffts         :     17.40s CPU      0.57s WALL (     201 calls)
     fftw         :   2015.66s CPU     63.92s WALL (   32766 calls)
     interpolate  :     21.16s CPU      0.70s WALL (     101 calls)
     davcio       :      1.82s CPU      0.06s WALL (      19 calls)
 
     Parallel routines

     PAW routines
     PAW_pot      :   2362.43s CPU     78.13s WALL (     101 calls)
     PAW_symme    :      1.59s CPU      0.05s WALL (     201 calls)
 
     PWSCF        :      1h42m CPU   3m34.83s WALL

 
   This run was terminated on:   1:23: 3  20May2023            

=------------------------------------------------------------------------------=
   JOB DONE.
=------------------------------------------------------------------------------=
