
     Program PWSCF v.7.0 starts on 20May2023 at  8: 5: 7 

     This program is part of the open-source Quantum ESPRESSO suite
     for quantum simulation of materials; please cite
         "P. Giannozzi et al., J. Phys.:Condens. Matter 21 395502 (2009);
         "P. Giannozzi et al., J. Phys.:Condens. Matter 29 465901 (2017);
         "P. Giannozzi et al., J. Chem. Phys. 152 154105 (2020);
          URL http://www.quantum-espresso.org", 
     in publications or presentations arising from this work. More details at
     http://www.quantum-espresso.org/quote

     Parallel version (MPI & OpenMP), running on      32 processor cores
     Number of MPI processes:                 1
     Threads/MPI process:                    32

     MPI processes distributed on     1 nodes
     31211 MiB available memory on the printing compute node when the environment starts
 
     Reading input from espresso_16177.pwi
Warning: card &CELL ignored
Warning: card / ignored

     Current dimensions of program PWSCF are:
     Max number of different atomic species (ntypx) = 10
     Max number of k-points (npk) =  40000
     Max angular momentum in pseudopotentials (lmaxx) =  4
     file In.pbe-dn-rrkjus_psl.0.2.2.UPF: wavefunction(s)  5S renormalized

     gamma-point specific algorithms are used
     Message from routine setup:
     using ibrav=0 with symmetry is DISCOURAGED, use correct ibrav instead

     Subspace diagonalization in iterative solution of the eigenvalue problem:
     a serial algorithm will be used

 
     G-vector sticks info
     --------------------
     sticks:   dense  smooth     PW     G-vecs:    dense   smooth      PW
     Sum        1615     805    199                42255    15065    1893
 
     Using Slab Decomposition
 


     bravais-lattice index     =            0
     lattice parameter (alat)  =       9.8384  a.u.
     unit-cell volume          =     673.3741 (a.u.)^3
     number of atoms/cell      =            4
     number of atomic types    =            3
     number of electrons       =        62.00
     number of Kohn-Sham states=           37
     kinetic-energy cutoff     =      30.0000  Ry
     charge density cutoff     =     240.0000  Ry
     scf convergence threshold =      1.0E-06
     mixing beta               =       0.7000
     number of iterations used =            8  plain     mixing
     Exchange-correlation= PBE
                           (   1   4   3   4   0   0   0)

     celldm(1)=   9.838385  celldm(2)=   0.000000  celldm(3)=   0.000000
     celldm(4)=   0.000000  celldm(5)=   0.000000  celldm(6)=   0.000000

     crystal axes: (cart. coord. in units of alat)
               a(1) = (   1.000000   0.000000   0.000000 )  
               a(2) = (   0.500000   0.866025   0.000000 )  
               a(3) = (   0.500000   0.288675   0.816497 )  

     reciprocal axes: (cart. coord. in units 2 pi/alat)
               b(1) = (  1.000000 -0.577350 -0.408248 )  
               b(2) = (  0.000000  1.154701 -0.408248 )  
               b(3) = (  0.000000  0.000000  1.224745 )  


     PseudoPot. # 1 for Li read from file:
     /home/pragov/projects/rrg-bengioy-ad/pragov/crystal_structure_design/SSSP/li_pbe_v1.4.uspp.F.UPF
     MD5 check sum: e912e257baa3777c20ea3d68f190483c
     Pseudo is Ultrasoft, Zval =  3.0
     Generated by new atomic code, or converted to UPF format
     Using radial grid of  751 points,  5 beta functions with: 
                l(1) =   0
                l(2) =   0
                l(3) =   0
                l(4) =   1
                l(5) =   1
     Q(r) pseudized with 10 coefficients,  rinner =    1.150   1.150   1.150


     PseudoPot. # 2 for Tm read from file:
     /home/pragov/projects/rrg-bengioy-ad/pragov/crystal_structure_design/SSSP/Tm.GGA-PBE-paw-v1.0.UPF
     MD5 check sum: e502ddec747d736c64e0ed72ddfd7d4c
     Pseudo is Projector augmented-wave + core cor, Zval = 23.0
     Generated using ATOMPAW code
     Shape of augmentation charge: BESSEL
     Using radial grid of 1116 points,  8 beta functions with: 
                l(1) =   0
                l(2) =   0
                l(3) =   1
                l(4) =   1
                l(5) =   2
                l(6) =   2
                l(7) =   3
                l(8) =   3
     Q(r) pseudized with 0 coefficients 


     PseudoPot. # 3 for In read from file:
     /home/pragov/projects/rrg-bengioy-ad/pragov/crystal_structure_design/SSSP/In.pbe-dn-rrkjus_psl.0.2.2.UPF
     MD5 check sum: 25e7c42c3b55b68f4bf926be2e7201a4
     Pseudo is Ultrasoft + core correction, Zval = 13.0
     Generated using "atomic" code by A. Dal Corso  v.5.0.99 svn rev. 10869
     Using radial grid of 1241 points,  6 beta functions with: 
                l(1) =   0
                l(2) =   0
                l(3) =   1
                l(4) =   1
                l(5) =   2
                l(6) =   2
     Q(r) pseudized with 0 coefficients 


     atomic species   valence    mass     pseudopotential
        Li             3.00     6.94000     Li( 1.00)
        Tm            23.00   168.93422     Tm( 1.00)
        In            13.00   114.81800     In( 1.00)

     12 Sym. Ops., with inversion, found


                                    s                        frac. trans.

      isym =  1     identity                                     

 cryst.   s( 1) = (     1          0          0      )
                  (     0          1          0      )
                  (     0          0          1      )

 cart.    s( 1) = (  1.0000000  0.0000000  0.0000000 )
                  (  0.0000000  1.0000000 -0.0000000 )
                  (  0.0000000  0.0000000  1.0000000 )


      isym =  2     180 deg rotation - cart. axis [1,0,0]        

 cryst.   s( 2) = (     1          0          0      )
                  (     1         -1          0      )
                  (     1          0         -1      )

 cart.    s( 2) = (  1.0000000  0.0000000  0.0000000 )
                  (  0.0000000 -1.0000000  0.0000000 )
                  (  0.0000000  0.0000000 -1.0000000 )


      isym =  3     120 deg rotation - cryst. axis [0,0,1]       

 cryst.   s( 3) = (    -1          1          0      )
                  (    -1          0          0      )
                  (    -1          0          1      )

 cart.    s( 3) = ( -0.5000000 -0.8660254  0.0000000 )
                  (  0.8660254 -0.5000000  0.0000000 )
                  (  0.0000000  0.0000000  1.0000000 )


      isym =  4     120 deg rotation - cryst. axis [0,0,-1]      

 cryst.   s( 4) = (     0         -1          0      )
                  (     1         -1          0      )
                  (     0         -1          1      )

 cart.    s( 4) = ( -0.5000000  0.8660254 -0.0000000 )
                  ( -0.8660254 -0.5000000  0.0000000 )
                  (  0.0000000  0.0000000  1.0000000 )


      isym =  5     180 deg rotation - cryst. axis [0,1,0]       

 cryst.   s( 5) = (     0         -1          0      )
                  (    -1          0          0      )
                  (     0          0         -1      )

 cart.    s( 5) = ( -0.5000000 -0.8660254  0.0000000 )
                  ( -0.8660254  0.5000000 -0.0000000 )
                  (  0.0000000  0.0000000 -1.0000000 )


      isym =  6     180 deg rotation - cryst. axis [1,1,0]       

 cryst.   s( 6) = (    -1          1          0      )
                  (     0          1          0      )
                  (     0          1         -1      )

 cart.    s( 6) = ( -0.5000000  0.8660254 -0.0000000 )
                  (  0.8660254  0.5000000 -0.0000000 )
                  (  0.0000000  0.0000000 -1.0000000 )


      isym =  7     inversion                                    

 cryst.   s( 7) = (    -1          0          0      )
                  (     0         -1          0      )
                  (     0          0         -1      )

 cart.    s( 7) = ( -1.0000000  0.0000000  0.0000000 )
                  (  0.0000000 -1.0000000  0.0000000 )
                  (  0.0000000  0.0000000 -1.0000000 )


      isym =  8     inv. 180 deg rotation - cart. axis [1,0,0]   

 cryst.   s( 8) = (    -1          0          0      )
                  (    -1          1          0      )
                  (    -1          0          1      )

 cart.    s( 8) = ( -1.0000000  0.0000000  0.0000000 )
                  (  0.0000000  1.0000000 -0.0000000 )
                  (  0.0000000  0.0000000  1.0000000 )


      isym =  9     inv. 120 deg rotation - cryst. axis [0,0,1]  

 cryst.   s( 9) = (     1         -1          0      )
                  (     1          0          0      )
                  (     1          0         -1      )

 cart.    s( 9) = (  0.5000000  0.8660254 -0.0000000 )
                  ( -0.8660254  0.5000000 -0.0000000 )
                  (  0.0000000  0.0000000 -1.0000000 )


      isym = 10     inv. 120 deg rotation - cryst. axis [0,0,-1] 

 cryst.   s(10) = (     0          1          0      )
                  (    -1          1          0      )
                  (     0          1         -1      )

 cart.    s(10) = (  0.5000000 -0.8660254  0.0000000 )
                  (  0.8660254  0.5000000 -0.0000000 )
                  (  0.0000000  0.0000000 -1.0000000 )


      isym = 11     inv. 180 deg rotation - cryst. axis [0,1,0]  

 cryst.   s(11) = (     0          1          0      )
                  (     1          0          0      )
                  (     0          0          1      )

 cart.    s(11) = (  0.5000000  0.8660254 -0.0000000 )
                  (  0.8660254 -0.5000000  0.0000000 )
                  (  0.0000000  0.0000000  1.0000000 )


      isym = 12     inv. 180 deg rotation - cryst. axis [1,1,0]  

 cryst.   s(12) = (     1         -1          0      )
                  (     0         -1          0      )
                  (     0         -1          1      )

 cart.    s(12) = (  0.5000000 -0.8660254  0.0000000 )
                  ( -0.8660254 -0.5000000  0.0000000 )
                  (  0.0000000  0.0000000  1.0000000 )


   Cartesian axes

     site n.     atom                  positions (alat units)
         1           Li  tau(   1) = (   1.0000000   0.5773503   0.4082483  )
         2           Tm  tau(   2) = (   1.5000000   0.8660254   0.6123724  )
         3           Tm  tau(   3) = (   0.5000000   0.2886751   0.2041241  )
         4           In  tau(   4) = (   0.0000000   0.0000000   0.0000000  )

   Crystallographic axes

     site n.     atom                  positions (cryst. coord.)
         1           Li  tau(   1) = (  0.5000000  0.5000000  0.5000000  )
         2           Tm  tau(   2) = (  0.7500000  0.7500000  0.7500000  )
         3           Tm  tau(   3) = (  0.2500000  0.2500000  0.2500000  )
         4           In  tau(   4) = (  0.0000000  0.0000000  0.0000000  )

     number of k points=     1  Methfessel-Paxton smearing, width (Ry)=  0.0010
                       cart. coord. in units 2pi/alat
        k(    1) = (   0.0000000   0.0000000   0.0000000), wk =   2.0000000

                       cryst. coord.
        k(    1) = (   0.0000000   0.0000000   0.0000000), wk =   2.0000000

     Dense  grid:    21128 G-vectors     FFT dimensions: (  50,  50,  50)

     Smooth grid:     7533 G-vectors     FFT dimensions: (  36,  36,  36)

     Dynamical RAM for                 wfc:       0.53 MB

     Dynamical RAM for     wfc (w. buffer):       0.53 MB

     Dynamical RAM for           str. fact:       0.97 MB

     Dynamical RAM for           local pot:       0.00 MB

     Dynamical RAM for          nlocal pot:       1.30 MB

     Dynamical RAM for                qrad:       8.96 MB

     Dynamical RAM for          rho,v,vnew:       3.83 MB

     Dynamical RAM for               rhoin:       1.28 MB

     Dynamical RAM for            rho*nmix:       5.16 MB

     Dynamical RAM for           G-vectors:       1.27 MB

     Dynamical RAM for          h,s,v(r/c):       0.13 MB

     Dynamical RAM for          <psi|beta>:       0.03 MB

     Dynamical RAM for                 psi:       1.05 MB

     Dynamical RAM for                hpsi:       1.05 MB

     Dynamical RAM for                spsi:       1.05 MB

     Dynamical RAM for      wfcinit/wfcrot:       2.36 MB

     Dynamical RAM for           addusdens:     179.57 MB

     Dynamical RAM for          addusforce:     180.40 MB

     Dynamical RAM for         addusstress:     187.63 MB

     Estimated static dynamical RAM per process >      24.18 MB

     Estimated max dynamical RAM per process >     216.97 MB

     Initial potential from superposition of free atoms

     starting charge      61.5368, renormalised to      62.0000
     Starting wfcs are   78 randomized atomic wfcs
     Checking if some PAW data can be deallocated... 

     total cpu time spent up to now is        8.9 secs

     Self-consistent Calculation

     iteration #  1     ecut=    30.00 Ry     beta= 0.70
     Davidson diagonalization with overlap

---- Real-time Memory Report at c_bands before calling an iterative solver
           441 MiB given to the printing process from OS
             0 MiB allocation reported by mallinfo(arena+hblkhd)
         31120 MiB available memory on the node where the printing process lives
------------------
     ethr =  1.00E-02,  avg # of iterations =  2.0

     total cpu time spent up to now is       11.5 secs

     total energy              =   -2048.55436286 Ry
     estimated scf accuracy    <       2.37035431 Ry

     iteration #  2     ecut=    30.00 Ry     beta= 0.70
     Davidson diagonalization with overlap

---- Real-time Memory Report at c_bands before calling an iterative solver
           465 MiB given to the printing process from OS
             0 MiB allocation reported by mallinfo(arena+hblkhd)
         31081 MiB available memory on the node where the printing process lives
------------------
     ethr =  3.82E-03,  avg # of iterations = 14.0

     total cpu time spent up to now is       14.1 secs

     total energy              =   -2045.89740644 Ry
     estimated scf accuracy    <     203.88628438 Ry

     iteration #  3     ecut=    30.00 Ry     beta= 0.70
     Davidson diagonalization with overlap

---- Real-time Memory Report at c_bands before calling an iterative solver
           480 MiB given to the printing process from OS
             0 MiB allocation reported by mallinfo(arena+hblkhd)
         31069 MiB available memory on the node where the printing process lives
------------------
     ethr =  3.82E-03,  avg # of iterations =  7.0

     total cpu time spent up to now is       17.1 secs

     total energy              =   -2051.92875849 Ry
     estimated scf accuracy    <       9.62042027 Ry

     iteration #  4     ecut=    30.00 Ry     beta= 0.70
     Davidson diagonalization with overlap

---- Real-time Memory Report at c_bands before calling an iterative solver
           480 MiB given to the printing process from OS
             0 MiB allocation reported by mallinfo(arena+hblkhd)
         31072 MiB available memory on the node where the printing process lives
------------------
     ethr =  3.82E-03,  avg # of iterations =  4.0

     total cpu time spent up to now is       19.3 secs

     total energy              =   -2051.42729856 Ry
     estimated scf accuracy    <      29.62137912 Ry

     iteration #  5     ecut=    30.00 Ry     beta= 0.70
     Davidson diagonalization with overlap

---- Real-time Memory Report at c_bands before calling an iterative solver
           480 MiB given to the printing process from OS
             0 MiB allocation reported by mallinfo(arena+hblkhd)
         31066 MiB available memory on the node where the printing process lives
------------------
     ethr =  3.82E-03,  avg # of iterations =  2.0

     total cpu time spent up to now is       20.4 secs

     total energy              =   -2052.02561344 Ry
     estimated scf accuracy    <       0.61129569 Ry

     iteration #  6     ecut=    30.00 Ry     beta= 0.70
     Davidson diagonalization with overlap

---- Real-time Memory Report at c_bands before calling an iterative solver
           480 MiB given to the printing process from OS
             0 MiB allocation reported by mallinfo(arena+hblkhd)
         31067 MiB available memory on the node where the printing process lives
------------------
     ethr =  9.86E-04,  avg # of iterations =  2.0

     total cpu time spent up to now is       21.5 secs

     total energy              =   -2052.04292751 Ry
     estimated scf accuracy    <       1.22800829 Ry

     iteration #  7     ecut=    30.00 Ry     beta= 0.70
     Davidson diagonalization with overlap

---- Real-time Memory Report at c_bands before calling an iterative solver
           481 MiB given to the printing process from OS
             0 MiB allocation reported by mallinfo(arena+hblkhd)
         31069 MiB available memory on the node where the printing process lives
------------------
     ethr =  9.86E-04,  avg # of iterations =  1.0

     total cpu time spent up to now is       22.6 secs

     total energy              =   -2052.05668131 Ry
     estimated scf accuracy    <       1.26866291 Ry

     iteration #  8     ecut=    30.00 Ry     beta= 0.70
     Davidson diagonalization with overlap

---- Real-time Memory Report at c_bands before calling an iterative solver
           481 MiB given to the printing process from OS
             0 MiB allocation reported by mallinfo(arena+hblkhd)
         31068 MiB available memory on the node where the printing process lives
------------------
     ethr =  9.86E-04,  avg # of iterations =  1.0

     total cpu time spent up to now is       23.7 secs

     total energy              =   -2052.06780455 Ry
     estimated scf accuracy    <       1.17580152 Ry

     iteration #  9     ecut=    30.00 Ry     beta= 0.70
     Davidson diagonalization with overlap

---- Real-time Memory Report at c_bands before calling an iterative solver
           481 MiB given to the printing process from OS
             0 MiB allocation reported by mallinfo(arena+hblkhd)
         31067 MiB available memory on the node where the printing process lives
------------------
     ethr =  9.86E-04,  avg # of iterations =  1.0

     total cpu time spent up to now is       24.8 secs

     total energy              =   -2052.07548091 Ry
     estimated scf accuracy    <       0.14121490 Ry

     iteration # 10     ecut=    30.00 Ry     beta= 0.70
     Davidson diagonalization with overlap

---- Real-time Memory Report at c_bands before calling an iterative solver
           482 MiB given to the printing process from OS
             0 MiB allocation reported by mallinfo(arena+hblkhd)
         31068 MiB available memory on the node where the printing process lives
------------------
     ethr =  2.28E-04,  avg # of iterations =  1.0

     total cpu time spent up to now is       25.9 secs

     total energy              =   -2052.08841110 Ry
     estimated scf accuracy    <       0.86555244 Ry

     iteration # 11     ecut=    30.00 Ry     beta= 0.70
     Davidson diagonalization with overlap

---- Real-time Memory Report at c_bands before calling an iterative solver
           482 MiB given to the printing process from OS
             0 MiB allocation reported by mallinfo(arena+hblkhd)
         31069 MiB available memory on the node where the printing process lives
------------------
     ethr =  2.28E-04,  avg # of iterations =  1.0

     total cpu time spent up to now is       26.9 secs

     total energy              =   -2052.06166855 Ry
     estimated scf accuracy    <       1.07867990 Ry

     iteration # 12     ecut=    30.00 Ry     beta= 0.70
     Davidson diagonalization with overlap

---- Real-time Memory Report at c_bands before calling an iterative solver
           482 MiB given to the printing process from OS
             0 MiB allocation reported by mallinfo(arena+hblkhd)
         31070 MiB available memory on the node where the printing process lives
------------------
     ethr =  2.28E-04,  avg # of iterations =  1.0

     total cpu time spent up to now is       28.1 secs

     total energy              =   -2052.05269698 Ry
     estimated scf accuracy    <       1.22671008 Ry

     iteration # 13     ecut=    30.00 Ry     beta= 0.70
     Davidson diagonalization with overlap

---- Real-time Memory Report at c_bands before calling an iterative solver
           482 MiB given to the printing process from OS
             0 MiB allocation reported by mallinfo(arena+hblkhd)
         31097 MiB available memory on the node where the printing process lives
------------------
     ethr =  2.28E-04,  avg # of iterations =  1.0

     total cpu time spent up to now is       29.2 secs

     total energy              =   -2052.02916341 Ry
     estimated scf accuracy    <       0.52996361 Ry

     iteration # 14     ecut=    30.00 Ry     beta= 0.70
     Davidson diagonalization with overlap

---- Real-time Memory Report at c_bands before calling an iterative solver
           482 MiB given to the printing process from OS
             0 MiB allocation reported by mallinfo(arena+hblkhd)
         31096 MiB available memory on the node where the printing process lives
------------------
     ethr =  2.28E-04,  avg # of iterations =  3.0

     total cpu time spent up to now is       30.4 secs

     total energy              =   -2051.63862666 Ry
     estimated scf accuracy    <      13.89638917 Ry

     iteration # 15     ecut=    30.00 Ry     beta= 0.70
     Davidson diagonalization with overlap

---- Real-time Memory Report at c_bands before calling an iterative solver
           482 MiB given to the printing process from OS
             0 MiB allocation reported by mallinfo(arena+hblkhd)
         31096 MiB available memory on the node where the printing process lives
------------------
     ethr =  2.28E-04,  avg # of iterations =  2.0

     total cpu time spent up to now is       31.4 secs

     total energy              =   -2052.06861976 Ry
     estimated scf accuracy    <       0.27738687 Ry

     iteration # 16     ecut=    30.00 Ry     beta= 0.70
     Davidson diagonalization with overlap

---- Real-time Memory Report at c_bands before calling an iterative solver
           482 MiB given to the printing process from OS
             0 MiB allocation reported by mallinfo(arena+hblkhd)
         31870 MiB available memory on the node where the printing process lives
------------------
     ethr =  2.28E-04,  avg # of iterations =  1.0

     total cpu time spent up to now is       32.4 secs

     total energy              =   -2052.07012059 Ry
     estimated scf accuracy    <       0.57001307 Ry

     iteration # 17     ecut=    30.00 Ry     beta= 0.70
     Davidson diagonalization with overlap

---- Real-time Memory Report at c_bands before calling an iterative solver
           482 MiB given to the printing process from OS
             0 MiB allocation reported by mallinfo(arena+hblkhd)
         31854 MiB available memory on the node where the printing process lives
------------------
     ethr =  2.28E-04,  avg # of iterations =  1.0

     total cpu time spent up to now is       33.5 secs

     total energy              =   -2052.07075153 Ry
     estimated scf accuracy    <       0.38785482 Ry

     iteration # 18     ecut=    30.00 Ry     beta= 0.70
     Davidson diagonalization with overlap

---- Real-time Memory Report at c_bands before calling an iterative solver
           482 MiB given to the printing process from OS
             0 MiB allocation reported by mallinfo(arena+hblkhd)
         31141 MiB available memory on the node where the printing process lives
------------------
     ethr =  2.28E-04,  avg # of iterations =  1.0

     total cpu time spent up to now is       34.7 secs

     total energy              =   -2052.07188912 Ry
     estimated scf accuracy    <       0.03996650 Ry

     iteration # 19     ecut=    30.00 Ry     beta= 0.70
     Davidson diagonalization with overlap

---- Real-time Memory Report at c_bands before calling an iterative solver
           482 MiB given to the printing process from OS
             0 MiB allocation reported by mallinfo(arena+hblkhd)
         31132 MiB available memory on the node where the printing process lives
------------------
     ethr =  6.45E-05,  avg # of iterations =  1.0

     total cpu time spent up to now is       36.0 secs

     total energy              =   -2052.06992623 Ry
     estimated scf accuracy    <       0.17728873 Ry

     iteration # 20     ecut=    30.00 Ry     beta= 0.70
     Davidson diagonalization with overlap

---- Real-time Memory Report at c_bands before calling an iterative solver
           482 MiB given to the printing process from OS
             0 MiB allocation reported by mallinfo(arena+hblkhd)
         31073 MiB available memory on the node where the printing process lives
------------------
     ethr =  6.45E-05,  avg # of iterations =  1.0

     total cpu time spent up to now is       37.1 secs

     total energy              =   -2052.07034393 Ry
     estimated scf accuracy    <       0.03726335 Ry

     iteration # 21     ecut=    30.00 Ry     beta= 0.70
     Davidson diagonalization with overlap

---- Real-time Memory Report at c_bands before calling an iterative solver
           482 MiB given to the printing process from OS
             0 MiB allocation reported by mallinfo(arena+hblkhd)
         31072 MiB available memory on the node where the printing process lives
------------------
     ethr =  6.01E-05,  avg # of iterations =  1.0

     total cpu time spent up to now is       38.2 secs

     total energy              =   -2052.06537926 Ry
     estimated scf accuracy    <       0.02620923 Ry

     iteration # 22     ecut=    30.00 Ry     beta= 0.70
     Davidson diagonalization with overlap

---- Real-time Memory Report at c_bands before calling an iterative solver
           482 MiB given to the printing process from OS
             0 MiB allocation reported by mallinfo(arena+hblkhd)
         31072 MiB available memory on the node where the printing process lives
------------------
     ethr =  4.23E-05,  avg # of iterations =  1.0

     total cpu time spent up to now is       39.3 secs

     total energy              =   -2052.06627232 Ry
     estimated scf accuracy    <       1.07182074 Ry

     iteration # 23     ecut=    30.00 Ry     beta= 0.70
     Davidson diagonalization with overlap

---- Real-time Memory Report at c_bands before calling an iterative solver
           482 MiB given to the printing process from OS
             0 MiB allocation reported by mallinfo(arena+hblkhd)
         31072 MiB available memory on the node where the printing process lives
------------------
     ethr =  4.23E-05,  avg # of iterations =  1.0

     total cpu time spent up to now is       40.4 secs

     total energy              =   -2052.04378647 Ry
     estimated scf accuracy    <       0.93447665 Ry

     iteration # 24     ecut=    30.00 Ry     beta= 0.70
     Davidson diagonalization with overlap

---- Real-time Memory Report at c_bands before calling an iterative solver
           482 MiB given to the printing process from OS
             0 MiB allocation reported by mallinfo(arena+hblkhd)
         31073 MiB available memory on the node where the printing process lives
------------------
     ethr =  4.23E-05,  avg # of iterations =  5.0

     total cpu time spent up to now is       41.5 secs

     total energy              =   -2051.71790675 Ry
     estimated scf accuracy    <       5.56931891 Ry

     iteration # 25     ecut=    30.00 Ry     beta= 0.70
     Davidson diagonalization with overlap

---- Real-time Memory Report at c_bands before calling an iterative solver
           482 MiB given to the printing process from OS
             0 MiB allocation reported by mallinfo(arena+hblkhd)
         31074 MiB available memory on the node where the printing process lives
------------------
     ethr =  4.23E-05,  avg # of iterations =  4.0

     total cpu time spent up to now is       42.7 secs

     total energy              =   -2052.07016773 Ry
     estimated scf accuracy    <       0.03301133 Ry

     iteration # 26     ecut=    30.00 Ry     beta= 0.70
     Davidson diagonalization with overlap

---- Real-time Memory Report at c_bands before calling an iterative solver
           482 MiB given to the printing process from OS
             0 MiB allocation reported by mallinfo(arena+hblkhd)
         31075 MiB available memory on the node where the printing process lives
------------------
     ethr =  4.23E-05,  avg # of iterations =  1.0

     total cpu time spent up to now is       43.8 secs

     total energy              =   -2052.06932204 Ry
     estimated scf accuracy    <       0.05718979 Ry

     iteration # 27     ecut=    30.00 Ry     beta= 0.70
     Davidson diagonalization with overlap

---- Real-time Memory Report at c_bands before calling an iterative solver
           482 MiB given to the printing process from OS
             0 MiB allocation reported by mallinfo(arena+hblkhd)
         32147 MiB available memory on the node where the printing process lives
------------------
     ethr =  4.23E-05,  avg # of iterations =  1.0

     total cpu time spent up to now is       44.9 secs

     total energy              =   -2052.06935630 Ry
     estimated scf accuracy    <       0.02117466 Ry

     iteration # 28     ecut=    30.00 Ry     beta= 0.70
     Davidson diagonalization with overlap

---- Real-time Memory Report at c_bands before calling an iterative solver
           482 MiB given to the printing process from OS
             0 MiB allocation reported by mallinfo(arena+hblkhd)
         32027 MiB available memory on the node where the printing process lives
------------------
     ethr =  3.42E-05,  avg # of iterations =  1.0

     total cpu time spent up to now is       46.0 secs

     total energy              =   -2052.06691720 Ry
     estimated scf accuracy    <       0.05737549 Ry

     iteration # 29     ecut=    30.00 Ry     beta= 0.70
     Davidson diagonalization with overlap

---- Real-time Memory Report at c_bands before calling an iterative solver
           482 MiB given to the printing process from OS
             0 MiB allocation reported by mallinfo(arena+hblkhd)
         31774 MiB available memory on the node where the printing process lives
------------------
     ethr =  3.42E-05,  avg # of iterations =  1.0

     total cpu time spent up to now is       47.1 secs

     total energy              =   -2052.06640115 Ry
     estimated scf accuracy    <       0.56250031 Ry

     iteration # 30     ecut=    30.00 Ry     beta= 0.70
     Davidson diagonalization with overlap

---- Real-time Memory Report at c_bands before calling an iterative solver
           482 MiB given to the printing process from OS
             0 MiB allocation reported by mallinfo(arena+hblkhd)
         31578 MiB available memory on the node where the printing process lives
------------------
     ethr =  3.42E-05,  avg # of iterations =  1.0

     total cpu time spent up to now is       48.1 secs

     total energy              =   -2052.06751755 Ry
     estimated scf accuracy    <       0.03923663 Ry

     iteration # 31     ecut=    30.00 Ry     beta= 0.70
     Davidson diagonalization with overlap

---- Real-time Memory Report at c_bands before calling an iterative solver
           482 MiB given to the printing process from OS
             0 MiB allocation reported by mallinfo(arena+hblkhd)
         31525 MiB available memory on the node where the printing process lives
------------------
     ethr =  3.42E-05,  avg # of iterations =  1.0

     total cpu time spent up to now is       49.3 secs

     total energy              =   -2052.06600396 Ry
     estimated scf accuracy    <       0.64890265 Ry

     iteration # 32     ecut=    30.00 Ry     beta= 0.70
     Davidson diagonalization with overlap

---- Real-time Memory Report at c_bands before calling an iterative solver
           482 MiB given to the printing process from OS
             0 MiB allocation reported by mallinfo(arena+hblkhd)
         31509 MiB available memory on the node where the printing process lives
------------------
     ethr =  3.42E-05,  avg # of iterations =  1.0

     total cpu time spent up to now is       50.4 secs

     total energy              =   -2052.06429501 Ry
     estimated scf accuracy    <       0.71494947 Ry

     iteration # 33     ecut=    30.00 Ry     beta= 0.70
     Davidson diagonalization with overlap

---- Real-time Memory Report at c_bands before calling an iterative solver
           482 MiB given to the printing process from OS
             0 MiB allocation reported by mallinfo(arena+hblkhd)
         31490 MiB available memory on the node where the printing process lives
------------------
     ethr =  3.42E-05,  avg # of iterations =  1.0

     total cpu time spent up to now is       51.5 secs

     total energy              =   -2052.05515184 Ry
     estimated scf accuracy    <       0.82404113 Ry

     iteration # 34     ecut=    30.00 Ry     beta= 0.70
     Davidson diagonalization with overlap

---- Real-time Memory Report at c_bands before calling an iterative solver
           482 MiB given to the printing process from OS
             0 MiB allocation reported by mallinfo(arena+hblkhd)
         31476 MiB available memory on the node where the printing process lives
------------------
     ethr =  3.42E-05,  avg # of iterations =  6.0

     total cpu time spent up to now is       52.7 secs

     total energy              =   -2051.71263316 Ry
     estimated scf accuracy    <       6.25198092 Ry

     iteration # 35     ecut=    30.00 Ry     beta= 0.70
     Davidson diagonalization with overlap

---- Real-time Memory Report at c_bands before calling an iterative solver
           482 MiB given to the printing process from OS
             0 MiB allocation reported by mallinfo(arena+hblkhd)
         31463 MiB available memory on the node where the printing process lives
------------------
     ethr =  3.42E-05,  avg # of iterations =  5.0

     total cpu time spent up to now is       53.9 secs

     total energy              =   -2052.06624393 Ry
     estimated scf accuracy    <       0.55331058 Ry

     iteration # 36     ecut=    30.00 Ry     beta= 0.70
     Davidson diagonalization with overlap

---- Real-time Memory Report at c_bands before calling an iterative solver
           482 MiB given to the printing process from OS
             0 MiB allocation reported by mallinfo(arena+hblkhd)
         31448 MiB available memory on the node where the printing process lives
------------------
     ethr =  3.42E-05,  avg # of iterations =  1.0

     total cpu time spent up to now is       55.0 secs

     total energy              =   -2052.06818771 Ry
     estimated scf accuracy    <       0.07792831 Ry

     iteration # 37     ecut=    30.00 Ry     beta= 0.70
     Davidson diagonalization with overlap

---- Real-time Memory Report at c_bands before calling an iterative solver
           482 MiB given to the printing process from OS
             0 MiB allocation reported by mallinfo(arena+hblkhd)
         31440 MiB available memory on the node where the printing process lives
------------------
     ethr =  3.42E-05,  avg # of iterations =  1.0

     total cpu time spent up to now is       56.2 secs

     total energy              =   -2052.06806786 Ry
     estimated scf accuracy    <       0.04631959 Ry

     iteration # 38     ecut=    30.00 Ry     beta= 0.70
     Davidson diagonalization with overlap

---- Real-time Memory Report at c_bands before calling an iterative solver
           482 MiB given to the printing process from OS
             0 MiB allocation reported by mallinfo(arena+hblkhd)
         31428 MiB available memory on the node where the printing process lives
------------------
     ethr =  3.42E-05,  avg # of iterations =  1.0

     total cpu time spent up to now is       57.4 secs

     total energy              =   -2052.06774554 Ry
     estimated scf accuracy    <       0.05631475 Ry

     iteration # 39     ecut=    30.00 Ry     beta= 0.70
     Davidson diagonalization with overlap

---- Real-time Memory Report at c_bands before calling an iterative solver
           482 MiB given to the printing process from OS
             0 MiB allocation reported by mallinfo(arena+hblkhd)
         31415 MiB available memory on the node where the printing process lives
------------------
     ethr =  3.42E-05,  avg # of iterations =  1.0

     total cpu time spent up to now is       58.6 secs

     total energy              =   -2052.05827887 Ry
     estimated scf accuracy    <       0.01754486 Ry

     iteration # 40     ecut=    30.00 Ry     beta= 0.70
     Davidson diagonalization with overlap

---- Real-time Memory Report at c_bands before calling an iterative solver
           482 MiB given to the printing process from OS
             0 MiB allocation reported by mallinfo(arena+hblkhd)
         31408 MiB available memory on the node where the printing process lives
------------------
     ethr =  2.83E-05,  avg # of iterations =  1.0

     total cpu time spent up to now is       59.7 secs

     total energy              =   -2052.07173574 Ry
     estimated scf accuracy    <       0.75146606 Ry

     iteration # 41     ecut=    30.00 Ry     beta= 0.70
     Davidson diagonalization with overlap

---- Real-time Memory Report at c_bands before calling an iterative solver
           482 MiB given to the printing process from OS
             0 MiB allocation reported by mallinfo(arena+hblkhd)
         31401 MiB available memory on the node where the printing process lives
------------------
     ethr =  2.83E-05,  avg # of iterations =  1.0

     total cpu time spent up to now is       60.8 secs

     total energy              =   -2052.06991247 Ry
     estimated scf accuracy    <       0.98593535 Ry

     iteration # 42     ecut=    30.00 Ry     beta= 0.70
     Davidson diagonalization with overlap

---- Real-time Memory Report at c_bands before calling an iterative solver
           482 MiB given to the printing process from OS
             0 MiB allocation reported by mallinfo(arena+hblkhd)
         31394 MiB available memory on the node where the printing process lives
------------------
     ethr =  2.83E-05,  avg # of iterations =  1.0

     total cpu time spent up to now is       61.9 secs

     total energy              =   -2052.06898859 Ry
     estimated scf accuracy    <       0.43978545 Ry

     iteration # 43     ecut=    30.00 Ry     beta= 0.70
     Davidson diagonalization with overlap

---- Real-time Memory Report at c_bands before calling an iterative solver
           482 MiB given to the printing process from OS
             0 MiB allocation reported by mallinfo(arena+hblkhd)
         31389 MiB available memory on the node where the printing process lives
------------------
     ethr =  2.83E-05,  avg # of iterations =  1.0

     total cpu time spent up to now is       63.0 secs

     total energy              =   -2052.06176529 Ry
     estimated scf accuracy    <       0.02413101 Ry

     iteration # 44     ecut=    30.00 Ry     beta= 0.70
     Davidson diagonalization with overlap

---- Real-time Memory Report at c_bands before calling an iterative solver
           482 MiB given to the printing process from OS
             0 MiB allocation reported by mallinfo(arena+hblkhd)
         31384 MiB available memory on the node where the printing process lives
------------------
     ethr =  2.83E-05,  avg # of iterations =  5.0

     total cpu time spent up to now is       64.9 secs

     total energy              =   -2051.77227532 Ry
     estimated scf accuracy    <       5.74328766 Ry

     iteration # 45     ecut=    30.00 Ry     beta= 0.70
     Davidson diagonalization with overlap

---- Real-time Memory Report at c_bands before calling an iterative solver
           482 MiB given to the printing process from OS
             0 MiB allocation reported by mallinfo(arena+hblkhd)
         31372 MiB available memory on the node where the printing process lives
------------------
     ethr =  2.83E-05,  avg # of iterations =  4.0

     total cpu time spent up to now is       66.1 secs

     total energy              =   -2052.06861028 Ry
     estimated scf accuracy    <       0.03066865 Ry

     iteration # 46     ecut=    30.00 Ry     beta= 0.70
     Davidson diagonalization with overlap

---- Real-time Memory Report at c_bands before calling an iterative solver
           482 MiB given to the printing process from OS
             0 MiB allocation reported by mallinfo(arena+hblkhd)
         31368 MiB available memory on the node where the printing process lives
------------------
     ethr =  2.83E-05,  avg # of iterations =  1.0

     total cpu time spent up to now is       67.3 secs

     total energy              =   -2052.06822139 Ry
     estimated scf accuracy    <       0.02398037 Ry

     iteration # 47     ecut=    30.00 Ry     beta= 0.70
     Davidson diagonalization with overlap

---- Real-time Memory Report at c_bands before calling an iterative solver
           482 MiB given to the printing process from OS
             0 MiB allocation reported by mallinfo(arena+hblkhd)
         31362 MiB available memory on the node where the printing process lives
------------------
     ethr =  2.83E-05,  avg # of iterations =  1.0

     total cpu time spent up to now is       68.4 secs

     total energy              =   -2052.06776842 Ry
     estimated scf accuracy    <       0.01798168 Ry

     iteration # 48     ecut=    30.00 Ry     beta= 0.70
     Davidson diagonalization with overlap

---- Real-time Memory Report at c_bands before calling an iterative solver
           482 MiB given to the printing process from OS
             0 MiB allocation reported by mallinfo(arena+hblkhd)
         31358 MiB available memory on the node where the printing process lives
------------------
     ethr =  2.83E-05,  avg # of iterations =  1.0

     total cpu time spent up to now is       69.6 secs

     total energy              =   -2052.04775398 Ry
     estimated scf accuracy    <       0.08816085 Ry

     iteration # 49     ecut=    30.00 Ry     beta= 0.70
     Davidson diagonalization with overlap

---- Real-time Memory Report at c_bands before calling an iterative solver
           482 MiB given to the printing process from OS
             0 MiB allocation reported by mallinfo(arena+hblkhd)
         31352 MiB available memory on the node where the printing process lives
------------------
     ethr =  2.83E-05,  avg # of iterations =  2.0

     total cpu time spent up to now is       70.9 secs

     total energy              =   -2052.08300875 Ry
     estimated scf accuracy    <       0.05903563 Ry

     iteration # 50     ecut=    30.00 Ry     beta= 0.70
     Davidson diagonalization with overlap

---- Real-time Memory Report at c_bands before calling an iterative solver
           482 MiB given to the printing process from OS
             0 MiB allocation reported by mallinfo(arena+hblkhd)
         31347 MiB available memory on the node where the printing process lives
------------------
     ethr =  2.83E-05,  avg # of iterations =  2.0

     total cpu time spent up to now is       72.1 secs

     total energy              =   -2052.08156035 Ry
     estimated scf accuracy    <       0.17532406 Ry

     iteration # 51     ecut=    30.00 Ry     beta= 0.70
     Davidson diagonalization with overlap

---- Real-time Memory Report at c_bands before calling an iterative solver
           482 MiB given to the printing process from OS
             0 MiB allocation reported by mallinfo(arena+hblkhd)
         31339 MiB available memory on the node where the printing process lives
------------------
     ethr =  2.83E-05,  avg # of iterations =  1.0

     total cpu time spent up to now is       73.4 secs

     total energy              =   -2052.07355340 Ry
     estimated scf accuracy    <       0.03908421 Ry

     iteration # 52     ecut=    30.00 Ry     beta= 0.70
     Davidson diagonalization with overlap

---- Real-time Memory Report at c_bands before calling an iterative solver
           482 MiB given to the printing process from OS
             0 MiB allocation reported by mallinfo(arena+hblkhd)
         31333 MiB available memory on the node where the printing process lives
------------------
     ethr =  2.83E-05,  avg # of iterations =  1.0

     total cpu time spent up to now is       74.5 secs

     total energy              =   -2052.05662172 Ry
     estimated scf accuracy    <       0.03120472 Ry

     iteration # 53     ecut=    30.00 Ry     beta= 0.70
     Davidson diagonalization with overlap

---- Real-time Memory Report at c_bands before calling an iterative solver
           482 MiB given to the printing process from OS
             0 MiB allocation reported by mallinfo(arena+hblkhd)
         31327 MiB available memory on the node where the printing process lives
------------------
     ethr =  2.83E-05,  avg # of iterations =  1.0

     total cpu time spent up to now is       75.7 secs

     total energy              =   -2052.04003638 Ry
     estimated scf accuracy    <       0.01922664 Ry

     iteration # 54     ecut=    30.00 Ry     beta= 0.70
     Davidson diagonalization with overlap

---- Real-time Memory Report at c_bands before calling an iterative solver
           482 MiB given to the printing process from OS
             0 MiB allocation reported by mallinfo(arena+hblkhd)
         31318 MiB available memory on the node where the printing process lives
------------------
     ethr =  2.83E-05,  avg # of iterations =  4.0

     total cpu time spent up to now is       76.9 secs

     total energy              =   -2051.99420450 Ry
     estimated scf accuracy    <       0.55252455 Ry

     iteration # 55     ecut=    30.00 Ry     beta= 0.70
     Davidson diagonalization with overlap

---- Real-time Memory Report at c_bands before calling an iterative solver
           482 MiB given to the printing process from OS
             0 MiB allocation reported by mallinfo(arena+hblkhd)
         31312 MiB available memory on the node where the printing process lives
------------------
     ethr =  2.83E-05,  avg # of iterations =  3.0

     total cpu time spent up to now is       78.1 secs

     total energy              =   -2052.06644371 Ry
     estimated scf accuracy    <       0.41013725 Ry

     iteration # 56     ecut=    30.00 Ry     beta= 0.70
     Davidson diagonalization with overlap

---- Real-time Memory Report at c_bands before calling an iterative solver
           482 MiB given to the printing process from OS
             0 MiB allocation reported by mallinfo(arena+hblkhd)
         31332 MiB available memory on the node where the printing process lives
------------------
     ethr =  2.83E-05,  avg # of iterations =  1.0

     total cpu time spent up to now is       79.3 secs

     total energy              =   -2052.07068852 Ry
     estimated scf accuracy    <       0.00488768 Ry

     iteration # 57     ecut=    30.00 Ry     beta= 0.70
     Davidson diagonalization with overlap

---- Real-time Memory Report at c_bands before calling an iterative solver
           482 MiB given to the printing process from OS
             0 MiB allocation reported by mallinfo(arena+hblkhd)
         31320 MiB available memory on the node where the printing process lives
------------------
     ethr =  7.88E-06,  avg # of iterations =  1.0

     total cpu time spent up to now is       80.4 secs

     total energy              =   -2052.06951247 Ry
     estimated scf accuracy    <       0.22903551 Ry

     iteration # 58     ecut=    30.00 Ry     beta= 0.70
     Davidson diagonalization with overlap

---- Real-time Memory Report at c_bands before calling an iterative solver
           482 MiB given to the printing process from OS
             0 MiB allocation reported by mallinfo(arena+hblkhd)
         31312 MiB available memory on the node where the printing process lives
------------------
     ethr =  7.88E-06,  avg # of iterations =  1.0

     total cpu time spent up to now is       81.5 secs

     total energy              =   -2052.06461256 Ry
     estimated scf accuracy    <       0.00860018 Ry

     iteration # 59     ecut=    30.00 Ry     beta= 0.70
     Davidson diagonalization with overlap

---- Real-time Memory Report at c_bands before calling an iterative solver
           482 MiB given to the printing process from OS
             0 MiB allocation reported by mallinfo(arena+hblkhd)
         32087 MiB available memory on the node where the printing process lives
------------------
     ethr =  7.88E-06,  avg # of iterations =  1.0

     total cpu time spent up to now is       82.6 secs

     total energy              =   -2052.06103963 Ry
     estimated scf accuracy    <       0.02765205 Ry

     iteration # 60     ecut=    30.00 Ry     beta= 0.70
     Davidson diagonalization with overlap

---- Real-time Memory Report at c_bands before calling an iterative solver
           482 MiB given to the printing process from OS
             0 MiB allocation reported by mallinfo(arena+hblkhd)
         32059 MiB available memory on the node where the printing process lives
------------------
     ethr =  7.88E-06,  avg # of iterations =  1.0

     total cpu time spent up to now is       83.8 secs

     total energy              =   -2052.06685835 Ry
     estimated scf accuracy    <       0.00922932 Ry

     iteration # 61     ecut=    30.00 Ry     beta= 0.70
     Davidson diagonalization with overlap

---- Real-time Memory Report at c_bands before calling an iterative solver
           482 MiB given to the printing process from OS
             0 MiB allocation reported by mallinfo(arena+hblkhd)
         31338 MiB available memory on the node where the printing process lives
------------------
     ethr =  7.88E-06,  avg # of iterations =  1.0

     total cpu time spent up to now is       84.9 secs

     total energy              =   -2052.06690650 Ry
     estimated scf accuracy    <       0.07307884 Ry

     iteration # 62     ecut=    30.00 Ry     beta= 0.70
     Davidson diagonalization with overlap

---- Real-time Memory Report at c_bands before calling an iterative solver
           482 MiB given to the printing process from OS
             0 MiB allocation reported by mallinfo(arena+hblkhd)
         31331 MiB available memory on the node where the printing process lives
------------------
     ethr =  7.88E-06,  avg # of iterations =  1.0

     total cpu time spent up to now is       86.0 secs

     total energy              =   -2052.06717183 Ry
     estimated scf accuracy    <       0.00273795 Ry

     iteration # 63     ecut=    30.00 Ry     beta= 0.70
     Davidson diagonalization with overlap

---- Real-time Memory Report at c_bands before calling an iterative solver
           482 MiB given to the printing process from OS
             0 MiB allocation reported by mallinfo(arena+hblkhd)
         31268 MiB available memory on the node where the printing process lives
------------------
     ethr =  4.42E-06,  avg # of iterations =  1.0
     Minimization algorithm failed to find Fermi energy: reverting to bisection
     Possible cause: smearing is larger than the electronic band-gap.

     total cpu time spent up to now is       87.2 secs

     total energy              =   -2052.06709214 Ry
     estimated scf accuracy    <       0.00375625 Ry

     iteration # 64     ecut=    30.00 Ry     beta= 0.70
     Davidson diagonalization with overlap

---- Real-time Memory Report at c_bands before calling an iterative solver
           482 MiB given to the printing process from OS
             0 MiB allocation reported by mallinfo(arena+hblkhd)
         31261 MiB available memory on the node where the printing process lives
------------------
     ethr =  4.42E-06,  avg # of iterations =  4.0

     total cpu time spent up to now is       88.4 secs

     total energy              =   -2052.06323905 Ry
     estimated scf accuracy    <       0.04730695 Ry

     iteration # 65     ecut=    30.00 Ry     beta= 0.70
     Davidson diagonalization with overlap

---- Real-time Memory Report at c_bands before calling an iterative solver
           482 MiB given to the printing process from OS
             0 MiB allocation reported by mallinfo(arena+hblkhd)
         31257 MiB available memory on the node where the printing process lives
------------------
     ethr =  4.42E-06,  avg # of iterations =  2.0

     total cpu time spent up to now is       89.6 secs

     total energy              =   -2052.06452807 Ry
     estimated scf accuracy    <       0.64610985 Ry

     iteration # 66     ecut=    30.00 Ry     beta= 0.70
     Davidson diagonalization with overlap

---- Real-time Memory Report at c_bands before calling an iterative solver
           482 MiB given to the printing process from OS
             0 MiB allocation reported by mallinfo(arena+hblkhd)
         31254 MiB available memory on the node where the printing process lives
------------------
     ethr =  4.42E-06,  avg # of iterations =  1.0

     total cpu time spent up to now is       90.7 secs

     total energy              =   -2052.06716187 Ry
     estimated scf accuracy    <       0.02640271 Ry

     iteration # 67     ecut=    30.00 Ry     beta= 0.70
     Davidson diagonalization with overlap

---- Real-time Memory Report at c_bands before calling an iterative solver
           482 MiB given to the printing process from OS
             0 MiB allocation reported by mallinfo(arena+hblkhd)
         31253 MiB available memory on the node where the printing process lives
------------------
     ethr =  4.42E-06,  avg # of iterations =  2.0

     total cpu time spent up to now is       91.8 secs

     total energy              =   -2052.06715272 Ry
     estimated scf accuracy    <       0.04180221 Ry

     iteration # 68     ecut=    30.00 Ry     beta= 0.70
     Davidson diagonalization with overlap

---- Real-time Memory Report at c_bands before calling an iterative solver
           482 MiB given to the printing process from OS
             0 MiB allocation reported by mallinfo(arena+hblkhd)
         31252 MiB available memory on the node where the printing process lives
------------------
     ethr =  4.42E-06,  avg # of iterations =  1.0

     total cpu time spent up to now is       93.0 secs

     total energy              =   -2052.06557033 Ry
     estimated scf accuracy    <       0.00722494 Ry

     iteration # 69     ecut=    30.00 Ry     beta= 0.70
     Davidson diagonalization with overlap

---- Real-time Memory Report at c_bands before calling an iterative solver
           482 MiB given to the printing process from OS
             0 MiB allocation reported by mallinfo(arena+hblkhd)
         31251 MiB available memory on the node where the printing process lives
------------------
     ethr =  4.42E-06,  avg # of iterations =  1.0

     total cpu time spent up to now is       94.1 secs

     total energy              =   -2052.06572223 Ry
     estimated scf accuracy    <       0.02496503 Ry

     iteration # 70     ecut=    30.00 Ry     beta= 0.70
     Davidson diagonalization with overlap

---- Real-time Memory Report at c_bands before calling an iterative solver
           482 MiB given to the printing process from OS
             0 MiB allocation reported by mallinfo(arena+hblkhd)
         31248 MiB available memory on the node where the printing process lives
------------------
     ethr =  4.42E-06,  avg # of iterations =  1.0

     total cpu time spent up to now is       95.2 secs

     total energy              =   -2052.06756663 Ry
     estimated scf accuracy    <       0.00855965 Ry

     iteration # 71     ecut=    30.00 Ry     beta= 0.70
     Davidson diagonalization with overlap

---- Real-time Memory Report at c_bands before calling an iterative solver
           482 MiB given to the printing process from OS
             0 MiB allocation reported by mallinfo(arena+hblkhd)
         31248 MiB available memory on the node where the printing process lives
------------------
     ethr =  4.42E-06,  avg # of iterations =  1.0

     total cpu time spent up to now is       96.4 secs

     total energy              =   -2052.06354809 Ry
     estimated scf accuracy    <       0.82152356 Ry

     iteration # 72     ecut=    30.00 Ry     beta= 0.70
     Davidson diagonalization with overlap

---- Real-time Memory Report at c_bands before calling an iterative solver
           482 MiB given to the printing process from OS
             0 MiB allocation reported by mallinfo(arena+hblkhd)
         31247 MiB available memory on the node where the printing process lives
------------------
     ethr =  4.42E-06,  avg # of iterations =  1.0

     total cpu time spent up to now is       97.5 secs

     total energy              =   -2052.06704811 Ry
     estimated scf accuracy    <       0.00359523 Ry

     iteration # 73     ecut=    30.00 Ry     beta= 0.70
     Davidson diagonalization with overlap

---- Real-time Memory Report at c_bands before calling an iterative solver
           482 MiB given to the printing process from OS
             0 MiB allocation reported by mallinfo(arena+hblkhd)
         31247 MiB available memory on the node where the printing process lives
------------------
     ethr =  4.42E-06,  avg # of iterations =  1.0

     total cpu time spent up to now is       98.6 secs

     total energy              =   -2052.06702493 Ry
     estimated scf accuracy    <       0.00509939 Ry

     iteration # 74     ecut=    30.00 Ry     beta= 0.70
     Davidson diagonalization with overlap

---- Real-time Memory Report at c_bands before calling an iterative solver
           482 MiB given to the printing process from OS
             0 MiB allocation reported by mallinfo(arena+hblkhd)
         31246 MiB available memory on the node where the printing process lives
------------------
     ethr =  4.42E-06,  avg # of iterations =  1.0

     total cpu time spent up to now is       99.7 secs

     total energy              =   -2052.06695924 Ry
     estimated scf accuracy    <       0.00364735 Ry

     iteration # 75     ecut=    30.00 Ry     beta= 0.70
     Davidson diagonalization with overlap

---- Real-time Memory Report at c_bands before calling an iterative solver
           482 MiB given to the printing process from OS
             0 MiB allocation reported by mallinfo(arena+hblkhd)
         31245 MiB available memory on the node where the printing process lives
------------------
     ethr =  4.42E-06,  avg # of iterations =  1.0

     total cpu time spent up to now is      101.0 secs

     total energy              =   -2052.06692148 Ry
     estimated scf accuracy    <       0.02132902 Ry

     iteration # 76     ecut=    30.00 Ry     beta= 0.70
     Davidson diagonalization with overlap

---- Real-time Memory Report at c_bands before calling an iterative solver
           482 MiB given to the printing process from OS
             0 MiB allocation reported by mallinfo(arena+hblkhd)
         31234 MiB available memory on the node where the printing process lives
------------------
     ethr =  4.42E-06,  avg # of iterations =  1.0

     total cpu time spent up to now is      103.1 secs

     total energy              =   -2052.06704844 Ry
     estimated scf accuracy    <       0.00024784 Ry

     iteration # 77     ecut=    30.00 Ry     beta= 0.70
     Davidson diagonalization with overlap

---- Real-time Memory Report at c_bands before calling an iterative solver
           482 MiB given to the printing process from OS
             0 MiB allocation reported by mallinfo(arena+hblkhd)
         31225 MiB available memory on the node where the printing process lives
------------------
     ethr =  4.00E-07,  avg # of iterations =  1.0

     total cpu time spent up to now is      104.3 secs

     total energy              =   -2052.06694749 Ry
     estimated scf accuracy    <       0.00081603 Ry

     iteration # 78     ecut=    30.00 Ry     beta= 0.70
     Davidson diagonalization with overlap

---- Real-time Memory Report at c_bands before calling an iterative solver
           482 MiB given to the printing process from OS
             0 MiB allocation reported by mallinfo(arena+hblkhd)
         31228 MiB available memory on the node where the printing process lives
------------------
     ethr =  4.00E-07,  avg # of iterations =  1.0

     total cpu time spent up to now is      105.4 secs

     total energy              =   -2052.06689868 Ry
     estimated scf accuracy    <       0.00079135 Ry

     iteration # 79     ecut=    30.00 Ry     beta= 0.70
     Davidson diagonalization with overlap

---- Real-time Memory Report at c_bands before calling an iterative solver
           482 MiB given to the printing process from OS
             0 MiB allocation reported by mallinfo(arena+hblkhd)
         31228 MiB available memory on the node where the printing process lives
------------------
     ethr =  4.00E-07,  avg # of iterations =  1.0

     total cpu time spent up to now is      106.5 secs

     total energy              =   -2052.06648945 Ry
     estimated scf accuracy    <       0.00583483 Ry

     iteration # 80     ecut=    30.00 Ry     beta= 0.70
     Davidson diagonalization with overlap

---- Real-time Memory Report at c_bands before calling an iterative solver
           482 MiB given to the printing process from OS
             0 MiB allocation reported by mallinfo(arena+hblkhd)
         31227 MiB available memory on the node where the printing process lives
------------------
     ethr =  4.00E-07,  avg # of iterations =  1.0

     total cpu time spent up to now is      107.6 secs

     total energy              =   -2052.06716871 Ry
     estimated scf accuracy    <       0.00150352 Ry

     iteration # 81     ecut=    30.00 Ry     beta= 0.70
     Davidson diagonalization with overlap

---- Real-time Memory Report at c_bands before calling an iterative solver
           482 MiB given to the printing process from OS
             0 MiB allocation reported by mallinfo(arena+hblkhd)
         31227 MiB available memory on the node where the printing process lives
------------------
     ethr =  4.00E-07,  avg # of iterations =  2.0

     total cpu time spent up to now is      108.8 secs

     total energy              =   -2052.06471361 Ry
     estimated scf accuracy    <       0.71588571 Ry

     iteration # 82     ecut=    30.00 Ry     beta= 0.70
     Davidson diagonalization with overlap

---- Real-time Memory Report at c_bands before calling an iterative solver
           482 MiB given to the printing process from OS
             0 MiB allocation reported by mallinfo(arena+hblkhd)
         31226 MiB available memory on the node where the printing process lives
------------------
     ethr =  4.00E-07,  avg # of iterations =  2.0

     total cpu time spent up to now is      110.0 secs

     total energy              =   -2052.06692058 Ry
     estimated scf accuracy    <       0.00736805 Ry

     iteration # 83     ecut=    30.00 Ry     beta= 0.70
     Davidson diagonalization with overlap

---- Real-time Memory Report at c_bands before calling an iterative solver
           482 MiB given to the printing process from OS
             0 MiB allocation reported by mallinfo(arena+hblkhd)
         31226 MiB available memory on the node where the printing process lives
------------------
     ethr =  4.00E-07,  avg # of iterations =  1.0

     total cpu time spent up to now is      111.1 secs

     total energy              =   -2052.06694485 Ry
     estimated scf accuracy    <       0.00312673 Ry

     iteration # 84     ecut=    30.00 Ry     beta= 0.70
     Davidson diagonalization with overlap

---- Real-time Memory Report at c_bands before calling an iterative solver
           482 MiB given to the printing process from OS
             0 MiB allocation reported by mallinfo(arena+hblkhd)
         31224 MiB available memory on the node where the printing process lives
------------------
     ethr =  4.00E-07,  avg # of iterations =  1.0

     total cpu time spent up to now is      112.2 secs

     total energy              =   -2052.06682919 Ry
     estimated scf accuracy    <       0.00221105 Ry

     iteration # 85     ecut=    30.00 Ry     beta= 0.70
     Davidson diagonalization with overlap

---- Real-time Memory Report at c_bands before calling an iterative solver
           482 MiB given to the printing process from OS
             0 MiB allocation reported by mallinfo(arena+hblkhd)
         31223 MiB available memory on the node where the printing process lives
------------------
     ethr =  4.00E-07,  avg # of iterations =  1.0

     total cpu time spent up to now is      113.4 secs

     total energy              =   -2052.06643710 Ry
     estimated scf accuracy    <       0.09708508 Ry

     iteration # 86     ecut=    30.00 Ry     beta= 0.70
     Davidson diagonalization with overlap

---- Real-time Memory Report at c_bands before calling an iterative solver
           482 MiB given to the printing process from OS
             0 MiB allocation reported by mallinfo(arena+hblkhd)
         31223 MiB available memory on the node where the printing process lives
------------------
     ethr =  4.00E-07,  avg # of iterations =  1.0

     total cpu time spent up to now is      114.5 secs

     total energy              =   -2052.06697895 Ry
     estimated scf accuracy    <       0.00184537 Ry

     iteration # 87     ecut=    30.00 Ry     beta= 0.70
     Davidson diagonalization with overlap

---- Real-time Memory Report at c_bands before calling an iterative solver
           482 MiB given to the printing process from OS
             0 MiB allocation reported by mallinfo(arena+hblkhd)
         31224 MiB available memory on the node where the printing process lives
------------------
     ethr =  4.00E-07,  avg # of iterations =  1.0

     total cpu time spent up to now is      115.6 secs

     total energy              =   -2052.06700334 Ry
     estimated scf accuracy    <       0.00167222 Ry

     iteration # 88     ecut=    30.00 Ry     beta= 0.70
     Davidson diagonalization with overlap

---- Real-time Memory Report at c_bands before calling an iterative solver
           482 MiB given to the printing process from OS
             0 MiB allocation reported by mallinfo(arena+hblkhd)
         31223 MiB available memory on the node where the printing process lives
------------------
     ethr =  4.00E-07,  avg # of iterations =  1.0

     total cpu time spent up to now is      116.8 secs

     total energy              =   -2052.06660454 Ry
     estimated scf accuracy    <       0.00375940 Ry

     iteration # 89     ecut=    30.00 Ry     beta= 0.70
     Davidson diagonalization with overlap

---- Real-time Memory Report at c_bands before calling an iterative solver
           482 MiB given to the printing process from OS
             0 MiB allocation reported by mallinfo(arena+hblkhd)
         31223 MiB available memory on the node where the printing process lives
------------------
     ethr =  4.00E-07,  avg # of iterations =  2.0

     total cpu time spent up to now is      117.9 secs

     total energy              =   -2052.06629158 Ry
     estimated scf accuracy    <       0.03572114 Ry

     iteration # 90     ecut=    30.00 Ry     beta= 0.70
     Davidson diagonalization with overlap

---- Real-time Memory Report at c_bands before calling an iterative solver
           482 MiB given to the printing process from OS
             0 MiB allocation reported by mallinfo(arena+hblkhd)
         31223 MiB available memory on the node where the printing process lives
------------------
     ethr =  4.00E-07,  avg # of iterations =  2.0

     total cpu time spent up to now is      119.1 secs

     total energy              =   -2052.06697161 Ry
     estimated scf accuracy    <       0.00424581 Ry

     iteration # 91     ecut=    30.00 Ry     beta= 0.70
     Davidson diagonalization with overlap

---- Real-time Memory Report at c_bands before calling an iterative solver
           482 MiB given to the printing process from OS
             0 MiB allocation reported by mallinfo(arena+hblkhd)
         31223 MiB available memory on the node where the printing process lives
------------------
     ethr =  4.00E-07,  avg # of iterations =  2.0

     total cpu time spent up to now is      120.2 secs

     total energy              =   -2052.06652775 Ry
     estimated scf accuracy    <       0.27925808 Ry

     iteration # 92     ecut=    30.00 Ry     beta= 0.70
     Davidson diagonalization with overlap

---- Real-time Memory Report at c_bands before calling an iterative solver
           482 MiB given to the printing process from OS
             0 MiB allocation reported by mallinfo(arena+hblkhd)
         31223 MiB available memory on the node where the printing process lives
------------------
     ethr =  4.00E-07,  avg # of iterations =  1.0

     total cpu time spent up to now is      121.3 secs

     total energy              =   -2052.06673709 Ry
     estimated scf accuracy    <       0.00641482 Ry

     iteration # 93     ecut=    30.00 Ry     beta= 0.70
     Davidson diagonalization with overlap

---- Real-time Memory Report at c_bands before calling an iterative solver
           482 MiB given to the printing process from OS
             0 MiB allocation reported by mallinfo(arena+hblkhd)
         31220 MiB available memory on the node where the printing process lives
------------------
     ethr =  4.00E-07,  avg # of iterations =  1.0

     total cpu time spent up to now is      122.4 secs

     total energy              =   -2052.06695318 Ry
     estimated scf accuracy    <       0.00087942 Ry

     iteration # 94     ecut=    30.00 Ry     beta= 0.70
     Davidson diagonalization with overlap

---- Real-time Memory Report at c_bands before calling an iterative solver
           482 MiB given to the printing process from OS
             0 MiB allocation reported by mallinfo(arena+hblkhd)
         31220 MiB available memory on the node where the printing process lives
------------------
     ethr =  4.00E-07,  avg # of iterations =  1.0

     total cpu time spent up to now is      123.6 secs

     total energy              =   -2052.06658100 Ry
     estimated scf accuracy    <       0.05120399 Ry

     iteration # 95     ecut=    30.00 Ry     beta= 0.70
     Davidson diagonalization with overlap

---- Real-time Memory Report at c_bands before calling an iterative solver
           482 MiB given to the printing process from OS
             0 MiB allocation reported by mallinfo(arena+hblkhd)
         31221 MiB available memory on the node where the printing process lives
------------------
     ethr =  4.00E-07,  avg # of iterations =  2.0

     total cpu time spent up to now is      124.7 secs

     total energy              =   -2052.06605662 Ry
     estimated scf accuracy    <       0.24244933 Ry

     iteration # 96     ecut=    30.00 Ry     beta= 0.70
     Davidson diagonalization with overlap

---- Real-time Memory Report at c_bands before calling an iterative solver
           482 MiB given to the printing process from OS
             0 MiB allocation reported by mallinfo(arena+hblkhd)
         31221 MiB available memory on the node where the printing process lives
------------------
     ethr =  4.00E-07,  avg # of iterations =  1.0

     total cpu time spent up to now is      125.8 secs

     total energy              =   -2052.06711944 Ry
     estimated scf accuracy    <       0.00239342 Ry

     iteration # 97     ecut=    30.00 Ry     beta= 0.70
     Davidson diagonalization with overlap

---- Real-time Memory Report at c_bands before calling an iterative solver
           482 MiB given to the printing process from OS
             0 MiB allocation reported by mallinfo(arena+hblkhd)
         31221 MiB available memory on the node where the printing process lives
------------------
     ethr =  4.00E-07,  avg # of iterations =  2.0

     total cpu time spent up to now is      127.0 secs

     total energy              =   -2052.06678973 Ry
     estimated scf accuracy    <       0.00178786 Ry

     iteration # 98     ecut=    30.00 Ry     beta= 0.70
     Davidson diagonalization with overlap

---- Real-time Memory Report at c_bands before calling an iterative solver
           482 MiB given to the printing process from OS
             0 MiB allocation reported by mallinfo(arena+hblkhd)
         31222 MiB available memory on the node where the printing process lives
------------------
     ethr =  4.00E-07,  avg # of iterations =  2.0

     total cpu time spent up to now is      128.1 secs

     total energy              =   -2052.06674985 Ry
     estimated scf accuracy    <       0.01605680 Ry

     iteration # 99     ecut=    30.00 Ry     beta= 0.70
     Davidson diagonalization with overlap

---- Real-time Memory Report at c_bands before calling an iterative solver
           482 MiB given to the printing process from OS
             0 MiB allocation reported by mallinfo(arena+hblkhd)
         31221 MiB available memory on the node where the printing process lives
------------------
     ethr =  4.00E-07,  avg # of iterations =  1.0

     total cpu time spent up to now is      129.3 secs

     total energy              =   -2052.06679885 Ry
     estimated scf accuracy    <       0.00158534 Ry

     iteration #100     ecut=    30.00 Ry     beta= 0.70
     Davidson diagonalization with overlap

---- Real-time Memory Report at c_bands before calling an iterative solver
           482 MiB given to the printing process from OS
             0 MiB allocation reported by mallinfo(arena+hblkhd)
         31220 MiB available memory on the node where the printing process lives
------------------
     ethr =  4.00E-07,  avg # of iterations =  1.0

     total cpu time spent up to now is      130.4 secs

     total energy              =   -2052.06650810 Ry
     estimated scf accuracy    <       0.13922183 Ry

     End of self-consistent calculation

     convergence NOT achieved after 100 iterations: stopping

     Writing config to output data dir new_calculations/myprefix.save/
     Message from routine punch:
     wavefunctions written to file
 
     init_run     :    198.84s CPU      8.51s WALL (       1 calls)
     electrons    :   3638.05s CPU    121.75s WALL (       1 calls)

     Called by init_run:
     wfcinit      :     70.78s CPU      2.54s WALL (       1 calls)
     wfcinit:atom :      0.04s CPU      0.00s WALL (       1 calls)
     wfcinit:wfcr :     70.62s CPU      2.53s WALL (       1 calls)
     potinit      :     37.36s CPU      1.47s WALL (       1 calls)
     hinit0       :     80.08s CPU      4.04s WALL (       1 calls)

     Called by electrons:
     c_bands      :    711.18s CPU     22.96s WALL (     100 calls)
     sum_band     :    545.77s CPU     19.29s WALL (     100 calls)
     v_of_rho     :     41.15s CPU      1.37s WALL (     101 calls)
     v_h          :      3.54s CPU      0.12s WALL (     101 calls)
     v_xc         :     37.36s CPU      1.25s WALL (     101 calls)
     newd         :    779.85s CPU     26.20s WALL (     101 calls)
     PAW_pot      :   1544.53s CPU     51.52s WALL (     101 calls)
     mix_rho      :     14.62s CPU      0.48s WALL (     100 calls)

     Called by c_bands:
     init_us_2    :      2.36s CPU      0.08s WALL (     201 calls)
     init_us_2:cp :      2.05s CPU      0.07s WALL (     201 calls)
     regterg      :    699.26s CPU     22.56s WALL (     100 calls)

     Called by sum_band:
     sum_band:wei :      0.67s CPU      0.02s WALL (     100 calls)
     sum_band:loo :    135.07s CPU      4.32s WALL (     100 calls)
     sum_band:buf :      0.07s CPU      0.00s WALL (     100 calls)
     sum_band:ini :      1.29s CPU      0.04s WALL (     100 calls)
     sum_band:cal :      0.98s CPU      0.03s WALL (     100 calls)
     sum_band:bec :      0.28s CPU      0.01s WALL (     100 calls)
     addusdens    :    400.58s CPU     14.63s WALL (     100 calls)
     addusd:skk   :      0.93s CPU      0.03s WALL (     300 calls)
     addusd:dgemm :     72.16s CPU      3.86s WALL (     300 calls)
     addusd:qvan2 :    230.05s CPU      7.39s WALL (     300 calls)

     Called by *egterg:
     rdiaghg      :     13.23s CPU      0.44s WALL (     271 calls)
     regterg:over :      2.07s CPU      0.07s WALL (     171 calls)
     regterg:upda :      1.28s CPU      0.04s WALL (     171 calls)
     regterg:last :      1.73s CPU      0.06s WALL (     138 calls)
     h_psi        :    741.26s CPU     24.13s WALL (     272 calls)
     s_psi        :      0.59s CPU      0.02s WALL (     272 calls)
     g_psi        :      0.35s CPU      0.01s WALL (     171 calls)

     Called by h_psi:
     h_psi:calbec :      4.21s CPU      0.15s WALL (     272 calls)
     vloc_psi     :    734.53s CPU     23.90s WALL (     272 calls)
     add_vuspsi   :      1.06s CPU      0.04s WALL (     272 calls)

     General routines
     calbec       :      4.67s CPU      0.16s WALL (     372 calls)
     fft          :     75.54s CPU      2.86s WALL (    1111 calls)
     ffts         :     24.49s CPU      0.95s WALL (     201 calls)
     fftw         :    808.20s CPU     26.21s WALL (   10268 calls)
     interpolate  :     28.21s CPU      1.07s WALL (     101 calls)
     davcio       :      0.00s CPU      0.02s WALL (      19 calls)
 
     Parallel routines

     PAW routines
     PAW_pot      :   1544.53s CPU     51.52s WALL (     101 calls)
     PAW_symme    :      5.60s CPU      0.18s WALL (     201 calls)
 
     PWSCF        :      1h 3m CPU   2m10.82s WALL

 
   This run was terminated on:   8: 7:18  20May2023            

=------------------------------------------------------------------------------=
   JOB DONE.
=------------------------------------------------------------------------------=
