
     Program PWSCF v.7.0 starts on 20May2023 at 16: 0: 9 

     This program is part of the open-source Quantum ESPRESSO suite
     for quantum simulation of materials; please cite
         "P. Giannozzi et al., J. Phys.:Condens. Matter 21 395502 (2009);
         "P. Giannozzi et al., J. Phys.:Condens. Matter 29 465901 (2017);
         "P. Giannozzi et al., J. Chem. Phys. 152 154105 (2020);
          URL http://www.quantum-espresso.org", 
     in publications or presentations arising from this work. More details at
     http://www.quantum-espresso.org/quote

     Parallel version (MPI & OpenMP), running on      32 processor cores
     Number of MPI processes:                 1
     Threads/MPI process:                    32

     MPI processes distributed on     1 nodes
     74794 MiB available memory on the printing compute node when the environment starts
 
     Reading input from espresso_14525.pwi
Warning: card &CELL ignored
Warning: card / ignored

     Current dimensions of program PWSCF are:
     Max number of different atomic species (ntypx) = 10
     Max number of k-points (npk) =  40000
     Max angular momentum in pseudopotentials (lmaxx) =  4
     file Nb.pbe-spn-kjpaw_psl.0.3.0.UPF: wavefunction(s)  4S 4P renormalized
     file Al.pbe-n-kjpaw_psl.1.0.0.UPF: wavefunction(s)  3S 3P renormalized
     file C.pbe-n-kjpaw_psl.1.0.0.UPF: wavefunction(s)  2S 2P renormalized

     gamma-point specific algorithms are used
     Message from routine setup:
     using ibrav=0 with symmetry is DISCOURAGED, use correct ibrav instead

     Subspace diagonalization in iterative solution of the eigenvalue problem:
     a serial algorithm will be used

 
     G-vector sticks info
     --------------------
     sticks:   dense  smooth     PW     G-vecs:    dense   smooth      PW
     Sum         559     283     73                47931    16909    2085
 
     Using Slab Decomposition
 


     bravais-lattice index     =            0
     lattice parameter (alat)  =       5.7975  a.u.
     unit-cell volume          =     762.4482 (a.u.)^3
     number of atoms/cell      =            8
     number of atomic types    =            4
     number of electrons       =        63.00
     number of Kohn-Sham states=           38
     kinetic-energy cutoff     =      30.0000  Ry
     charge density cutoff     =     240.0000  Ry
     scf convergence threshold =      1.0E-06
     mixing beta               =       0.7000
     number of iterations used =            8  plain     mixing
     Exchange-correlation= SLA  PW   PBX  PBC
                           (   1   4   3   4   0   0   0)

     celldm(1)=   5.797472  celldm(2)=   0.000000  celldm(3)=   0.000000
     celldm(4)=   0.000000  celldm(5)=   0.000000  celldm(6)=   0.000000

     crystal axes: (cart. coord. in units of alat)
               a(1) = (   1.000000   0.000000   0.000000 )  
               a(2) = (  -0.500000   0.866025   0.000000 )  
               a(3) = (   0.000000   0.000000   4.518181 )  

     reciprocal axes: (cart. coord. in units 2 pi/alat)
               b(1) = (  1.000000  0.577350  0.000000 )  
               b(2) = (  0.000000  1.154701  0.000000 )  
               b(3) = (  0.000000  0.000000  0.221328 )  


     PseudoPot. # 1 for Ti read from file:
     /home/pragov/projects/rrg-bengioy-ad/pragov/crystal_structure_design/SSSP/ti_pbe_v1.4.uspp.F.UPF
     MD5 check sum: 88a00a6731bd790ddea75d31a80cb452
     Pseudo is Ultrasoft + core correction, Zval = 12.0
     Generated by new atomic code, or converted to UPF format
     Using radial grid of  851 points,  6 beta functions with: 
                l(1) =   0
                l(2) =   0
                l(3) =   1
                l(4) =   1
                l(5) =   2
                l(6) =   2
     Q(r) pseudized with  6 coefficients,  rinner =    1.000   1.000   1.000
                                                       1.000   1.000

     PseudoPot. # 2 for Nb read from file:
     /home/pragov/projects/rrg-bengioy-ad/pragov/crystal_structure_design/SSSP/Nb.pbe-spn-kjpaw_psl.0.3.0.UPF
     MD5 check sum: 411d72ad547312f8017e2943ceca08cc
     Pseudo is Projector augmented-wave + core cor, Zval = 13.0
     Generated using "atomic" code by A. Dal Corso  v.5.0.99 svn rev. 10869
     Shape of augmentation charge: PSQ
     Using radial grid of 1227 points,  6 beta functions with: 
                l(1) =   0
                l(2) =   0
                l(3) =   1
                l(4) =   1
                l(5) =   2
                l(6) =   2
     Q(r) pseudized with 0 coefficients 


     PseudoPot. # 3 for Al read from file:
     /home/pragov/projects/rrg-bengioy-ad/pragov/crystal_structure_design/SSSP/Al.pbe-n-kjpaw_psl.1.0.0.UPF
     MD5 check sum: cfc449ca30b5f3223ec38ddd88ac046d
     Pseudo is Projector augmented-wave + core cor, Zval =  3.0
     Generated using "atomic" code by A. Dal Corso  v.5.1
     Shape of augmentation charge: PSQ
     Using radial grid of 1135 points,  6 beta functions with: 
                l(1) =   0
                l(2) =   0
                l(3) =   1
                l(4) =   1
                l(5) =   2
                l(6) =   2
     Q(r) pseudized with 0 coefficients 


     PseudoPot. # 4 for C  read from file:
     /home/pragov/projects/rrg-bengioy-ad/pragov/crystal_structure_design/SSSP/C.pbe-n-kjpaw_psl.1.0.0.UPF
     MD5 check sum: 5d2aebdfa2cae82b50a7e79e9516da0f
     Pseudo is Projector augmented-wave + core cor, Zval =  4.0
     Generated using "atomic" code by A. Dal Corso  v.5.1
     Shape of augmentation charge: PSQ
     Using radial grid of 1073 points,  4 beta functions with: 
                l(1) =   0
                l(2) =   0
                l(3) =   1
                l(4) =   1
     Q(r) pseudized with 0 coefficients 


     atomic species   valence    mass     pseudopotential
        Ti            12.00    47.86700     Ti( 1.00)
        Nb            13.00    92.90637     Nb( 1.00)
        Al             3.00    26.98154     Al( 1.00)
        C              4.00    12.01100     C ( 1.00)

      6 Sym. Ops. (no inversion) found


                                    s                        frac. trans.

      isym =  1     identity                                     

 cryst.   s( 1) = (     1          0          0      )
                  (     0          1          0      )
                  (     0          0          1      )

 cart.    s( 1) = (  1.0000000  0.0000000  0.0000000 )
                  (  0.0000000  1.0000000  0.0000000 )
                  (  0.0000000  0.0000000  1.0000000 )


      isym =  2     120 deg rotation - cryst. axis [0,0,1]       

 cryst.   s( 2) = (     0          1          0      )
                  (    -1         -1          0      )
                  (     0          0          1      )

 cart.    s( 2) = ( -0.5000001 -0.8660255  0.0000000 )
                  (  0.8660254 -0.4999999  0.0000000 )
                  (  0.0000000  0.0000000  1.0000000 )


      isym =  3     120 deg rotation - cryst. axis [0,0,-1]      

 cryst.   s( 3) = (    -1         -1          0      )
                  (     1          0          0      )
                  (     0          0          1      )

 cart.    s( 3) = ( -0.4999999  0.8660255  0.0000000 )
                  ( -0.8660254 -0.5000001  0.0000000 )
                  (  0.0000000  0.0000000  1.0000000 )


      isym =  4     inv. 180 deg rotation - cart. axis [1,0,0]   

 cryst.   s( 4) = (    -1          0          0      )
                  (     1          1          0      )
                  (     0          0          1      )

 cart.    s( 4) = ( -1.0000000 -0.0000002  0.0000000 )
                  (  0.0000000  1.0000000  0.0000000 )
                  (  0.0000000  0.0000000  1.0000000 )


      isym =  5     inv. 180 deg rotation - cryst. axis [0,1,0]  

 cryst.   s( 5) = (     1          1          0      )
                  (     0         -1          0      )
                  (     0          0          1      )

 cart.    s( 5) = (  0.4999999  0.8660256  0.0000000 )
                  (  0.8660254 -0.4999999  0.0000000 )
                  (  0.0000000  0.0000000  1.0000000 )


      isym =  6     inv. 180 deg rotation - cryst. axis [1,1,0]  

 cryst.   s( 6) = (     0         -1          0      )
                  (    -1          0          0      )
                  (     0          0          1      )

 cart.    s( 6) = (  0.5000001 -0.8660254  0.0000000 )
                  ( -0.8660254 -0.5000001  0.0000000 )
                  (  0.0000000  0.0000000  1.0000000 )


   Cartesian axes

     site n.     atom                  positions (alat units)
         1           Ti  tau(   1) = (  -0.0000006   0.5773505   2.6488966  )
         2           Ti  tau(   2) = (  -0.0000006   0.5773505   4.1407278  )
         3           Ti  tau(   3) = (   0.5000005   0.2886748   0.3755060  )
         4           Nb  tau(   4) = (   0.5000005   0.2886748   1.8575688  )
         5           Al  tau(   5) = (   0.5000005   0.2886748   3.3955396  )
         6           Al  tau(   6) = (  -0.0000006   0.5773505   1.1156248  )
         7           C   tau(   7) = (   0.0000000   0.0000000   2.2810580  )
         8           C   tau(   8) = (   0.0000000   0.0000000   4.5168980  )

   Crystallographic axes

     site n.     atom                  positions (cryst. coord.)
         1           Ti  tau(   1) = (  0.3333330  0.6666670  0.5862750  )
         2           Ti  tau(   2) = (  0.3333330  0.6666670  0.9164590  )
         3           Ti  tau(   3) = (  0.6666670  0.3333330  0.0831100  )
         4           Nb  tau(   4) = (  0.6666670  0.3333330  0.4111320  )
         5           Al  tau(   5) = (  0.6666670  0.3333330  0.7515280  )
         6           Al  tau(   6) = (  0.3333330  0.6666670  0.2469190  )
         7           C   tau(   7) = (  0.0000000  0.0000000  0.5048620  )
         8           C   tau(   8) = (  0.0000000  0.0000000  0.9997160  )

     number of k points=     1  Methfessel-Paxton smearing, width (Ry)=  0.0010
                       cart. coord. in units 2pi/alat
        k(    1) = (   0.0000000   0.0000000   0.0000000), wk =   2.0000000

                       cryst. coord.
        k(    1) = (   0.0000000   0.0000000   0.0000000), wk =   2.0000000

     Dense  grid:    23966 G-vectors     FFT dimensions: (  30,  30, 135)

     Smooth grid:     8455 G-vectors     FFT dimensions: (  24,  24,  96)

     Dynamical RAM for                 wfc:       0.61 MB

     Dynamical RAM for     wfc (w. buffer):       0.61 MB

     Dynamical RAM for           str. fact:       1.46 MB

     Dynamical RAM for           local pot:       0.00 MB

     Dynamical RAM for          nlocal pot:       2.00 MB

     Dynamical RAM for                qrad:       4.98 MB

     Dynamical RAM for          rho,v,vnew:       3.88 MB

     Dynamical RAM for               rhoin:       1.29 MB

     Dynamical RAM for            rho*nmix:       5.85 MB

     Dynamical RAM for           G-vectors:       1.44 MB

     Dynamical RAM for          h,s,v(r/c):       0.13 MB

     Dynamical RAM for          <psi|beta>:       0.04 MB

     Dynamical RAM for                 psi:       1.23 MB

     Dynamical RAM for                hpsi:       1.23 MB

     Dynamical RAM for                spsi:       1.23 MB

     Dynamical RAM for      wfcinit/wfcrot:       1.88 MB

     Dynamical RAM for           addusdens:      69.12 MB

     Dynamical RAM for          addusforce:      70.77 MB

     Dynamical RAM for         addusstress:      73.50 MB

     Estimated static dynamical RAM per process >      22.12 MB

     Estimated max dynamical RAM per process >     101.48 MB

     Check: negative core charge=   -0.000015

     Initial potential from superposition of free atoms

     starting charge      59.9931, renormalised to      63.0000

     negative rho (up, down):  4.377E-03 0.000E+00
     Starting wfcs are   56 randomized atomic wfcs
     Checking if some PAW data can be deallocated... 

     total cpu time spent up to now is        5.7 secs

     Self-consistent Calculation

     iteration #  1     ecut=    30.00 Ry     beta= 0.70
     Davidson diagonalization with overlap

---- Real-time Memory Report at c_bands before calling an iterative solver
           392 MiB given to the printing process from OS
             0 MiB allocation reported by mallinfo(arena+hblkhd)
         74575 MiB available memory on the node where the printing process lives
------------------
     ethr =  1.00E-02,  avg # of iterations =  5.0

     negative rho (up, down):  2.059E-03 0.000E+00

     total cpu time spent up to now is        6.5 secs

     total energy              =    -467.64969184 Ry
     estimated scf accuracy    <     398.98769763 Ry

     iteration #  2     ecut=    30.00 Ry     beta= 0.70
     Davidson diagonalization with overlap

---- Real-time Memory Report at c_bands before calling an iterative solver
           486 MiB given to the printing process from OS
             0 MiB allocation reported by mallinfo(arena+hblkhd)
         74490 MiB available memory on the node where the printing process lives
------------------
     ethr =  1.00E-02,  avg # of iterations = 38.0

     negative rho (up, down):  1.811E-03 0.000E+00

     total cpu time spent up to now is        7.8 secs

     total energy              =    -916.74703349 Ry
     estimated scf accuracy    <    3505.99118138 Ry

     iteration #  3     ecut=    30.00 Ry     beta= 0.70
     Davidson diagonalization with overlap

---- Real-time Memory Report at c_bands before calling an iterative solver
           489 MiB given to the printing process from OS
             0 MiB allocation reported by mallinfo(arena+hblkhd)
         74491 MiB available memory on the node where the printing process lives
------------------
     ethr =  1.00E-02,  avg # of iterations =  8.0

     negative rho (up, down):  5.093E-04 0.000E+00

     total cpu time spent up to now is        8.4 secs

     total energy              =    -853.99632793 Ry
     estimated scf accuracy    <    1596.18326721 Ry

     iteration #  4     ecut=    30.00 Ry     beta= 0.70
     Davidson diagonalization with overlap

---- Real-time Memory Report at c_bands before calling an iterative solver
           489 MiB given to the printing process from OS
             0 MiB allocation reported by mallinfo(arena+hblkhd)
         74487 MiB available memory on the node where the printing process lives
------------------
     ethr =  1.00E-02,  avg # of iterations = 12.0

     negative rho (up, down):  4.419E-04 0.000E+00

     total cpu time spent up to now is        9.0 secs

     total energy              =    -842.46910283 Ry
     estimated scf accuracy    <     929.79649337 Ry

     iteration #  5     ecut=    30.00 Ry     beta= 0.70
     Davidson diagonalization with overlap

---- Real-time Memory Report at c_bands before calling an iterative solver
           489 MiB given to the printing process from OS
             0 MiB allocation reported by mallinfo(arena+hblkhd)
         74489 MiB available memory on the node where the printing process lives
------------------
     ethr =  1.00E-02,  avg # of iterations =  5.0

     negative rho (up, down):  9.915E-04 0.000E+00

     total cpu time spent up to now is        9.5 secs

     total energy              =    -816.05003427 Ry
     estimated scf accuracy    <     692.83618971 Ry

     iteration #  6     ecut=    30.00 Ry     beta= 0.70
     Davidson diagonalization with overlap

---- Real-time Memory Report at c_bands before calling an iterative solver
           490 MiB given to the printing process from OS
             0 MiB allocation reported by mallinfo(arena+hblkhd)
         74489 MiB available memory on the node where the printing process lives
------------------
     ethr =  1.00E-02,  avg # of iterations = 10.0

     negative rho (up, down):  1.180E-03 0.000E+00

     total cpu time spent up to now is       10.0 secs

     total energy              =    -815.70526031 Ry
     estimated scf accuracy    <     293.81405203 Ry

     iteration #  7     ecut=    30.00 Ry     beta= 0.70
     Davidson diagonalization with overlap

---- Real-time Memory Report at c_bands before calling an iterative solver
           490 MiB given to the printing process from OS
             0 MiB allocation reported by mallinfo(arena+hblkhd)
         74489 MiB available memory on the node where the printing process lives
------------------
     ethr =  1.00E-02,  avg # of iterations =  5.0

     negative rho (up, down):  1.451E-03 0.000E+00

     total cpu time spent up to now is       10.5 secs

     total energy              =    -811.90446898 Ry
     estimated scf accuracy    <     186.68226893 Ry

     iteration #  8     ecut=    30.00 Ry     beta= 0.70
     Davidson diagonalization with overlap

---- Real-time Memory Report at c_bands before calling an iterative solver
           490 MiB given to the printing process from OS
             0 MiB allocation reported by mallinfo(arena+hblkhd)
         74487 MiB available memory on the node where the printing process lives
------------------
     ethr =  1.00E-02,  avg # of iterations =  2.0

     negative rho (up, down):  1.668E-03 0.000E+00

     total cpu time spent up to now is       10.9 secs

     total energy              =    -805.87951390 Ry
     estimated scf accuracy    <     153.38814480 Ry

     iteration #  9     ecut=    30.00 Ry     beta= 0.70
     Davidson diagonalization with overlap

---- Real-time Memory Report at c_bands before calling an iterative solver
           490 MiB given to the printing process from OS
             0 MiB allocation reported by mallinfo(arena+hblkhd)
         74487 MiB available memory on the node where the printing process lives
------------------
     ethr =  1.00E-02,  avg # of iterations = 10.0

     negative rho (up, down):  1.666E-03 0.000E+00

     total cpu time spent up to now is       11.5 secs

     total energy              =    -808.81684138 Ry
     estimated scf accuracy    <      11.21818285 Ry

     iteration # 10     ecut=    30.00 Ry     beta= 0.70
     Davidson diagonalization with overlap

---- Real-time Memory Report at c_bands before calling an iterative solver
           490 MiB given to the printing process from OS
             0 MiB allocation reported by mallinfo(arena+hblkhd)
         74487 MiB available memory on the node where the printing process lives
------------------
     ethr =  1.00E-02,  avg # of iterations =  1.0

     negative rho (up, down):  2.094E-02 0.000E+00

     total cpu time spent up to now is       11.9 secs

     total energy              =    -797.25642872 Ry
     estimated scf accuracy    <      57.03905088 Ry

     iteration # 11     ecut=    30.00 Ry     beta= 0.70
     Davidson diagonalization with overlap

---- Real-time Memory Report at c_bands before calling an iterative solver
           490 MiB given to the printing process from OS
             0 MiB allocation reported by mallinfo(arena+hblkhd)
         74487 MiB available memory on the node where the printing process lives
------------------
     ethr =  1.00E-02,  avg # of iterations =  7.0

     negative rho (up, down):  2.492E-03 0.000E+00

     total cpu time spent up to now is       12.5 secs

     total energy              =    -806.25285067 Ry
     estimated scf accuracy    <     459.88655194 Ry

     iteration # 12     ecut=    30.00 Ry     beta= 0.70
     Davidson diagonalization with overlap

---- Real-time Memory Report at c_bands before calling an iterative solver
           490 MiB given to the printing process from OS
             0 MiB allocation reported by mallinfo(arena+hblkhd)
         74486 MiB available memory on the node where the printing process lives
------------------
     ethr =  1.00E-02,  avg # of iterations =  6.0

     negative rho (up, down):  2.345E-03 0.000E+00

     total cpu time spent up to now is       13.0 secs

     total energy              =    -809.97755673 Ry
     estimated scf accuracy    <     136.64269652 Ry

     iteration # 13     ecut=    30.00 Ry     beta= 0.70
     Davidson diagonalization with overlap

---- Real-time Memory Report at c_bands before calling an iterative solver
           490 MiB given to the printing process from OS
             0 MiB allocation reported by mallinfo(arena+hblkhd)
         74486 MiB available memory on the node where the printing process lives
------------------
     ethr =  1.00E-02,  avg # of iterations =  1.0

     negative rho (up, down):  1.998E-03 0.000E+00

     total cpu time spent up to now is       13.4 secs

     total energy              =    -806.85090961 Ry
     estimated scf accuracy    <     128.83020813 Ry

     iteration # 14     ecut=    30.00 Ry     beta= 0.70
     Davidson diagonalization with overlap

---- Real-time Memory Report at c_bands before calling an iterative solver
           490 MiB given to the printing process from OS
             0 MiB allocation reported by mallinfo(arena+hblkhd)
         74485 MiB available memory on the node where the printing process lives
------------------
     ethr =  1.00E-02,  avg # of iterations =  6.0

     negative rho (up, down):  2.101E-03 0.000E+00

     total cpu time spent up to now is       13.9 secs

     total energy              =    -808.18611042 Ry
     estimated scf accuracy    <      36.34682730 Ry

     iteration # 15     ecut=    30.00 Ry     beta= 0.70
     Davidson diagonalization with overlap

---- Real-time Memory Report at c_bands before calling an iterative solver
           490 MiB given to the printing process from OS
             0 MiB allocation reported by mallinfo(arena+hblkhd)
         74485 MiB available memory on the node where the printing process lives
------------------
     ethr =  1.00E-02,  avg # of iterations =  1.0

     negative rho (up, down):  2.105E-03 0.000E+00

     total cpu time spent up to now is       14.3 secs

     total energy              =    -807.98601269 Ry
     estimated scf accuracy    <      34.10317925 Ry

     iteration # 16     ecut=    30.00 Ry     beta= 0.70
     Davidson diagonalization with overlap

---- Real-time Memory Report at c_bands before calling an iterative solver
           490 MiB given to the printing process from OS
             0 MiB allocation reported by mallinfo(arena+hblkhd)
         74486 MiB available memory on the node where the printing process lives
------------------
     ethr =  1.00E-02,  avg # of iterations =  6.0

     negative rho (up, down):  2.033E-03 0.000E+00

     total cpu time spent up to now is       14.8 secs

     total energy              =    -808.62915918 Ry
     estimated scf accuracy    <      10.57757836 Ry

     iteration # 17     ecut=    30.00 Ry     beta= 0.70
     Davidson diagonalization with overlap

---- Real-time Memory Report at c_bands before calling an iterative solver
           490 MiB given to the printing process from OS
             0 MiB allocation reported by mallinfo(arena+hblkhd)
         74487 MiB available memory on the node where the printing process lives
------------------
     ethr =  1.00E-02,  avg # of iterations =  1.0

     negative rho (up, down):  2.738E-03 0.000E+00

     total cpu time spent up to now is       15.2 secs

     total energy              =    -807.39328292 Ry
     estimated scf accuracy    <      10.03833876 Ry

     iteration # 18     ecut=    30.00 Ry     beta= 0.70
     Davidson diagonalization with overlap

---- Real-time Memory Report at c_bands before calling an iterative solver
           490 MiB given to the printing process from OS
             0 MiB allocation reported by mallinfo(arena+hblkhd)
         74487 MiB available memory on the node where the printing process lives
------------------
     ethr =  1.00E-02,  avg # of iterations =  8.0

     negative rho (up, down):  2.328E-03 0.000E+00

     total cpu time spent up to now is       15.7 secs

     total energy              =    -806.61214143 Ry
     estimated scf accuracy    <      88.49579146 Ry

     iteration # 19     ecut=    30.00 Ry     beta= 0.70
     Davidson diagonalization with overlap

---- Real-time Memory Report at c_bands before calling an iterative solver
           490 MiB given to the printing process from OS
             0 MiB allocation reported by mallinfo(arena+hblkhd)
         74487 MiB available memory on the node where the printing process lives
------------------
     ethr =  1.00E-02,  avg # of iterations =  3.0

     negative rho (up, down):  3.002E-03 0.000E+00

     total cpu time spent up to now is       16.2 secs

     total energy              =    -807.36614766 Ry
     estimated scf accuracy    <       5.44455266 Ry

     iteration # 20     ecut=    30.00 Ry     beta= 0.70
     Davidson diagonalization with overlap

---- Real-time Memory Report at c_bands before calling an iterative solver
           490 MiB given to the printing process from OS
             0 MiB allocation reported by mallinfo(arena+hblkhd)
         74489 MiB available memory on the node where the printing process lives
------------------
     ethr =  8.64E-03,  avg # of iterations =  6.0

     negative rho (up, down):  2.320E-03 0.000E+00

     total cpu time spent up to now is       16.7 secs

     total energy              =    -806.26747268 Ry
     estimated scf accuracy    <     119.76548833 Ry

     iteration # 21     ecut=    30.00 Ry     beta= 0.70
     Davidson diagonalization with overlap

---- Real-time Memory Report at c_bands before calling an iterative solver
           490 MiB given to the printing process from OS
             0 MiB allocation reported by mallinfo(arena+hblkhd)
         74487 MiB available memory on the node where the printing process lives
------------------
     ethr =  8.64E-03,  avg # of iterations =  6.0

     negative rho (up, down):  2.514E-03 0.000E+00

     total cpu time spent up to now is       17.6 secs

     total energy              =    -808.13298390 Ry
     estimated scf accuracy    <      17.98046277 Ry

     iteration # 22     ecut=    30.00 Ry     beta= 0.70
     Davidson diagonalization with overlap

---- Real-time Memory Report at c_bands before calling an iterative solver
           490 MiB given to the printing process from OS
             0 MiB allocation reported by mallinfo(arena+hblkhd)
         74480 MiB available memory on the node where the printing process lives
------------------
     ethr =  8.64E-03,  avg # of iterations =  3.0

     negative rho (up, down):  2.485E-03 0.000E+00

     total cpu time spent up to now is       18.4 secs

     total energy              =    -808.16455603 Ry
     estimated scf accuracy    <       9.84741921 Ry

     iteration # 23     ecut=    30.00 Ry     beta= 0.70
     Davidson diagonalization with overlap

---- Real-time Memory Report at c_bands before calling an iterative solver
           490 MiB given to the printing process from OS
             0 MiB allocation reported by mallinfo(arena+hblkhd)
         74482 MiB available memory on the node where the printing process lives
------------------
     ethr =  8.64E-03,  avg # of iterations =  1.0

     negative rho (up, down):  2.517E-03 0.000E+00

     total cpu time spent up to now is       18.8 secs

     total energy              =    -808.48781524 Ry
     estimated scf accuracy    <       7.52553605 Ry

     iteration # 24     ecut=    30.00 Ry     beta= 0.70
     Davidson diagonalization with overlap

---- Real-time Memory Report at c_bands before calling an iterative solver
           490 MiB given to the printing process from OS
             0 MiB allocation reported by mallinfo(arena+hblkhd)
         74481 MiB available memory on the node where the printing process lives
------------------
     ethr =  8.64E-03,  avg # of iterations =  1.0

     negative rho (up, down):  2.773E-03 0.000E+00

     total cpu time spent up to now is       19.4 secs

     total energy              =    -808.15356297 Ry
     estimated scf accuracy    <       7.24429389 Ry

     iteration # 25     ecut=    30.00 Ry     beta= 0.70
     Davidson diagonalization with overlap

---- Real-time Memory Report at c_bands before calling an iterative solver
           490 MiB given to the printing process from OS
             0 MiB allocation reported by mallinfo(arena+hblkhd)
         74480 MiB available memory on the node where the printing process lives
------------------
     ethr =  8.64E-03,  avg # of iterations =  2.0

     negative rho (up, down):  2.665E-03 0.000E+00

     total cpu time spent up to now is       19.9 secs

     total energy              =    -808.08246307 Ry
     estimated scf accuracy    <       8.36005894 Ry

     iteration # 26     ecut=    30.00 Ry     beta= 0.70
     Davidson diagonalization with overlap

---- Real-time Memory Report at c_bands before calling an iterative solver
           490 MiB given to the printing process from OS
             0 MiB allocation reported by mallinfo(arena+hblkhd)
         74481 MiB available memory on the node where the printing process lives
------------------
     ethr =  8.64E-03,  avg # of iterations =  1.0

     negative rho (up, down):  2.691E-03 0.000E+00

     total cpu time spent up to now is       20.3 secs

     total energy              =    -808.23484231 Ry
     estimated scf accuracy    <       7.09833671 Ry

     iteration # 27     ecut=    30.00 Ry     beta= 0.70
     Davidson diagonalization with overlap

---- Real-time Memory Report at c_bands before calling an iterative solver
           490 MiB given to the printing process from OS
             0 MiB allocation reported by mallinfo(arena+hblkhd)
         74480 MiB available memory on the node where the printing process lives
------------------
     ethr =  8.64E-03,  avg # of iterations =  2.0

     negative rho (up, down):  2.767E-03 0.000E+00

     total cpu time spent up to now is       20.8 secs

     total energy              =    -808.34829286 Ry
     estimated scf accuracy    <       2.60630207 Ry

     iteration # 28     ecut=    30.00 Ry     beta= 0.70
     Davidson diagonalization with overlap

---- Real-time Memory Report at c_bands before calling an iterative solver
           490 MiB given to the printing process from OS
             0 MiB allocation reported by mallinfo(arena+hblkhd)
         74480 MiB available memory on the node where the printing process lives
------------------
     ethr =  4.14E-03,  avg # of iterations =  2.0

     negative rho (up, down):  2.769E-03 0.000E+00

     total cpu time spent up to now is       21.2 secs

     total energy              =    -808.32988823 Ry
     estimated scf accuracy    <       6.99592777 Ry

     iteration # 29     ecut=    30.00 Ry     beta= 0.70
     Davidson diagonalization with overlap

---- Real-time Memory Report at c_bands before calling an iterative solver
           490 MiB given to the printing process from OS
             0 MiB allocation reported by mallinfo(arena+hblkhd)
         74480 MiB available memory on the node where the printing process lives
------------------
     ethr =  4.14E-03,  avg # of iterations =  1.0

     negative rho (up, down):  2.825E-03 0.000E+00

     total cpu time spent up to now is       21.6 secs

     total energy              =    -808.36694455 Ry
     estimated scf accuracy    <       1.82492113 Ry

     iteration # 30     ecut=    30.00 Ry     beta= 0.70
     Davidson diagonalization with overlap

---- Real-time Memory Report at c_bands before calling an iterative solver
           490 MiB given to the printing process from OS
             0 MiB allocation reported by mallinfo(arena+hblkhd)
         74481 MiB available memory on the node where the printing process lives
------------------
     ethr =  2.90E-03,  avg # of iterations =  1.0

     negative rho (up, down):  2.843E-03 0.000E+00

     total cpu time spent up to now is       22.1 secs

     total energy              =    -808.33380207 Ry
     estimated scf accuracy    <       4.05542701 Ry

     iteration # 31     ecut=    30.00 Ry     beta= 0.70
     Davidson diagonalization with overlap

---- Real-time Memory Report at c_bands before calling an iterative solver
           490 MiB given to the printing process from OS
             0 MiB allocation reported by mallinfo(arena+hblkhd)
         74481 MiB available memory on the node where the printing process lives
------------------
     ethr =  2.90E-03,  avg # of iterations =  1.0

     negative rho (up, down):  2.844E-03 0.000E+00

     total cpu time spent up to now is       22.5 secs

     total energy              =    -808.37940615 Ry
     estimated scf accuracy    <       1.81977714 Ry

     iteration # 32     ecut=    30.00 Ry     beta= 0.70
     Davidson diagonalization with overlap

---- Real-time Memory Report at c_bands before calling an iterative solver
           490 MiB given to the printing process from OS
             0 MiB allocation reported by mallinfo(arena+hblkhd)
         74482 MiB available memory on the node where the printing process lives
------------------
     ethr =  2.89E-03,  avg # of iterations =  1.0

     negative rho (up, down):  2.852E-03 0.000E+00

     total cpu time spent up to now is       23.0 secs

     total energy              =    -808.38029006 Ry
     estimated scf accuracy    <       1.73909410 Ry

     iteration # 33     ecut=    30.00 Ry     beta= 0.70
     Davidson diagonalization with overlap

---- Real-time Memory Report at c_bands before calling an iterative solver
           490 MiB given to the printing process from OS
             0 MiB allocation reported by mallinfo(arena+hblkhd)
         74483 MiB available memory on the node where the printing process lives
------------------
     ethr =  2.76E-03,  avg # of iterations =  1.0

     negative rho (up, down):  2.860E-03 0.000E+00

     total cpu time spent up to now is       23.4 secs

     total energy              =    -808.37119897 Ry
     estimated scf accuracy    <       1.66342690 Ry

     iteration # 34     ecut=    30.00 Ry     beta= 0.70
     Davidson diagonalization with overlap

---- Real-time Memory Report at c_bands before calling an iterative solver
           490 MiB given to the printing process from OS
             0 MiB allocation reported by mallinfo(arena+hblkhd)
         74483 MiB available memory on the node where the printing process lives
------------------
     ethr =  2.64E-03,  avg # of iterations =  1.0

     negative rho (up, down):  2.866E-03 0.000E+00

     total cpu time spent up to now is       23.9 secs

     total energy              =    -808.37240129 Ry
     estimated scf accuracy    <       1.39319670 Ry

     iteration # 35     ecut=    30.00 Ry     beta= 0.70
     Davidson diagonalization with overlap

---- Real-time Memory Report at c_bands before calling an iterative solver
           490 MiB given to the printing process from OS
             0 MiB allocation reported by mallinfo(arena+hblkhd)
         74485 MiB available memory on the node where the printing process lives
------------------
     ethr =  2.21E-03,  avg # of iterations =  1.0

     negative rho (up, down):  2.876E-03 0.000E+00

     total cpu time spent up to now is       24.3 secs

     total energy              =    -808.37263956 Ry
     estimated scf accuracy    <       0.65684843 Ry

     iteration # 36     ecut=    30.00 Ry     beta= 0.70
     Davidson diagonalization with overlap

---- Real-time Memory Report at c_bands before calling an iterative solver
           490 MiB given to the printing process from OS
             0 MiB allocation reported by mallinfo(arena+hblkhd)
         74485 MiB available memory on the node where the printing process lives
------------------
     ethr =  1.04E-03,  avg # of iterations =  3.0

     negative rho (up, down):  2.875E-03 0.000E+00

     total cpu time spent up to now is       24.7 secs

     total energy              =    -808.37873087 Ry
     estimated scf accuracy    <       4.75616076 Ry

     iteration # 37     ecut=    30.00 Ry     beta= 0.70
     Davidson diagonalization with overlap

---- Real-time Memory Report at c_bands before calling an iterative solver
           490 MiB given to the printing process from OS
             0 MiB allocation reported by mallinfo(arena+hblkhd)
         74484 MiB available memory on the node where the printing process lives
------------------
     ethr =  1.04E-03,  avg # of iterations =  3.0

     negative rho (up, down):  2.878E-03 0.000E+00

     total cpu time spent up to now is       25.2 secs

     total energy              =    -808.37925701 Ry
     estimated scf accuracy    <       4.00164592 Ry

     iteration # 38     ecut=    30.00 Ry     beta= 0.70
     Davidson diagonalization with overlap

---- Real-time Memory Report at c_bands before calling an iterative solver
           490 MiB given to the printing process from OS
             0 MiB allocation reported by mallinfo(arena+hblkhd)
         74484 MiB available memory on the node where the printing process lives
------------------
     ethr =  1.04E-03,  avg # of iterations =  3.0

     negative rho (up, down):  2.877E-03 0.000E+00

     total cpu time spent up to now is       25.7 secs

     total energy              =    -808.37854253 Ry
     estimated scf accuracy    <       4.54813034 Ry

     iteration # 39     ecut=    30.00 Ry     beta= 0.70
     Davidson diagonalization with overlap

---- Real-time Memory Report at c_bands before calling an iterative solver
           490 MiB given to the printing process from OS
             0 MiB allocation reported by mallinfo(arena+hblkhd)
         74483 MiB available memory on the node where the printing process lives
------------------
     ethr =  1.04E-03,  avg # of iterations =  3.0

     negative rho (up, down):  2.873E-03 0.000E+00

     total cpu time spent up to now is       26.2 secs

     total energy              =    -808.37319299 Ry
     estimated scf accuracy    <       3.73582686 Ry

     iteration # 40     ecut=    30.00 Ry     beta= 0.70
     Davidson diagonalization with overlap

---- Real-time Memory Report at c_bands before calling an iterative solver
           490 MiB given to the printing process from OS
             0 MiB allocation reported by mallinfo(arena+hblkhd)
         74484 MiB available memory on the node where the printing process lives
------------------
     ethr =  1.04E-03,  avg # of iterations =  2.0

     negative rho (up, down):  2.874E-03 0.000E+00

     total cpu time spent up to now is       26.6 secs

     total energy              =    -808.37679980 Ry
     estimated scf accuracy    <       0.11578865 Ry

     iteration # 41     ecut=    30.00 Ry     beta= 0.70
     Davidson diagonalization with overlap

---- Real-time Memory Report at c_bands before calling an iterative solver
           490 MiB given to the printing process from OS
             0 MiB allocation reported by mallinfo(arena+hblkhd)
         74482 MiB available memory on the node where the printing process lives
------------------
     ethr =  1.84E-04,  avg # of iterations =  7.0

     negative rho (up, down):  2.877E-03 0.000E+00

     total cpu time spent up to now is       27.1 secs

     total energy              =    -808.37676769 Ry
     estimated scf accuracy    <       0.13194940 Ry

     iteration # 42     ecut=    30.00 Ry     beta= 0.70
     Davidson diagonalization with overlap

---- Real-time Memory Report at c_bands before calling an iterative solver
           490 MiB given to the printing process from OS
             0 MiB allocation reported by mallinfo(arena+hblkhd)
         74483 MiB available memory on the node where the printing process lives
------------------
     ethr =  1.84E-04,  avg # of iterations =  1.0

     negative rho (up, down):  2.876E-03 0.000E+00

     total cpu time spent up to now is       27.5 secs

     total energy              =    -808.37698092 Ry
     estimated scf accuracy    <       0.00150051 Ry

     iteration # 43     ecut=    30.00 Ry     beta= 0.70
     Davidson diagonalization with overlap

---- Real-time Memory Report at c_bands before calling an iterative solver
           490 MiB given to the printing process from OS
             0 MiB allocation reported by mallinfo(arena+hblkhd)
         74484 MiB available memory on the node where the printing process lives
------------------
     ethr =  2.38E-06,  avg # of iterations = 11.0

     negative rho (up, down):  2.876E-03 0.000E+00

     total cpu time spent up to now is       28.0 secs

     total energy              =    -808.37749793 Ry
     estimated scf accuracy    <       0.01110914 Ry

     iteration # 44     ecut=    30.00 Ry     beta= 0.70
     Davidson diagonalization with overlap

---- Real-time Memory Report at c_bands before calling an iterative solver
           490 MiB given to the printing process from OS
             0 MiB allocation reported by mallinfo(arena+hblkhd)
         74486 MiB available memory on the node where the printing process lives
------------------
     ethr =  2.38E-06,  avg # of iterations =  6.0

     negative rho (up, down):  2.874E-03 0.000E+00

     total cpu time spent up to now is       28.5 secs

     total energy              =    -808.37730796 Ry
     estimated scf accuracy    <       0.09459448 Ry

     iteration # 45     ecut=    30.00 Ry     beta= 0.70
     Davidson diagonalization with overlap

---- Real-time Memory Report at c_bands before calling an iterative solver
           490 MiB given to the printing process from OS
             0 MiB allocation reported by mallinfo(arena+hblkhd)
         74483 MiB available memory on the node where the printing process lives
------------------
     ethr =  2.38E-06,  avg # of iterations =  6.0

     negative rho (up, down):  2.874E-03 0.000E+00

     total cpu time spent up to now is       28.9 secs

     total energy              =    -808.37760126 Ry
     estimated scf accuracy    <       0.07446321 Ry

     iteration # 46     ecut=    30.00 Ry     beta= 0.70
     Davidson diagonalization with overlap

---- Real-time Memory Report at c_bands before calling an iterative solver
           490 MiB given to the printing process from OS
             0 MiB allocation reported by mallinfo(arena+hblkhd)
         74485 MiB available memory on the node where the printing process lives
------------------
     ethr =  2.38E-06,  avg # of iterations =  1.0

     negative rho (up, down):  2.869E-03 0.000E+00

     total cpu time spent up to now is       29.4 secs

     total energy              =    -808.37882268 Ry
     estimated scf accuracy    <       0.09223076 Ry

     iteration # 47     ecut=    30.00 Ry     beta= 0.70
     Davidson diagonalization with overlap

---- Real-time Memory Report at c_bands before calling an iterative solver
           490 MiB given to the printing process from OS
             0 MiB allocation reported by mallinfo(arena+hblkhd)
         74484 MiB available memory on the node where the printing process lives
------------------
     ethr =  2.38E-06,  avg # of iterations =  6.0

     negative rho (up, down):  2.871E-03 0.000E+00

     total cpu time spent up to now is       29.9 secs

     total energy              =    -808.37941074 Ry
     estimated scf accuracy    <       0.81179944 Ry

     iteration # 48     ecut=    30.00 Ry     beta= 0.70
     Davidson diagonalization with overlap

---- Real-time Memory Report at c_bands before calling an iterative solver
           490 MiB given to the printing process from OS
             0 MiB allocation reported by mallinfo(arena+hblkhd)
         74484 MiB available memory on the node where the printing process lives
------------------
     ethr =  2.38E-06,  avg # of iterations =  1.0

     negative rho (up, down):  2.869E-03 0.000E+00

     total cpu time spent up to now is       30.3 secs

     total energy              =    -808.37899485 Ry
     estimated scf accuracy    <       0.52054945 Ry

     iteration # 49     ecut=    30.00 Ry     beta= 0.70
     Davidson diagonalization with overlap

---- Real-time Memory Report at c_bands before calling an iterative solver
           490 MiB given to the printing process from OS
             0 MiB allocation reported by mallinfo(arena+hblkhd)
         74486 MiB available memory on the node where the printing process lives
------------------
     ethr =  2.38E-06,  avg # of iterations =  1.0

     negative rho (up, down):  2.869E-03 0.000E+00

     total cpu time spent up to now is       30.8 secs

     total energy              =    -808.37912201 Ry
     estimated scf accuracy    <       0.54160073 Ry

     iteration # 50     ecut=    30.00 Ry     beta= 0.70
     Davidson diagonalization with overlap

---- Real-time Memory Report at c_bands before calling an iterative solver
           490 MiB given to the printing process from OS
             0 MiB allocation reported by mallinfo(arena+hblkhd)
         74483 MiB available memory on the node where the printing process lives
------------------
     ethr =  2.38E-06,  avg # of iterations =  1.0

     negative rho (up, down):  2.876E-03 0.000E+00

     total cpu time spent up to now is       31.2 secs

     total energy              =    -808.37672023 Ry
     estimated scf accuracy    <       0.72869725 Ry

     iteration # 51     ecut=    30.00 Ry     beta= 0.70
     Davidson diagonalization with overlap

---- Real-time Memory Report at c_bands before calling an iterative solver
           490 MiB given to the printing process from OS
             0 MiB allocation reported by mallinfo(arena+hblkhd)
         74485 MiB available memory on the node where the printing process lives
------------------
     ethr =  2.38E-06,  avg # of iterations =  6.0

     negative rho (up, down):  2.879E-03 0.000E+00

     total cpu time spent up to now is       31.7 secs

     total energy              =    -808.37689767 Ry
     estimated scf accuracy    <       0.11797080 Ry

     iteration # 52     ecut=    30.00 Ry     beta= 0.70
     Davidson diagonalization with overlap

---- Real-time Memory Report at c_bands before calling an iterative solver
           490 MiB given to the printing process from OS
             0 MiB allocation reported by mallinfo(arena+hblkhd)
         74481 MiB available memory on the node where the printing process lives
------------------
     ethr =  2.38E-06,  avg # of iterations =  6.0

     negative rho (up, down):  2.880E-03 0.000E+00

     total cpu time spent up to now is       32.2 secs

     total energy              =    -808.37693785 Ry
     estimated scf accuracy    <       0.28041986 Ry

     iteration # 53     ecut=    30.00 Ry     beta= 0.70
     Davidson diagonalization with overlap

---- Real-time Memory Report at c_bands before calling an iterative solver
           490 MiB given to the printing process from OS
             0 MiB allocation reported by mallinfo(arena+hblkhd)
         74482 MiB available memory on the node where the printing process lives
------------------
     ethr =  2.38E-06,  avg # of iterations =  1.0

     negative rho (up, down):  2.878E-03 0.000E+00

     total cpu time spent up to now is       32.7 secs

     total energy              =    -808.37716814 Ry
     estimated scf accuracy    <       0.00034784 Ry

     iteration # 54     ecut=    30.00 Ry     beta= 0.70
     Davidson diagonalization with overlap

---- Real-time Memory Report at c_bands before calling an iterative solver
           490 MiB given to the printing process from OS
             0 MiB allocation reported by mallinfo(arena+hblkhd)
         74482 MiB available memory on the node where the printing process lives
------------------
     ethr =  5.52E-07,  avg # of iterations =  7.0

     negative rho (up, down):  2.878E-03 0.000E+00

     total cpu time spent up to now is       33.2 secs

     total energy              =    -808.37714785 Ry
     estimated scf accuracy    <       0.00187218 Ry

     iteration # 55     ecut=    30.00 Ry     beta= 0.70
     Davidson diagonalization with overlap

---- Real-time Memory Report at c_bands before calling an iterative solver
           490 MiB given to the printing process from OS
             0 MiB allocation reported by mallinfo(arena+hblkhd)
         74485 MiB available memory on the node where the printing process lives
------------------
     ethr =  5.52E-07,  avg # of iterations =  6.0

     negative rho (up, down):  2.878E-03 0.000E+00

     total cpu time spent up to now is       33.6 secs

     total energy              =    -808.37719156 Ry
     estimated scf accuracy    <       0.00646267 Ry

     iteration # 56     ecut=    30.00 Ry     beta= 0.70
     Davidson diagonalization with overlap

---- Real-time Memory Report at c_bands before calling an iterative solver
           490 MiB given to the printing process from OS
             0 MiB allocation reported by mallinfo(arena+hblkhd)
         74485 MiB available memory on the node where the printing process lives
------------------
     ethr =  5.52E-07,  avg # of iterations =  2.0

     negative rho (up, down):  2.878E-03 0.000E+00

     total cpu time spent up to now is       34.1 secs

     total energy              =    -808.37719622 Ry
     estimated scf accuracy    <       0.00337648 Ry

     iteration # 57     ecut=    30.00 Ry     beta= 0.70
     Davidson diagonalization with overlap

---- Real-time Memory Report at c_bands before calling an iterative solver
           490 MiB given to the printing process from OS
             0 MiB allocation reported by mallinfo(arena+hblkhd)
         74484 MiB available memory on the node where the printing process lives
------------------
     ethr =  5.52E-07,  avg # of iterations =  1.0

     negative rho (up, down):  2.878E-03 0.000E+00

     total cpu time spent up to now is       34.5 secs

     total energy              =    -808.37719684 Ry
     estimated scf accuracy    <       0.00112255 Ry

     iteration # 58     ecut=    30.00 Ry     beta= 0.70
     Davidson diagonalization with overlap

---- Real-time Memory Report at c_bands before calling an iterative solver
           490 MiB given to the printing process from OS
             0 MiB allocation reported by mallinfo(arena+hblkhd)
         74484 MiB available memory on the node where the printing process lives
------------------
     ethr =  5.52E-07,  avg # of iterations =  1.0

     negative rho (up, down):  2.878E-03 0.000E+00

     total cpu time spent up to now is       35.0 secs

     total energy              =    -808.37719629 Ry
     estimated scf accuracy    <       0.00065733 Ry

     iteration # 59     ecut=    30.00 Ry     beta= 0.70
     Davidson diagonalization with overlap

---- Real-time Memory Report at c_bands before calling an iterative solver
           490 MiB given to the printing process from OS
             0 MiB allocation reported by mallinfo(arena+hblkhd)
         74484 MiB available memory on the node where the printing process lives
------------------
     ethr =  5.52E-07,  avg # of iterations =  1.0

     negative rho (up, down):  2.878E-03 0.000E+00

     total cpu time spent up to now is       35.4 secs

     total energy              =    -808.37719806 Ry
     estimated scf accuracy    <       0.00094460 Ry

     iteration # 60     ecut=    30.00 Ry     beta= 0.70
     Davidson diagonalization with overlap

---- Real-time Memory Report at c_bands before calling an iterative solver
           490 MiB given to the printing process from OS
             0 MiB allocation reported by mallinfo(arena+hblkhd)
         74484 MiB available memory on the node where the printing process lives
------------------
     ethr =  5.52E-07,  avg # of iterations =  1.0

     negative rho (up, down):  2.878E-03 0.000E+00

     total cpu time spent up to now is       35.9 secs

     total energy              =    -808.37720111 Ry
     estimated scf accuracy    <       0.00008129 Ry

     iteration # 61     ecut=    30.00 Ry     beta= 0.70
     Davidson diagonalization with overlap

---- Real-time Memory Report at c_bands before calling an iterative solver
           490 MiB given to the printing process from OS
             0 MiB allocation reported by mallinfo(arena+hblkhd)
         74485 MiB available memory on the node where the printing process lives
------------------
     ethr =  1.29E-07,  avg # of iterations =  2.0

     negative rho (up, down):  2.878E-03 0.000E+00

     total cpu time spent up to now is       36.3 secs

     total energy              =    -808.37720156 Ry
     estimated scf accuracy    <       0.00001342 Ry

     iteration # 62     ecut=    30.00 Ry     beta= 0.70
     Davidson diagonalization with overlap

---- Real-time Memory Report at c_bands before calling an iterative solver
           490 MiB given to the printing process from OS
             0 MiB allocation reported by mallinfo(arena+hblkhd)
         74486 MiB available memory on the node where the printing process lives
------------------
     ethr =  2.13E-08,  avg # of iterations =  7.0

     negative rho (up, down):  2.878E-03 0.000E+00

     total cpu time spent up to now is       36.8 secs

     total energy              =    -808.37720202 Ry
     estimated scf accuracy    <       0.00031856 Ry

     iteration # 63     ecut=    30.00 Ry     beta= 0.70
     Davidson diagonalization with overlap

---- Real-time Memory Report at c_bands before calling an iterative solver
           490 MiB given to the printing process from OS
             0 MiB allocation reported by mallinfo(arena+hblkhd)
         74486 MiB available memory on the node where the printing process lives
------------------
     ethr =  2.13E-08,  avg # of iterations =  2.0

     negative rho (up, down):  2.878E-03 0.000E+00

     total cpu time spent up to now is       37.3 secs

     total energy              =    -808.37720336 Ry
     estimated scf accuracy    <       0.00001928 Ry

     iteration # 64     ecut=    30.00 Ry     beta= 0.70
     Davidson diagonalization with overlap

---- Real-time Memory Report at c_bands before calling an iterative solver
           490 MiB given to the printing process from OS
             0 MiB allocation reported by mallinfo(arena+hblkhd)
         74486 MiB available memory on the node where the printing process lives
------------------
     ethr =  2.13E-08,  avg # of iterations =  1.0

     negative rho (up, down):  2.878E-03 0.000E+00

     total cpu time spent up to now is       37.7 secs

     total energy              =    -808.37720328 Ry
     estimated scf accuracy    <       0.00003116 Ry

     iteration # 65     ecut=    30.00 Ry     beta= 0.70
     Davidson diagonalization with overlap

---- Real-time Memory Report at c_bands before calling an iterative solver
           490 MiB given to the printing process from OS
             0 MiB allocation reported by mallinfo(arena+hblkhd)
         74486 MiB available memory on the node where the printing process lives
------------------
     ethr =  2.13E-08,  avg # of iterations =  1.0

     negative rho (up, down):  2.878E-03 0.000E+00

     total cpu time spent up to now is       38.1 secs

     total energy              =    -808.37720321 Ry
     estimated scf accuracy    <       0.00004109 Ry

     iteration # 66     ecut=    30.00 Ry     beta= 0.70
     Davidson diagonalization with overlap

---- Real-time Memory Report at c_bands before calling an iterative solver
           490 MiB given to the printing process from OS
             0 MiB allocation reported by mallinfo(arena+hblkhd)
         74487 MiB available memory on the node where the printing process lives
------------------
     ethr =  2.13E-08,  avg # of iterations =  1.0

     negative rho (up, down):  2.878E-03 0.000E+00

     total cpu time spent up to now is       38.6 secs

     total energy              =    -808.37720314 Ry
     estimated scf accuracy    <       0.00002750 Ry

     iteration # 67     ecut=    30.00 Ry     beta= 0.70
     Davidson diagonalization with overlap

---- Real-time Memory Report at c_bands before calling an iterative solver
           490 MiB given to the printing process from OS
             0 MiB allocation reported by mallinfo(arena+hblkhd)
         74487 MiB available memory on the node where the printing process lives
------------------
     ethr =  2.13E-08,  avg # of iterations =  1.0

     negative rho (up, down):  2.878E-03 0.000E+00

     total cpu time spent up to now is       39.0 secs

     total energy              =    -808.37720176 Ry
     estimated scf accuracy    <       0.00002551 Ry

     iteration # 68     ecut=    30.00 Ry     beta= 0.70
     Davidson diagonalization with overlap

---- Real-time Memory Report at c_bands before calling an iterative solver
           490 MiB given to the printing process from OS
             0 MiB allocation reported by mallinfo(arena+hblkhd)
         74488 MiB available memory on the node where the printing process lives
------------------
     ethr =  2.13E-08,  avg # of iterations =  2.0

     negative rho (up, down):  2.878E-03 0.000E+00

     total cpu time spent up to now is       39.5 secs

     total energy              =    -808.37720085 Ry
     estimated scf accuracy    <       0.00020210 Ry

     iteration # 69     ecut=    30.00 Ry     beta= 0.70
     Davidson diagonalization with overlap

---- Real-time Memory Report at c_bands before calling an iterative solver
           490 MiB given to the printing process from OS
             0 MiB allocation reported by mallinfo(arena+hblkhd)
         74488 MiB available memory on the node where the printing process lives
------------------
     ethr =  2.13E-08,  avg # of iterations =  6.0

     negative rho (up, down):  2.878E-03 0.000E+00

     total cpu time spent up to now is       39.9 secs

     total energy              =    -808.37720249 Ry
     estimated scf accuracy    <       0.00013401 Ry

     iteration # 70     ecut=    30.00 Ry     beta= 0.70
     Davidson diagonalization with overlap

---- Real-time Memory Report at c_bands before calling an iterative solver
           490 MiB given to the printing process from OS
             0 MiB allocation reported by mallinfo(arena+hblkhd)
         74488 MiB available memory on the node where the printing process lives
------------------
     ethr =  2.13E-08,  avg # of iterations =  2.0

     negative rho (up, down):  2.878E-03 0.000E+00

     total cpu time spent up to now is       40.4 secs

     total energy              =    -808.37720256 Ry
     estimated scf accuracy    <       0.00002102 Ry

     iteration # 71     ecut=    30.00 Ry     beta= 0.70
     Davidson diagonalization with overlap

---- Real-time Memory Report at c_bands before calling an iterative solver
           490 MiB given to the printing process from OS
             0 MiB allocation reported by mallinfo(arena+hblkhd)
         74487 MiB available memory on the node where the printing process lives
------------------
     ethr =  2.13E-08,  avg # of iterations =  1.0

     negative rho (up, down):  2.878E-03 0.000E+00

     total cpu time spent up to now is       40.8 secs

     total energy              =    -808.37720213 Ry
     estimated scf accuracy    <       0.00000725 Ry

     iteration # 72     ecut=    30.00 Ry     beta= 0.70
     Davidson diagonalization with overlap

---- Real-time Memory Report at c_bands before calling an iterative solver
           490 MiB given to the printing process from OS
             0 MiB allocation reported by mallinfo(arena+hblkhd)
         74488 MiB available memory on the node where the printing process lives
------------------
     ethr =  1.15E-08,  avg # of iterations =  1.0

     negative rho (up, down):  2.878E-03 0.000E+00

     total cpu time spent up to now is       41.3 secs

     total energy              =    -808.37720213 Ry
     estimated scf accuracy    <       0.00000489 Ry

     iteration # 73     ecut=    30.00 Ry     beta= 0.70
     Davidson diagonalization with overlap

---- Real-time Memory Report at c_bands before calling an iterative solver
           490 MiB given to the printing process from OS
             0 MiB allocation reported by mallinfo(arena+hblkhd)
         74488 MiB available memory on the node where the printing process lives
------------------
     ethr =  7.76E-09,  avg # of iterations =  1.0

     negative rho (up, down):  2.878E-03 0.000E+00

     total cpu time spent up to now is       41.7 secs

     total energy              =    -808.37720184 Ry
     estimated scf accuracy    <       0.00000175 Ry

     iteration # 74     ecut=    30.00 Ry     beta= 0.70
     Davidson diagonalization with overlap

---- Real-time Memory Report at c_bands before calling an iterative solver
           490 MiB given to the printing process from OS
             0 MiB allocation reported by mallinfo(arena+hblkhd)
         74489 MiB available memory on the node where the printing process lives
------------------
     ethr =  2.78E-09,  avg # of iterations =  6.0

     negative rho (up, down):  2.878E-03 0.000E+00

     total cpu time spent up to now is       42.2 secs

     total energy              =    -808.37720214 Ry
     estimated scf accuracy    <       0.00000358 Ry

     iteration # 75     ecut=    30.00 Ry     beta= 0.70
     Davidson diagonalization with overlap

---- Real-time Memory Report at c_bands before calling an iterative solver
           490 MiB given to the printing process from OS
             0 MiB allocation reported by mallinfo(arena+hblkhd)
         74489 MiB available memory on the node where the printing process lives
------------------
     ethr =  2.78E-09,  avg # of iterations =  2.0

     negative rho (up, down):  2.878E-03 0.000E+00

     total cpu time spent up to now is       42.7 secs

     total energy              =    -808.37720216 Ry
     estimated scf accuracy    <       0.00000144 Ry

     iteration # 76     ecut=    30.00 Ry     beta= 0.70
     Davidson diagonalization with overlap

---- Real-time Memory Report at c_bands before calling an iterative solver
           490 MiB given to the printing process from OS
             0 MiB allocation reported by mallinfo(arena+hblkhd)
         74489 MiB available memory on the node where the printing process lives
------------------
     ethr =  2.29E-09,  avg # of iterations =  2.0

     negative rho (up, down):  2.878E-03 0.000E+00

     total cpu time spent up to now is       43.1 secs

     End of self-consistent calculation

          k = 0.0000 0.0000 0.0000 (  1043 PWs)   bands (ev):

   -42.6598 -42.5845 -42.3737 -40.4427 -19.1708 -18.9504 -18.8528 -18.8528
   -18.8004 -18.8004 -18.7673 -18.4800 -18.4799 -16.9680 -16.1415 -16.1415
     1.4885   1.8208   3.3549   3.8737   7.3459   8.3891   9.5812  10.6880
    10.6880  10.7011  10.7011  10.7603  12.9885  13.8267  14.2796  14.2796
    14.3209  14.3209  15.2655  15.2655  15.4018  15.4018

     occupation numbers 
     1.0000   1.0000   1.0000   1.0000   1.0000   1.0000   1.0000   1.0000
     1.0000   1.0000   1.0000   1.0000   1.0000   1.0000   1.0000   1.0000
     1.0000   1.0000   1.0000   1.0000   1.0000   1.0000   1.0000   1.0000
     1.0000   1.0000   1.0000   1.0000   1.0000   1.0000   0.7505   0.7503
    -0.0004  -0.0004  -0.0000  -0.0000  -0.0000  -0.0000

     the Fermi energy is    14.2838 ev

!    total energy              =    -808.37720126 Ry
     estimated scf accuracy    <       0.00000096 Ry
     smearing contrib. (-TS)   =      -0.00040752 Ry
     internal energy E=F+TS    =    -808.37679374 Ry

     The total energy is F=E-TS. E is the sum of the following terms:
     one-electron contribution =    -285.80787575 Ry
     hartree contribution      =     172.34666036 Ry
     xc contribution           =     -98.14395192 Ry
     ewald contribution        =    -306.60187321 Ry
     one-center paw contrib.   =    -290.16975323 Ry
      -> PAW hartree energy AE =      88.82706860 Ry
      -> PAW hartree energy PS =     -88.42713520 Ry
      -> PAW xc energy AE      =    -329.49670725 Ry
      -> PAW xc energy PS      =      38.92702062 Ry
      -> total E_H with PAW    =     172.74659376 Ry
      -> total E_XC with PAW   =    -388.71363855 Ry

     convergence has been achieved in  76 iterations

     negative rho (up, down):  2.878E-03 0.000E+00

     Forces acting on atoms (cartesian axes, Ry/au):

     atom    1 type  1   force =     0.00000000   -0.00000000   -0.29326969
     atom    2 type  1   force =     0.00000000    0.00000000    0.19438422
     atom    3 type  1   force =     0.00000000    0.00000000   -0.19561379
     atom    4 type  2   force =     0.00000000    0.00000000    0.25897781
     atom    5 type  3   force =     0.00000000    0.00000000    0.00062776
     atom    6 type  3   force =     0.00000000    0.00000000   -0.02166495
     atom    7 type  4   force =     0.00000000    0.00000000    0.05840119
     atom    8 type  4   force =     0.00000000    0.00000000   -0.00184254
     The non-local contrib.  to forces
     atom    1 type  1   force =     0.00000000   -0.00000000   -0.20286403
     atom    2 type  1   force =     0.00000000    0.00000000    0.22588769
     atom    3 type  1   force =     0.00000000    0.00000000   -0.22104550
     atom    4 type  2   force =     0.00000000    0.00000000    0.31511050
     atom    5 type  3   force =     0.00000000   -0.00000000    0.00151872
     atom    6 type  3   force =     0.00000000    0.00000000   -0.01056088
     atom    7 type  4   force =     0.00000000    0.00000000    0.14392885
     atom    8 type  4   force =    -0.00000000   -0.00000000   -0.00258519
     The ionic contribution  to forces
     atom    1 type  1   force =     0.00000790   -0.00000456   26.71096289
     atom    2 type  1   force =     0.00000819   -0.00000473  -25.66801708
     atom    3 type  1   force =    -0.00000821    0.00000474   23.65742932
     atom    4 type  2   force =    -0.00000699    0.00000404  -25.16061034
     atom    5 type  3   force =    -0.00000156    0.00000090    0.11090440
     atom    6 type  3   force =     0.00000168   -0.00000097   -0.41998560
     atom    7 type  4   force =    -0.00000100    0.00000057    1.10507349
     atom    8 type  4   force =    -0.00000002    0.00000001   -0.33575709
     The local contribution  to forces
     atom    1 type  1   force =    -0.00002054    0.00000840  -26.81606640
     atom    2 type  1   force =     0.00000639    0.00000114   25.65277863
     atom    3 type  1   force =    -0.00000137   -0.00001743  -23.65280869
     atom    4 type  2   force =    -0.00001190    0.00000821   25.13218099
     atom    5 type  3   force =     0.00000069   -0.00000200   -0.11138273
     atom    6 type  3   force =     0.00000083    0.00000235    0.40804859
     atom    7 type  4   force =    -0.00000337   -0.00000265   -1.18753308
     atom    8 type  4   force =     0.00000633   -0.00000612    0.33484789
     The core correction contribution to forces
     atom    1 type  1   force =    -0.00000033    0.00000024    0.01512618
     atom    2 type  1   force =     0.00000175    0.00000042   -0.01906396
     atom    3 type  1   force =    -0.00000094   -0.00000052    0.01885144
     atom    4 type  2   force =     0.00000001    0.00000041   -0.02637751
     atom    5 type  3   force =    -0.00000001   -0.00000008   -0.00009734
     atom    6 type  3   force =     0.00000011    0.00000011    0.00145231
     atom    7 type  4   force =     0.00000007   -0.00000001   -0.00296498
     atom    8 type  4   force =    -0.00000005   -0.00000003    0.00002686
     The Hubbard contrib.    to forces
     atom    1 type  1   force =     0.00000000    0.00000000    0.00000000
     atom    2 type  1   force =     0.00000000    0.00000000    0.00000000
     atom    3 type  1   force =     0.00000000    0.00000000    0.00000000
     atom    4 type  2   force =     0.00000000    0.00000000    0.00000000
     atom    5 type  3   force =     0.00000000    0.00000000    0.00000000
     atom    6 type  3   force =     0.00000000    0.00000000    0.00000000
     atom    7 type  4   force =     0.00000000    0.00000000    0.00000000
     atom    8 type  4   force =     0.00000000    0.00000000    0.00000000
     The SCF correction term to forces
     atom    1 type  1   force =     0.00000994   -0.00000210   -0.00036599
     atom    2 type  1   force =    -0.00000827    0.00000684    0.00286128
     atom    3 type  1   force =     0.00000007    0.00000739    0.00202198
     atom    4 type  2   force =     0.00001550   -0.00000512   -0.00126349
     atom    5 type  3   force =     0.00000013    0.00000014   -0.00025293
     atom    6 type  3   force =    -0.00000043   -0.00000030   -0.00055703
     atom    7 type  4   force =     0.00000398    0.00000129   -0.00004076
     atom    8 type  4   force =    -0.00000431    0.00000309    0.00168734

     Total force =     0.482712     Total SCF correction =     0.004151


     Computing stress (Cartesian axis) and pressure


     negative rho (up, down):  2.878E-03 0.000E+00
          total   stress  (Ry/bohr**3)                   (kbar)     P=       46.53
  -0.00089781  -0.00000000   0.00000000         -132.07       -0.00        0.00
  -0.00000000  -0.00089781   0.00000000           -0.00     -132.07        0.00
   0.00000000   0.00000000   0.00274444            0.00        0.00      403.72

     kinetic stress (kbar)  17802.51      0.00      0.00
                                0.00  17802.52      0.00
                                0.00      0.00  17638.11

     local   stress (kbar) -32170.85      0.01      0.12
                                0.01 -32170.84      0.04
                                0.12      0.04  32792.71

     nonloc. stress (kbar)   6352.68      0.00      0.00
                                0.00   6352.68      0.00
                                0.00      0.00   6726.12

     hartree stress (kbar)  21527.93     -0.01     -0.04
                               -0.01  21527.93     -0.01
                               -0.04     -0.01  -9803.67

     exc-cor stress (kbar)    838.10     -0.00     -0.00
                               -0.00    838.10     -0.00
                               -0.00     -0.00    825.61

     corecor stress (kbar)  -5854.55     -0.00      0.00
                               -0.00  -5854.55      0.00
                                0.00      0.00  -5875.87

     ewald   stress (kbar)  -8627.91     -0.00     -0.00
                               -0.00  -8627.91      0.00
                               -0.00      0.00 -41899.28

     hubbard stress (kbar)      0.00      0.00      0.00
                                0.00      0.00      0.00
                                0.00      0.00      0.00

     DFT-D   stress (kbar)      0.00      0.00      0.00
                                0.00      0.00      0.00
                                0.00      0.00      0.00

     XDM     stress (kbar)      0.00      0.00      0.00
                                0.00      0.00      0.00
                                0.00      0.00      0.00

     dft-nl  stress (kbar)      0.00      0.00      0.00
                                0.00      0.00      0.00
                                0.00      0.00      0.00

     TS-vdW  stress (kbar)      0.00      0.00      0.00
                                0.00      0.00      0.00
                                0.00      0.00      0.00


                                0.00      0.00      0.00
                                0.00      0.00      0.00


                                0.00      0.00      0.00


     Writing all to output data dir new_calculations/myprefix.save/
 
     init_run     :    130.08s CPU      5.33s WALL (       1 calls)
     electrons    :   1134.28s CPU     37.52s WALL (       1 calls)
     forces       :      3.03s CPU      0.10s WALL (       1 calls)
     stress       :      8.69s CPU      0.28s WALL (       1 calls)

     Called by init_run:
     wfcinit      :     22.63s CPU      0.73s WALL (       1 calls)
     wfcinit:atom :      0.02s CPU      0.00s WALL (       1 calls)
     wfcinit:wfcr :     22.49s CPU      0.73s WALL (       1 calls)
     potinit      :     55.12s CPU      1.91s WALL (       1 calls)
     hinit0       :     46.10s CPU      2.45s WALL (       1 calls)

     Called by electrons:
     c_bands      :    276.30s CPU      8.87s WALL (      76 calls)
     sum_band     :    195.30s CPU      6.66s WALL (      76 calls)
     v_of_rho     :     26.66s CPU      0.88s WALL (      77 calls)
     v_h          :      2.64s CPU      0.09s WALL (      77 calls)
     v_xc         :     24.39s CPU      0.81s WALL (      79 calls)
     newd         :    153.89s CPU      5.08s WALL (      77 calls)
     PAW_pot      :    469.56s CPU     15.62s WALL (      77 calls)
     mix_rho      :     10.73s CPU      0.35s WALL (      76 calls)

     Called by c_bands:
     init_us_2    :      1.54s CPU      0.05s WALL (     153 calls)
     init_us_2:cp :      1.32s CPU      0.05s WALL (     153 calls)
     regterg      :    268.17s CPU      8.60s WALL (      77 calls)

     Called by sum_band:
     sum_band:wei :      0.27s CPU      0.01s WALL (      76 calls)
     sum_band:loo :     46.16s CPU      1.48s WALL (      76 calls)
     sum_band:buf :      0.05s CPU      0.00s WALL (      76 calls)
     sum_band:ini :      0.87s CPU      0.03s WALL (      76 calls)
     sum_band:cal :      0.88s CPU      0.03s WALL (      76 calls)
     sum_band:bec :      0.22s CPU      0.01s WALL (      76 calls)
     addusdens    :    143.36s CPU      4.98s WALL (      76 calls)
     addusd:skk   :      0.56s CPU      0.02s WALL (     304 calls)
     addusd:dgemm :     13.42s CPU      0.79s WALL (     304 calls)
     addusd:qvan2 :    126.55s CPU      4.07s WALL (     304 calls)

     Called by *egterg:
     rdiaghg      :     18.10s CPU      0.60s WALL (     368 calls)
     regterg:over :      0.92s CPU      0.03s WALL (     291 calls)
     regterg:upda :      1.52s CPU      0.05s WALL (     291 calls)
     regterg:last :      3.00s CPU      0.10s WALL (     161 calls)
     h_psi        :    260.02s CPU      8.31s WALL (     369 calls)
     s_psi        :      0.60s CPU      0.02s WALL (     369 calls)
     g_psi        :      0.32s CPU      0.01s WALL (     291 calls)

     Called by h_psi:
     h_psi:calbec :      1.70s CPU      0.06s WALL (     369 calls)
     vloc_psi     :    255.53s CPU      8.17s WALL (     369 calls)
     add_vuspsi   :      0.93s CPU      0.03s WALL (     369 calls)

     General routines
     calbec       :      2.04s CPU      0.07s WALL (     450 calls)
     fft          :     35.72s CPU      1.19s WALL (     865 calls)
     ffts         :     48.23s CPU      1.68s WALL (     153 calls)
     fftw         :    251.90s CPU      8.03s WALL (    9212 calls)
     interpolate  :     50.74s CPU      1.76s WALL (      77 calls)
 
     Parallel routines

     PAW routines
     PAW_pot      :    469.56s CPU     15.62s WALL (      77 calls)
     PAW_symme    :      0.90s CPU      0.03s WALL (     153 calls)
 
     PWSCF        :  21m27.44s CPU     44.10s WALL

 
   This run was terminated on:  16: 0:53  20May2023            

=------------------------------------------------------------------------------=
   JOB DONE.
=------------------------------------------------------------------------------=
