
     Program PWSCF v.7.0 starts on 20May2023 at 10:27:18 

     This program is part of the open-source Quantum ESPRESSO suite
     for quantum simulation of materials; please cite
         "P. Giannozzi et al., J. Phys.:Condens. Matter 21 395502 (2009);
         "P. Giannozzi et al., J. Phys.:Condens. Matter 29 465901 (2017);
         "P. Giannozzi et al., J. Chem. Phys. 152 154105 (2020);
          URL http://www.quantum-espresso.org", 
     in publications or presentations arising from this work. More details at
     http://www.quantum-espresso.org/quote

     Parallel version (MPI & OpenMP), running on      32 processor cores
     Number of MPI processes:                 1
     Threads/MPI process:                    32

     MPI processes distributed on     1 nodes
     170446 MiB available memory on the printing compute node when the environment starts
 
     Reading input from espresso_9331.pwi
Warning: card &CELL ignored
Warning: card / ignored

     Current dimensions of program PWSCF are:
     Max number of different atomic species (ntypx) = 10
     Max number of k-points (npk) =  40000
     Max angular momentum in pseudopotentials (lmaxx) =  4

     gamma-point specific algorithms are used

     Subspace diagonalization in iterative solution of the eigenvalue problem:
     a serial algorithm will be used

 
     G-vector sticks info
     --------------------
     sticks:   dense  smooth     PW     G-vecs:    dense   smooth      PW
     Sum        1069     547    139               172261    60855    7549
 
     Using Slab Decomposition
 


     bravais-lattice index     =            0
     lattice parameter (alat)  =       8.0673  a.u.
     unit-cell volume          =    2744.9407 (a.u.)^3
     number of atoms/cell      =           15
     number of atomic types    =            3
     number of electrons       =       155.00
     number of Kohn-Sham states=           94
     kinetic-energy cutoff     =      30.0000  Ry
     charge density cutoff     =     240.0000  Ry
     scf convergence threshold =      1.0E-06
     mixing beta               =       0.7000
     number of iterations used =            8  plain     mixing
     Exchange-correlation= PBE
                           (   1   4   3   4   0   0   0)

     celldm(1)=   8.067323  celldm(2)=   0.000000  celldm(3)=   0.000000
     celldm(4)=   0.000000  celldm(5)=   0.000000  celldm(6)=   0.000000

     crystal axes: (cart. coord. in units of alat)
               a(1) = (   1.000000   0.000000   0.000000 )  
               a(2) = (   0.495792   0.868442   0.000000 )  
               a(3) = (  -0.078619  -0.045645   6.020105 )  

     reciprocal axes: (cart. coord. in units 2 pi/alat)
               b(1) = (  1.000000 -0.570898  0.008731 )  
               b(2) = (  0.000000  1.151488  0.008731 )  
               b(3) = (  0.000000  0.000000  0.166110 )  


     PseudoPot. # 1 for Ag read from file:
     /home/pragov/projects/rrg-bengioy-ad/pragov/crystal_structure_design/SSSP/Ag_ONCV_PBE-1.0.oncvpsp.upf
     MD5 check sum: 94f47bd0669c641108e45594df92fabc
     Pseudo is Norm-conserving, Zval = 19.0
     Generated using ONCVPSP code by D. R. Hamann
     Using radial grid of 1398 points,  6 beta functions with: 
                l(1) =   0
                l(2) =   0
                l(3) =   1
                l(4) =   1
                l(5) =   2
                l(6) =   2

     PseudoPot. # 2 for Te read from file:
     /home/pragov/projects/rrg-bengioy-ad/pragov/crystal_structure_design/SSSP/Te_pbe_v1.uspp.F.UPF
     MD5 check sum: c319670d6894cc26e93307826a071b75
     Pseudo is Ultrasoft + core correction, Zval =  6.0
     Generated by new atomic code, or converted to UPF format
     Using radial grid of  891 points,  5 beta functions with: 
                l(1) =   0
                l(2) =   0
                l(3) =   1
                l(4) =   1
                l(5) =   2
     Q(r) pseudized with  6 coefficients,  rinner =    1.800   1.800   1.800
                                                       1.800   1.800

     PseudoPot. # 3 for Au read from file:
     /home/pragov/projects/rrg-bengioy-ad/pragov/crystal_structure_design/SSSP/Au_ONCV_PBE-1.0.oncvpsp.upf
     MD5 check sum: d14007822ba0e19f0206237467fc06c2
     Pseudo is Norm-conserving, Zval = 19.0
     Generated using ONCVPSP code by D. R. Hamann
     Using radial grid of 1278 points,  8 beta functions with: 
                l(1) =   0
                l(2) =   0
                l(3) =   1
                l(4) =   1
                l(5) =   2
                l(6) =   2
                l(7) =   3
                l(8) =   3

     atomic species   valence    mass     pseudopotential
        Ag            19.00   107.86820     Ag( 1.00)
        Te             6.00   127.60000     Te( 1.00)
        Au            19.00   196.96657     Au( 1.00)

     No symmetry found


                                    s                        frac. trans.

      isym =  1     identity                                     

 cryst.   s( 1) = (     1          0          0      )
                  (     0          1          0      )
                  (     0          0          1      )

 cart.    s( 1) = (  1.0000000  0.0000000  0.0000000 )
                  (  0.0000000  1.0000000 -0.0000000 )
                  (  0.0000000  0.0000000  1.0000000 )


   Cartesian axes

     site n.     atom                  positions (alat units)
         1           Ag  tau(   1) = (  -0.0628948  -0.0365161   4.8160836  )
         2           Te  tau(   2) = (   1.0226757   0.5937553   0.3476189  )
         3           Te  tau(   3) = (   1.0055817   0.5838307   1.5526813  )
         4           Te  tau(   4) = (   0.9905465   0.5751014   2.7554079  )
         5           Te  tau(   5) = (   0.9764834   0.5669365   3.9633057  )
         6           Te  tau(   6) = (   0.9575015   0.5559158   5.1718176  )
         7           Te  tau(   7) = (   0.4580739   0.2659531   0.8566549  )
         8           Te  tau(   8) = (   0.4430387   0.2572238   2.0593814  )
         9           Te  tau(   9) = (   0.4259447   0.2472992   3.2644438  )
        10           Te  tau(  10) = (   0.4125003   0.2394936   4.4603496  )
        11           Te  tau(  11) = (   0.3935185   0.2284729   5.6688615  )
        12           Au  tau(  12) = (   1.4957176   0.8683987   0.0006201  )
        13           Au  tau(  13) = (   1.4798696   0.8591974   1.2035092  )
        14           Au  tau(  14) = (  -0.0312492  -0.0181430   2.4085535  )
        15           Au  tau(  15) = (  -0.0470972  -0.0273442   3.6114426  )

   Crystallographic axes

     site n.     atom                  positions (cryst. coord.)
         1           Ag  tau(   1) = ( -0.0000000 -0.0000000  0.8000000  )
         2           Te  tau(   2) = (  0.6867370  0.6867370  0.0577430  )
         3           Te  tau(   3) = (  0.6858300  0.6858300  0.2579160  )
         4           Te  tau(   4) = (  0.6862790  0.6862790  0.4577010  )
         5           Te  tau(   5) = (  0.6874230  0.6874230  0.6583450  )
         6           Te  tau(   6) = (  0.6852840  0.6852840  0.8590910  )
         7           Te  tau(   7) = (  0.3137210  0.3137210  0.1422990  )
         8           Te  tau(   8) = (  0.3141700  0.3141700  0.3420840  )
         9           Te  tau(   9) = (  0.3132630  0.3132630  0.5422570  )
        10           Te  tau(  10) = (  0.3147160  0.3147160  0.7409090  )
        11           Te  tau(  11) = (  0.3125770  0.3125770  0.9416550  )
        12           Au  tau(  12) = (  0.9999560  0.9999560  0.0001030  )
        13           Au  tau(  13) = (  0.9998630  0.9998630  0.1999150  )
        14           Au  tau(  14) = (  0.0001370  0.0001370  0.4000850  )
        15           Au  tau(  15) = (  0.0000440  0.0000440  0.5998970  )

     number of k points=     1  Methfessel-Paxton smearing, width (Ry)=  0.0010
                       cart. coord. in units 2pi/alat
        k(    1) = (   0.0000000   0.0000000   0.0000000), wk =   2.0000000

                       cryst. coord.
        k(    1) = (   0.0000000   0.0000000   0.0000000), wk =   2.0000000

     Dense  grid:    86131 G-vectors     FFT dimensions: (  40,  40, 240)

     Smooth grid:    30428 G-vectors     FFT dimensions: (  30,  30, 180)

     Dynamical RAM for                 wfc:       5.46 MB

     Dynamical RAM for     wfc (w. buffer):       5.46 MB

     Dynamical RAM for           str. fact:       3.94 MB

     Dynamical RAM for           local pot:       0.00 MB

     Dynamical RAM for          nlocal pot:      16.04 MB

     Dynamical RAM for                qrad:       8.96 MB

     Dynamical RAM for          rho,v,vnew:      12.73 MB

     Dynamical RAM for               rhoin:       4.24 MB

     Dynamical RAM for            rho*nmix:      21.03 MB

     Dynamical RAM for           G-vectors:       5.16 MB

     Dynamical RAM for          h,s,v(r/c):       0.81 MB

     Dynamical RAM for          <psi|beta>:       0.20 MB

     Dynamical RAM for                 psi:      10.92 MB

     Dynamical RAM for                hpsi:      10.92 MB

     Dynamical RAM for                spsi:      10.92 MB

     Dynamical RAM for      wfcinit/wfcrot:      11.13 MB

     Dynamical RAM for           addusdens:     168.22 MB

     Dynamical RAM for          addusforce:     192.56 MB

     Dynamical RAM for         addusstress:     190.57 MB

     Estimated static dynamical RAM per process >      76.44 MB

     Estimated max dynamical RAM per process >     290.03 MB

     Initial potential from superposition of free atoms

     starting charge     154.9972, renormalised to     155.0000
     Starting wfcs are   90 randomized atomic wfcs +    4 random wfcs

     total cpu time spent up to now is       17.3 secs

     Self-consistent Calculation

     iteration #  1     ecut=    30.00 Ry     beta= 0.70
     Davidson diagonalization with overlap

---- Real-time Memory Report at c_bands before calling an iterative solver
           589 MiB given to the printing process from OS
             0 MiB allocation reported by mallinfo(arena+hblkhd)
        170156 MiB available memory on the node where the printing process lives
------------------
     ethr =  1.00E-02,  avg # of iterations =  5.0

     total cpu time spent up to now is       21.0 secs

     total energy              =   -1645.47714047 Ry
     estimated scf accuracy    <       1.91189636 Ry

     iteration #  2     ecut=    30.00 Ry     beta= 0.70
     Davidson diagonalization with overlap

---- Real-time Memory Report at c_bands before calling an iterative solver
           661 MiB given to the printing process from OS
             0 MiB allocation reported by mallinfo(arena+hblkhd)
        170130 MiB available memory on the node where the printing process lives
------------------
     ethr =  1.23E-03,  avg # of iterations =  8.0

     total cpu time spent up to now is       27.2 secs

     total energy              =   -1625.47799252 Ry
     estimated scf accuracy    <    1643.16327886 Ry

     iteration #  3     ecut=    30.00 Ry     beta= 0.70
     Davidson diagonalization with overlap

---- Real-time Memory Report at c_bands before calling an iterative solver
           665 MiB given to the printing process from OS
             0 MiB allocation reported by mallinfo(arena+hblkhd)
        170151 MiB available memory on the node where the printing process lives
------------------
     ethr =  1.23E-03,  avg # of iterations = 13.0

     total cpu time spent up to now is       31.2 secs

     total energy              =   -1643.74404828 Ry
     estimated scf accuracy    <      61.78207110 Ry

     iteration #  4     ecut=    30.00 Ry     beta= 0.70
     Davidson diagonalization with overlap

---- Real-time Memory Report at c_bands before calling an iterative solver
           665 MiB given to the printing process from OS
             0 MiB allocation reported by mallinfo(arena+hblkhd)
        170151 MiB available memory on the node where the printing process lives
------------------
     ethr =  1.23E-03,  avg # of iterations =  8.0

     total cpu time spent up to now is       32.4 secs

     total energy              =   -1645.79976837 Ry
     estimated scf accuracy    <      28.95952971 Ry

     iteration #  5     ecut=    30.00 Ry     beta= 0.70
     Davidson diagonalization with overlap

---- Real-time Memory Report at c_bands before calling an iterative solver
           665 MiB given to the printing process from OS
             0 MiB allocation reported by mallinfo(arena+hblkhd)
        170152 MiB available memory on the node where the printing process lives
------------------
     ethr =  1.23E-03,  avg # of iterations =  5.0

     total cpu time spent up to now is       33.4 secs

     total energy              =   -1645.39978239 Ry
     estimated scf accuracy    <     121.60233577 Ry

     iteration #  6     ecut=    30.00 Ry     beta= 0.70
     Davidson diagonalization with overlap

---- Real-time Memory Report at c_bands before calling an iterative solver
           665 MiB given to the printing process from OS
             0 MiB allocation reported by mallinfo(arena+hblkhd)
        170149 MiB available memory on the node where the printing process lives
------------------
     ethr =  1.23E-03,  avg # of iterations =  3.0

     total cpu time spent up to now is       34.4 secs

     total energy              =   -1646.69675249 Ry
     estimated scf accuracy    <       3.28263643 Ry

     iteration #  7     ecut=    30.00 Ry     beta= 0.70
     Davidson diagonalization with overlap

---- Real-time Memory Report at c_bands before calling an iterative solver
           665 MiB given to the printing process from OS
             0 MiB allocation reported by mallinfo(arena+hblkhd)
        170150 MiB available memory on the node where the printing process lives
------------------
     ethr =  1.23E-03,  avg # of iterations =  2.0

     total cpu time spent up to now is       35.4 secs

     total energy              =   -1646.82038728 Ry
     estimated scf accuracy    <       0.87088616 Ry

     iteration #  8     ecut=    30.00 Ry     beta= 0.70
     Davidson diagonalization with overlap

---- Real-time Memory Report at c_bands before calling an iterative solver
           667 MiB given to the printing process from OS
             0 MiB allocation reported by mallinfo(arena+hblkhd)
        170147 MiB available memory on the node where the printing process lives
------------------
     ethr =  5.62E-04,  avg # of iterations =  2.0

     total cpu time spent up to now is       37.9 secs

     total energy              =   -1646.77187242 Ry
     estimated scf accuracy    <       4.23710096 Ry

     iteration #  9     ecut=    30.00 Ry     beta= 0.70
     Davidson diagonalization with overlap

---- Real-time Memory Report at c_bands before calling an iterative solver
           668 MiB given to the printing process from OS
             0 MiB allocation reported by mallinfo(arena+hblkhd)
        170149 MiB available memory on the node where the printing process lives
------------------
     ethr =  5.62E-04,  avg # of iterations =  1.0

     total cpu time spent up to now is       40.6 secs

     total energy              =   -1646.85431625 Ry
     estimated scf accuracy    <       0.93827303 Ry

     iteration # 10     ecut=    30.00 Ry     beta= 0.70
     Davidson diagonalization with overlap

---- Real-time Memory Report at c_bands before calling an iterative solver
           669 MiB given to the printing process from OS
             0 MiB allocation reported by mallinfo(arena+hblkhd)
        170148 MiB available memory on the node where the printing process lives
------------------
     ethr =  5.62E-04,  avg # of iterations =  1.0

     total cpu time spent up to now is       43.1 secs

     total energy              =   -1646.88228888 Ry
     estimated scf accuracy    <       0.10707551 Ry

     iteration # 11     ecut=    30.00 Ry     beta= 0.70
     Davidson diagonalization with overlap

---- Real-time Memory Report at c_bands before calling an iterative solver
           669 MiB given to the printing process from OS
             0 MiB allocation reported by mallinfo(arena+hblkhd)
        170150 MiB available memory on the node where the printing process lives
------------------
     ethr =  6.91E-05,  avg # of iterations =  3.0

     total cpu time spent up to now is       44.8 secs

     total energy              =   -1646.87689138 Ry
     estimated scf accuracy    <       0.32938217 Ry

     iteration # 12     ecut=    30.00 Ry     beta= 0.70
     Davidson diagonalization with overlap

---- Real-time Memory Report at c_bands before calling an iterative solver
           669 MiB given to the printing process from OS
             0 MiB allocation reported by mallinfo(arena+hblkhd)
        170152 MiB available memory on the node where the printing process lives
------------------
     ethr =  6.91E-05,  avg # of iterations =  8.0

     total cpu time spent up to now is       45.8 secs

     total energy              =   -1646.84045278 Ry
     estimated scf accuracy    <       5.21407516 Ry

     iteration # 13     ecut=    30.00 Ry     beta= 0.70
     Davidson diagonalization with overlap

---- Real-time Memory Report at c_bands before calling an iterative solver
           669 MiB given to the printing process from OS
             0 MiB allocation reported by mallinfo(arena+hblkhd)
        170153 MiB available memory on the node where the printing process lives
------------------
     ethr =  6.91E-05,  avg # of iterations =  8.0

     total cpu time spent up to now is       46.8 secs

     total energy              =   -1646.87721591 Ry
     estimated scf accuracy    <       0.39451962 Ry

     iteration # 14     ecut=    30.00 Ry     beta= 0.70
     Davidson diagonalization with overlap

---- Real-time Memory Report at c_bands before calling an iterative solver
           669 MiB given to the printing process from OS
             0 MiB allocation reported by mallinfo(arena+hblkhd)
        170155 MiB available memory on the node where the printing process lives
------------------
     ethr =  6.91E-05,  avg # of iterations =  3.0

     total cpu time spent up to now is       47.7 secs

     total energy              =   -1646.87239349 Ry
     estimated scf accuracy    <       0.96083954 Ry

     iteration # 15     ecut=    30.00 Ry     beta= 0.70
     Davidson diagonalization with overlap

---- Real-time Memory Report at c_bands before calling an iterative solver
           669 MiB given to the printing process from OS
             0 MiB allocation reported by mallinfo(arena+hblkhd)
        170155 MiB available memory on the node where the printing process lives
------------------
     ethr =  6.91E-05,  avg # of iterations =  2.0

     total cpu time spent up to now is       48.7 secs

     total energy              =   -1646.87668368 Ry
     estimated scf accuracy    <       1.68628131 Ry

     iteration # 16     ecut=    30.00 Ry     beta= 0.70
     Davidson diagonalization with overlap

---- Real-time Memory Report at c_bands before calling an iterative solver
           669 MiB given to the printing process from OS
             0 MiB allocation reported by mallinfo(arena+hblkhd)
        170156 MiB available memory on the node where the printing process lives
------------------
     ethr =  6.91E-05,  avg # of iterations =  1.0

     total cpu time spent up to now is       49.5 secs

     total energy              =   -1646.89126949 Ry
     estimated scf accuracy    <       0.02312129 Ry

     iteration # 17     ecut=    30.00 Ry     beta= 0.70
     Davidson diagonalization with overlap

---- Real-time Memory Report at c_bands before calling an iterative solver
           669 MiB given to the printing process from OS
             0 MiB allocation reported by mallinfo(arena+hblkhd)
        170157 MiB available memory on the node where the printing process lives
------------------
     ethr =  1.49E-05,  avg # of iterations =  2.0

     total cpu time spent up to now is       50.4 secs

     total energy              =   -1646.89129116 Ry
     estimated scf accuracy    <       0.01502728 Ry

     iteration # 18     ecut=    30.00 Ry     beta= 0.70
     Davidson diagonalization with overlap

---- Real-time Memory Report at c_bands before calling an iterative solver
           669 MiB given to the printing process from OS
             0 MiB allocation reported by mallinfo(arena+hblkhd)
        170157 MiB available memory on the node where the printing process lives
------------------
     ethr =  9.70E-06,  avg # of iterations =  1.0

     total cpu time spent up to now is       51.3 secs

     total energy              =   -1646.89144594 Ry
     estimated scf accuracy    <       0.01161493 Ry

     iteration # 19     ecut=    30.00 Ry     beta= 0.70
     Davidson diagonalization with overlap

---- Real-time Memory Report at c_bands before calling an iterative solver
           669 MiB given to the printing process from OS
             0 MiB allocation reported by mallinfo(arena+hblkhd)
        170158 MiB available memory on the node where the printing process lives
------------------
     ethr =  7.49E-06,  avg # of iterations =  1.0

     total cpu time spent up to now is       52.2 secs

     total energy              =   -1646.89137742 Ry
     estimated scf accuracy    <       0.00422793 Ry

     iteration # 20     ecut=    30.00 Ry     beta= 0.70
     Davidson diagonalization with overlap

---- Real-time Memory Report at c_bands before calling an iterative solver
           669 MiB given to the printing process from OS
             0 MiB allocation reported by mallinfo(arena+hblkhd)
        170157 MiB available memory on the node where the printing process lives
------------------
     ethr =  2.73E-06,  avg # of iterations =  2.0

     total cpu time spent up to now is       53.2 secs

     total energy              =   -1646.89124260 Ry
     estimated scf accuracy    <       0.01647407 Ry

     iteration # 21     ecut=    30.00 Ry     beta= 0.70
     Davidson diagonalization with overlap

---- Real-time Memory Report at c_bands before calling an iterative solver
           669 MiB given to the printing process from OS
             0 MiB allocation reported by mallinfo(arena+hblkhd)
        170157 MiB available memory on the node where the printing process lives
------------------
     ethr =  2.73E-06,  avg # of iterations =  8.0
     Minimization algorithm failed to find Fermi energy: reverting to bisection
     Possible cause: smearing is larger than the electronic band-gap.

     total cpu time spent up to now is       54.2 secs

     total energy              =   -1646.89112465 Ry
     estimated scf accuracy    <       0.00628933 Ry

     iteration # 22     ecut=    30.00 Ry     beta= 0.70
     Davidson diagonalization with overlap

---- Real-time Memory Report at c_bands before calling an iterative solver
           669 MiB given to the printing process from OS
             0 MiB allocation reported by mallinfo(arena+hblkhd)
        170158 MiB available memory on the node where the printing process lives
------------------
     ethr =  2.73E-06,  avg # of iterations =  2.0

     total cpu time spent up to now is       55.1 secs

     total energy              =   -1646.89035968 Ry
     estimated scf accuracy    <       0.13273149 Ry

     iteration # 23     ecut=    30.00 Ry     beta= 0.70
     Davidson diagonalization with overlap

---- Real-time Memory Report at c_bands before calling an iterative solver
           669 MiB given to the printing process from OS
             0 MiB allocation reported by mallinfo(arena+hblkhd)
        170159 MiB available memory on the node where the printing process lives
------------------
     ethr =  2.73E-06,  avg # of iterations =  3.0

     total cpu time spent up to now is       56.0 secs

     total energy              =   -1646.89124644 Ry
     estimated scf accuracy    <       0.00491053 Ry

     iteration # 24     ecut=    30.00 Ry     beta= 0.70
     Davidson diagonalization with overlap

---- Real-time Memory Report at c_bands before calling an iterative solver
           669 MiB given to the printing process from OS
             0 MiB allocation reported by mallinfo(arena+hblkhd)
        170159 MiB available memory on the node where the printing process lives
------------------
     ethr =  2.73E-06,  avg # of iterations =  2.0

     total cpu time spent up to now is       56.9 secs

     total energy              =   -1646.89138570 Ry
     estimated scf accuracy    <       0.00204960 Ry

     iteration # 25     ecut=    30.00 Ry     beta= 0.70
     Davidson diagonalization with overlap

---- Real-time Memory Report at c_bands before calling an iterative solver
           670 MiB given to the printing process from OS
             0 MiB allocation reported by mallinfo(arena+hblkhd)
        170160 MiB available memory on the node where the printing process lives
------------------
     ethr =  1.32E-06,  avg # of iterations =  1.0
     Minimization algorithm failed to find Fermi energy: reverting to bisection
     Possible cause: smearing is larger than the electronic band-gap.

     total cpu time spent up to now is       57.7 secs

     total energy              =   -1646.89130528 Ry
     estimated scf accuracy    <       0.02072632 Ry

     iteration # 26     ecut=    30.00 Ry     beta= 0.70
     Davidson diagonalization with overlap

---- Real-time Memory Report at c_bands before calling an iterative solver
           670 MiB given to the printing process from OS
             0 MiB allocation reported by mallinfo(arena+hblkhd)
        170161 MiB available memory on the node where the printing process lives
------------------
     ethr =  1.32E-06,  avg # of iterations =  2.0

     total cpu time spent up to now is       58.7 secs

     total energy              =   -1646.89140779 Ry
     estimated scf accuracy    <       0.00181034 Ry

     iteration # 27     ecut=    30.00 Ry     beta= 0.70
     Davidson diagonalization with overlap

---- Real-time Memory Report at c_bands before calling an iterative solver
           671 MiB given to the printing process from OS
             0 MiB allocation reported by mallinfo(arena+hblkhd)
        170162 MiB available memory on the node where the printing process lives
------------------
     ethr =  1.17E-06,  avg # of iterations =  2.0
     Minimization algorithm failed to find Fermi energy: reverting to bisection
     Possible cause: smearing is larger than the electronic band-gap.

     total cpu time spent up to now is       59.6 secs

     total energy              =   -1646.89143692 Ry
     estimated scf accuracy    <       0.00092425 Ry

     iteration # 28     ecut=    30.00 Ry     beta= 0.70
     Davidson diagonalization with overlap

---- Real-time Memory Report at c_bands before calling an iterative solver
           671 MiB given to the printing process from OS
             0 MiB allocation reported by mallinfo(arena+hblkhd)
        170162 MiB available memory on the node where the printing process lives
------------------
     ethr =  5.96E-07,  avg # of iterations =  1.0

     total cpu time spent up to now is       60.4 secs

     total energy              =   -1646.89144469 Ry
     estimated scf accuracy    <       0.00027934 Ry

     iteration # 29     ecut=    30.00 Ry     beta= 0.70
     Davidson diagonalization with overlap

---- Real-time Memory Report at c_bands before calling an iterative solver
           671 MiB given to the printing process from OS
             0 MiB allocation reported by mallinfo(arena+hblkhd)
        170163 MiB available memory on the node where the printing process lives
------------------
     ethr =  1.80E-07,  avg # of iterations =  1.0

     total cpu time spent up to now is       61.3 secs

     total energy              =   -1646.89145028 Ry
     estimated scf accuracy    <       0.00002398 Ry

     iteration # 30     ecut=    30.00 Ry     beta= 0.70
     Davidson diagonalization with overlap

---- Real-time Memory Report at c_bands before calling an iterative solver
           671 MiB given to the printing process from OS
             0 MiB allocation reported by mallinfo(arena+hblkhd)
        170163 MiB available memory on the node where the printing process lives
------------------
     ethr =  1.55E-08,  avg # of iterations =  1.0

     total cpu time spent up to now is       62.2 secs

     total energy              =   -1646.89145085 Ry
     estimated scf accuracy    <       0.00000918 Ry

     iteration # 31     ecut=    30.00 Ry     beta= 0.70
     Davidson diagonalization with overlap

---- Real-time Memory Report at c_bands before calling an iterative solver
           671 MiB given to the printing process from OS
             0 MiB allocation reported by mallinfo(arena+hblkhd)
        170162 MiB available memory on the node where the printing process lives
------------------
     ethr =  5.92E-09,  avg # of iterations =  2.0

     total cpu time spent up to now is       63.1 secs

     total energy              =   -1646.89144874 Ry
     estimated scf accuracy    <       0.00009706 Ry

     iteration # 32     ecut=    30.00 Ry     beta= 0.70
     Davidson diagonalization with overlap

---- Real-time Memory Report at c_bands before calling an iterative solver
           671 MiB given to the printing process from OS
             0 MiB allocation reported by mallinfo(arena+hblkhd)
        170164 MiB available memory on the node where the printing process lives
------------------
     ethr =  5.92E-09,  avg # of iterations =  2.0

     total cpu time spent up to now is       64.6 secs

     total energy              =   -1646.89144862 Ry
     estimated scf accuracy    <       0.00038291 Ry

     iteration # 33     ecut=    30.00 Ry     beta= 0.70
     Davidson diagonalization with overlap

---- Real-time Memory Report at c_bands before calling an iterative solver
           671 MiB given to the printing process from OS
             0 MiB allocation reported by mallinfo(arena+hblkhd)
        170164 MiB available memory on the node where the printing process lives
------------------
     ethr =  5.92E-09,  avg # of iterations =  1.0

     total cpu time spent up to now is       66.6 secs

     total energy              =   -1646.89145127 Ry
     estimated scf accuracy    <       0.00000231 Ry

     iteration # 34     ecut=    30.00 Ry     beta= 0.70
     Davidson diagonalization with overlap

---- Real-time Memory Report at c_bands before calling an iterative solver
           671 MiB given to the printing process from OS
             0 MiB allocation reported by mallinfo(arena+hblkhd)
        170164 MiB available memory on the node where the printing process lives
------------------
     ethr =  1.49E-09,  avg # of iterations =  2.0

     total cpu time spent up to now is       67.5 secs

     total energy              =   -1646.89145065 Ry
     estimated scf accuracy    <       0.00005331 Ry

     iteration # 35     ecut=    30.00 Ry     beta= 0.70
     Davidson diagonalization with overlap

---- Real-time Memory Report at c_bands before calling an iterative solver
           671 MiB given to the printing process from OS
             0 MiB allocation reported by mallinfo(arena+hblkhd)
        170164 MiB available memory on the node where the printing process lives
------------------
     ethr =  1.49E-09,  avg # of iterations =  3.0

     total cpu time spent up to now is       68.5 secs

     total energy              =   -1646.89144955 Ry
     estimated scf accuracy    <       0.00027844 Ry

     iteration # 36     ecut=    30.00 Ry     beta= 0.70
     Davidson diagonalization with overlap

---- Real-time Memory Report at c_bands before calling an iterative solver
           671 MiB given to the printing process from OS
             0 MiB allocation reported by mallinfo(arena+hblkhd)
        170165 MiB available memory on the node where the printing process lives
------------------
     c_bands:  1 eigenvalues not converged
     ethr =  1.49E-09,  avg # of iterations = 20.0

     total cpu time spent up to now is       69.7 secs

     total energy              =   -1646.89145113 Ry
     estimated scf accuracy    <       0.00002175 Ry

     iteration # 37     ecut=    30.00 Ry     beta= 0.70
     Davidson diagonalization with overlap

---- Real-time Memory Report at c_bands before calling an iterative solver
           671 MiB given to the printing process from OS
             0 MiB allocation reported by mallinfo(arena+hblkhd)
        170165 MiB available memory on the node where the printing process lives
------------------
     ethr =  1.49E-09,  avg # of iterations =  2.0

     total cpu time spent up to now is       70.6 secs

     total energy              =   -1646.89145083 Ry
     estimated scf accuracy    <       0.00005062 Ry

     iteration # 38     ecut=    30.00 Ry     beta= 0.70
     Davidson diagonalization with overlap

---- Real-time Memory Report at c_bands before calling an iterative solver
           671 MiB given to the printing process from OS
             0 MiB allocation reported by mallinfo(arena+hblkhd)
        170165 MiB available memory on the node where the printing process lives
------------------
     ethr =  1.49E-09,  avg # of iterations =  2.0

     total cpu time spent up to now is       71.5 secs

     total energy              =   -1646.89145143 Ry
     estimated scf accuracy    <       0.00000447 Ry

     iteration # 39     ecut=    30.00 Ry     beta= 0.70
     Davidson diagonalization with overlap

---- Real-time Memory Report at c_bands before calling an iterative solver
           671 MiB given to the printing process from OS
             0 MiB allocation reported by mallinfo(arena+hblkhd)
        170165 MiB available memory on the node where the printing process lives
------------------
     ethr =  1.49E-09,  avg # of iterations =  1.0

     total cpu time spent up to now is       72.4 secs

     total energy              =   -1646.89145139 Ry
     estimated scf accuracy    <       0.00000398 Ry

     iteration # 40     ecut=    30.00 Ry     beta= 0.70
     Davidson diagonalization with overlap

---- Real-time Memory Report at c_bands before calling an iterative solver
           671 MiB given to the printing process from OS
             0 MiB allocation reported by mallinfo(arena+hblkhd)
        170166 MiB available memory on the node where the printing process lives
------------------
     ethr =  1.49E-09,  avg # of iterations =  1.0

     total cpu time spent up to now is       74.6 secs

     total energy              =   -1646.89145125 Ry
     estimated scf accuracy    <       0.00000856 Ry

     iteration # 41     ecut=    30.00 Ry     beta= 0.70
     Davidson diagonalization with overlap

---- Real-time Memory Report at c_bands before calling an iterative solver
           671 MiB given to the printing process from OS
             0 MiB allocation reported by mallinfo(arena+hblkhd)
        170166 MiB available memory on the node where the printing process lives
------------------
     ethr =  1.49E-09,  avg # of iterations =  1.0

     total cpu time spent up to now is       75.4 secs

     total energy              =   -1646.89145137 Ry
     estimated scf accuracy    <       0.00000451 Ry

     iteration # 42     ecut=    30.00 Ry     beta= 0.70
     Davidson diagonalization with overlap

---- Real-time Memory Report at c_bands before calling an iterative solver
           671 MiB given to the printing process from OS
             0 MiB allocation reported by mallinfo(arena+hblkhd)
        170166 MiB available memory on the node where the printing process lives
------------------
     ethr =  1.49E-09,  avg # of iterations =  1.0

     total cpu time spent up to now is       76.3 secs

     total energy              =   -1646.89145139 Ry
     estimated scf accuracy    <       0.00000822 Ry

     iteration # 43     ecut=    30.00 Ry     beta= 0.70
     Davidson diagonalization with overlap

---- Real-time Memory Report at c_bands before calling an iterative solver
           671 MiB given to the printing process from OS
             0 MiB allocation reported by mallinfo(arena+hblkhd)
        170140 MiB available memory on the node where the printing process lives
------------------
     ethr =  1.49E-09,  avg # of iterations =  1.0

     total cpu time spent up to now is       77.2 secs

     total energy              =   -1646.89145128 Ry
     estimated scf accuracy    <       0.00000894 Ry

     iteration # 44     ecut=    30.00 Ry     beta= 0.70
     Davidson diagonalization with overlap

---- Real-time Memory Report at c_bands before calling an iterative solver
           671 MiB given to the printing process from OS
             0 MiB allocation reported by mallinfo(arena+hblkhd)
        170140 MiB available memory on the node where the printing process lives
------------------
     ethr =  1.49E-09,  avg # of iterations =  1.0

     total cpu time spent up to now is       78.0 secs

     total energy              =   -1646.89145134 Ry
     estimated scf accuracy    <       0.00001423 Ry

     iteration # 45     ecut=    30.00 Ry     beta= 0.70
     Davidson diagonalization with overlap

---- Real-time Memory Report at c_bands before calling an iterative solver
           671 MiB given to the printing process from OS
             0 MiB allocation reported by mallinfo(arena+hblkhd)
        170140 MiB available memory on the node where the printing process lives
------------------
     ethr =  1.49E-09,  avg # of iterations =  1.0

     total cpu time spent up to now is       78.9 secs

     total energy              =   -1646.89145120 Ry
     estimated scf accuracy    <       0.00004397 Ry

     iteration # 46     ecut=    30.00 Ry     beta= 0.70
     Davidson diagonalization with overlap

---- Real-time Memory Report at c_bands before calling an iterative solver
           671 MiB given to the printing process from OS
             0 MiB allocation reported by mallinfo(arena+hblkhd)
        170139 MiB available memory on the node where the printing process lives
------------------
     ethr =  1.49E-09,  avg # of iterations =  1.0

     total cpu time spent up to now is       80.5 secs

     total energy              =   -1646.89145132 Ry
     estimated scf accuracy    <       0.00001312 Ry

     iteration # 47     ecut=    30.00 Ry     beta= 0.70
     Davidson diagonalization with overlap

---- Real-time Memory Report at c_bands before calling an iterative solver
           671 MiB given to the printing process from OS
             0 MiB allocation reported by mallinfo(arena+hblkhd)
        170139 MiB available memory on the node where the printing process lives
------------------
     ethr =  1.49E-09,  avg # of iterations =  1.0

     total cpu time spent up to now is       81.4 secs

     total energy              =   -1646.89145141 Ry
     estimated scf accuracy    <       0.00000678 Ry

     iteration # 48     ecut=    30.00 Ry     beta= 0.70
     Davidson diagonalization with overlap

---- Real-time Memory Report at c_bands before calling an iterative solver
           671 MiB given to the printing process from OS
             0 MiB allocation reported by mallinfo(arena+hblkhd)
        170139 MiB available memory on the node where the printing process lives
------------------
     ethr =  1.49E-09,  avg # of iterations =  1.0

     total cpu time spent up to now is       82.4 secs

     total energy              =   -1646.89145143 Ry
     estimated scf accuracy    <       0.00000353 Ry

     iteration # 49     ecut=    30.00 Ry     beta= 0.70
     Davidson diagonalization with overlap

---- Real-time Memory Report at c_bands before calling an iterative solver
           671 MiB given to the printing process from OS
             0 MiB allocation reported by mallinfo(arena+hblkhd)
        170134 MiB available memory on the node where the printing process lives
------------------
     ethr =  1.49E-09,  avg # of iterations =  1.0

     total cpu time spent up to now is       84.8 secs

     total energy              =   -1646.89145138 Ry
     estimated scf accuracy    <       0.00000797 Ry

     iteration # 50     ecut=    30.00 Ry     beta= 0.70
     Davidson diagonalization with overlap

---- Real-time Memory Report at c_bands before calling an iterative solver
           671 MiB given to the printing process from OS
             0 MiB allocation reported by mallinfo(arena+hblkhd)
        170126 MiB available memory on the node where the printing process lives
------------------
     ethr =  1.49E-09,  avg # of iterations =  1.0

     total cpu time spent up to now is       85.7 secs

     total energy              =   -1646.89145144 Ry
     estimated scf accuracy    <       0.00000248 Ry

     iteration # 51     ecut=    30.00 Ry     beta= 0.70
     Davidson diagonalization with overlap

---- Real-time Memory Report at c_bands before calling an iterative solver
           671 MiB given to the printing process from OS
             0 MiB allocation reported by mallinfo(arena+hblkhd)
        170127 MiB available memory on the node where the printing process lives
------------------
     ethr =  1.49E-09,  avg # of iterations =  1.0

     total cpu time spent up to now is       86.6 secs

     total energy              =   -1646.89145139 Ry
     estimated scf accuracy    <       0.00000306 Ry

     iteration # 52     ecut=    30.00 Ry     beta= 0.70
     Davidson diagonalization with overlap

---- Real-time Memory Report at c_bands before calling an iterative solver
           671 MiB given to the printing process from OS
             0 MiB allocation reported by mallinfo(arena+hblkhd)
        170127 MiB available memory on the node where the printing process lives
------------------
     ethr =  1.49E-09,  avg # of iterations =  1.0

     total cpu time spent up to now is       87.5 secs

     total energy              =   -1646.89145124 Ry
     estimated scf accuracy    <       0.00003018 Ry

     iteration # 53     ecut=    30.00 Ry     beta= 0.70
     Davidson diagonalization with overlap

---- Real-time Memory Report at c_bands before calling an iterative solver
           671 MiB given to the printing process from OS
             0 MiB allocation reported by mallinfo(arena+hblkhd)
        170128 MiB available memory on the node where the printing process lives
------------------
     ethr =  1.49E-09,  avg # of iterations =  1.0

     total cpu time spent up to now is       88.3 secs

     End of self-consistent calculation

          k = 0.0000 0.0000 0.0000 (  3775 PWs)   bands (ev):

   -98.3034 -98.3033 -98.1773 -98.1770 -84.6246 -49.4159 -49.4149 -49.2849
   -49.2840 -49.2804 -49.2788 -49.1662 -49.1656 -49.0837 -49.0822 -48.9784
   -48.9779 -47.6494 -47.6453 -47.5848  -3.2407  -3.0641  -2.9681  -2.4899
    -2.3389  -1.5448  -1.3760  -0.4327  -0.4151   0.1963   3.2702   3.3684
     3.4045   3.4529   3.4885   3.5018   3.5037   3.5603   3.6129   3.7309
     3.7746   3.7970   3.8698   4.2335   4.2556   4.3278   4.3482   4.3708
     4.3910   4.4252   4.4375   4.4398   4.4717   4.4887   4.5252   5.7448
     6.0119   6.0833   7.0326   7.1524   8.2691   8.3022   8.5062   8.5643
     8.6105   8.6686   8.6828   8.6863   8.7283   8.8048   8.9041   9.1580
     9.8696   9.9586   9.9592  10.0028  10.3745  10.4099  10.4162  10.4175
    10.6510  10.7400  10.8866  10.9732  11.0912  12.0928  12.3463  12.4929
    12.8196  13.2707  13.2884  13.4897  13.5662  13.9668

     occupation numbers 
     1.0000   1.0000   1.0000   1.0000   1.0000   1.0000   1.0000   1.0000
     1.0000   1.0000   1.0000   1.0000   1.0000   1.0000   1.0000   1.0000
     1.0000   1.0000   1.0000   1.0000   1.0000   1.0000   1.0000   1.0000
     1.0000   1.0000   1.0000   1.0000   1.0000   1.0000   1.0000   1.0000
     1.0000   1.0000   1.0000   1.0000   1.0000   1.0000   1.0000   1.0000
     1.0000   1.0000   1.0000   1.0000   1.0000   1.0000   1.0000   1.0000
     1.0000   1.0000   1.0000   1.0000   1.0000   1.0000   1.0000   1.0000
     1.0000   1.0000   1.0000   1.0000   1.0000   1.0000   1.0000   1.0000
     1.0000   1.0000   1.0000   1.0000   1.0000   1.0000   1.0000   1.0000
     1.0000   1.0000   1.0000   1.0000   1.0014   0.3821   0.0774   0.0391
    -0.0000  -0.0000  -0.0000  -0.0000  -0.0000  -0.0000  -0.0000  -0.0000
    -0.0000  -0.0000  -0.0000  -0.0000  -0.0000  -0.0000

     the Fermi energy is    10.4080 ev

!    total energy              =   -1646.89145079 Ry
     estimated scf accuracy    <       0.00000083 Ry
     smearing contrib. (-TS)   =      -0.00031224 Ry
     internal energy E=F+TS    =   -1646.89113856 Ry

     The total energy is F=E-TS. E is the sum of the following terms:
     one-electron contribution =    -972.33617450 Ry
     hartree contribution      =     528.41331965 Ry
     xc contribution           =    -273.75897916 Ry
     ewald contribution        =    -929.20930455 Ry

     convergence has been achieved in  53 iterations

     Forces acting on atoms (cartesian axes, Ry/au):

     atom    1 type  1   force =    -0.00002370   -0.00001304    0.00001159
     atom    2 type  2   force =    -0.00951561   -0.00552398    0.11286650
     atom    3 type  2   force =     0.00161861    0.00093969    0.12550397
     atom    4 type  2   force =    -0.00302735   -0.00175753    0.11570107
     atom    5 type  2   force =    -0.00416657   -0.00242006    0.11854285
     atom    6 type  2   force =     0.01021925    0.00593406    0.11604527
     atom    7 type  2   force =     0.00304955    0.00177045   -0.11560437
     atom    8 type  2   force =    -0.00162689   -0.00094575   -0.12546869
     atom    9 type  2   force =     0.00949299    0.00551160   -0.11294524
     atom   10 type  2   force =    -0.01013559   -0.00588426   -0.11602171
     atom   11 type  2   force =     0.00406720    0.00236156   -0.11861022
     atom   12 type  3   force =     0.00016339    0.00009572   -0.00801005
     atom   13 type  3   force =     0.00061247    0.00035523    0.00308319
     atom   14 type  3   force =    -0.00062950   -0.00036534   -0.00315390
     atom   15 type  3   force =    -0.00009825   -0.00005837    0.00805974
     The non-local contrib.  to forces
     atom    1 type  1   force =    -0.00001506   -0.00000624   -0.00006175
     atom    2 type  2   force =    -0.20457654   -0.11877390    0.09277888
     atom    3 type  2   force =    -0.17263338   -0.10023390    0.08318764
     atom    4 type  2   force =    -0.17188978   -0.09979602    0.10732728
     atom    5 type  2   force =    -0.20583208   -0.11950786    0.08444755
     atom    6 type  2   force =    -0.11408988   -0.06624295    0.11084780
     atom    7 type  2   force =     0.17163380    0.09965085   -0.10676196
     atom    8 type  2   force =     0.17307786    0.10048423   -0.08302301
     atom    9 type  2   force =     0.20427864    0.11860447   -0.09347746
     atom   10 type  2   force =     0.11433611    0.06637808   -0.11024981
     atom   11 type  2   force =     0.20555666    0.11934681   -0.08508870
     atom   12 type  3   force =    -0.01183244   -0.00687093    0.00253829
     atom   13 type  3   force =     0.01152077    0.00669022    0.00780806
     atom   14 type  3   force =    -0.01156842   -0.00671654   -0.00786184
     atom   15 type  3   force =     0.01188358    0.00689980   -0.00244416
     The ionic contribution  to forces
     atom    1 type  1   force =     0.00000000    0.00000000    0.00000000
     atom    2 type  2   force =    -0.58071523   -0.33715745    5.22095600
     atom    3 type  2   force =    -0.55175912   -0.32034582    5.21433424
     atom    4 type  2   force =    -0.56308905   -0.32692386    5.22761778
     atom    5 type  2   force =    -0.59042810   -0.34279664    5.16040624
     atom    6 type  2   force =    -0.52318914   -0.30375837    4.96627611
     atom    7 type  2   force =     0.56308904    0.32692386   -5.22761778
     atom    8 type  2   force =     0.55175912    0.32034582   -5.21433424
     atom    9 type  2   force =     0.58071523    0.33715745   -5.22095600
     atom   10 type  2   force =     0.52318914    0.30375837   -4.96627611
     atom   11 type  2   force =     0.59042810    0.34279664   -5.16040624
     atom   12 type  3   force =    -0.00249293   -0.00144737   -0.00157017
     atom   13 type  3   force =    -0.00940177   -0.00545857    0.04683484
     atom   14 type  3   force =     0.00940177    0.00545857   -0.04683484
     atom   15 type  3   force =     0.00249293    0.00144737    0.00157018
     The local contribution  to forces
     atom    1 type  1   force =     0.00000883   -0.00000374   -0.00050676
     atom    2 type  2   force =     0.80088171    0.46498370   -5.21511665
     atom    3 type  2   force =     0.74788630    0.43422015   -5.18251821
     atom    4 type  2   force =     0.75327044    0.43734023   -5.23283389
     atom    5 type  2   force =     0.81794991    0.47489624   -5.13830794
     atom    6 type  2   force =     0.66216670    0.38445221   -4.97471676
     atom    7 type  2   force =    -0.75297221   -0.43717005    5.23316554
     atom    8 type  2   force =    -0.74834676   -0.43448079    5.18289834
     atom    9 type  2   force =    -0.80064520   -0.46484844    5.21521845
     atom   10 type  2   force =    -0.66228679   -0.38451198    4.97395197
     atom   11 type  2   force =    -0.81781821   -0.47481941    5.13830714
     atom   12 type  3   force =     0.01437509    0.00835508   -0.01297555
     atom   13 type  3   force =    -0.00138769   -0.00081241   -0.04950790
     atom   14 type  3   force =     0.00152654    0.00088711    0.05340292
     atom   15 type  3   force =    -0.01442059   -0.00837652    0.00949760
     The core correction contribution to forces
     atom    1 type  1   force =     0.00000000    0.00000000    0.00000000
     atom    2 type  2   force =    -0.02513708   -0.01459425    0.01302782
     atom    3 type  2   force =    -0.02184017   -0.01268071    0.01083957
     atom    4 type  2   force =    -0.02135177   -0.01239646    0.01445157
     atom    5 type  2   force =    -0.02588303   -0.01502781    0.01184238
     atom    6 type  2   force =    -0.01467202   -0.00851887    0.01371232
     atom    7 type  2   force =     0.02132465    0.01238111   -0.01439904
     atom    8 type  2   force =     0.02189085    0.01270933   -0.01082427
     atom    9 type  2   force =     0.02510205    0.01457425   -0.01309905
     atom   10 type  2   force =     0.01469523    0.00853139   -0.01364349
     atom   11 type  2   force =     0.02585698    0.01501258   -0.01191056
     atom   12 type  3   force =     0.00000000    0.00000000    0.00000000
     atom   13 type  3   force =     0.00000000    0.00000000    0.00000000
     atom   14 type  3   force =     0.00000000    0.00000000    0.00000000
     atom   15 type  3   force =     0.00000000    0.00000000    0.00000000
     The Hubbard contrib.    to forces
     atom    1 type  1   force =     0.00000000    0.00000000    0.00000000
     atom    2 type  2   force =     0.00000000    0.00000000    0.00000000
     atom    3 type  2   force =     0.00000000    0.00000000    0.00000000
     atom    4 type  2   force =     0.00000000    0.00000000    0.00000000
     atom    5 type  2   force =     0.00000000    0.00000000    0.00000000
     atom    6 type  2   force =     0.00000000    0.00000000    0.00000000
     atom    7 type  2   force =     0.00000000    0.00000000    0.00000000
     atom    8 type  2   force =     0.00000000    0.00000000    0.00000000
     atom    9 type  2   force =     0.00000000    0.00000000    0.00000000
     atom   10 type  2   force =     0.00000000    0.00000000    0.00000000
     atom   11 type  2   force =     0.00000000    0.00000000    0.00000000
     atom   12 type  3   force =     0.00000000    0.00000000    0.00000000
     atom   13 type  3   force =     0.00000000    0.00000000    0.00000000
     atom   14 type  3   force =     0.00000000    0.00000000    0.00000000
     atom   15 type  3   force =     0.00000000    0.00000000    0.00000000
     The SCF correction term to forces
     atom    1 type  1   force =    -0.00001899   -0.00000381    0.00058046
     atom    2 type  2   force =     0.00003000    0.00001717    0.00122082
     atom    3 type  2   force =    -0.00003654   -0.00002078   -0.00033889
     atom    4 type  2   force =     0.00003128    0.00001784   -0.00086129
     atom    5 type  2   force =     0.00002522    0.00001527    0.00015499
     atom    6 type  2   force =     0.00000207    0.00000129   -0.00007382
     atom    7 type  2   force =    -0.00002727   -0.00001607    0.00000924
     atom    8 type  2   force =    -0.00000948   -0.00000510   -0.00018515
     atom    9 type  2   force =     0.00004074    0.00002313   -0.00063081
     atom   10 type  2   force =    -0.00007079   -0.00004087    0.00019610
     atom   11 type  2   force =     0.00004215    0.00002419    0.00048852
     atom   12 type  3   force =     0.00011216    0.00005820    0.00399775
     atom   13 type  3   force =    -0.00012037   -0.00006475   -0.00205143
     atom   14 type  3   force =     0.00000909    0.00000477   -0.00185978
     atom   15 type  3   force =    -0.00005568   -0.00002978   -0.00056351

     Total force =     0.373542     Total SCF correction =     0.005239


     Computing stress (Cartesian axis) and pressure

          total   stress  (Ry/bohr**3)                   (kbar)     P=       12.87
   0.00045152  -0.00014054   0.00012308           66.42      -20.67       18.11
  -0.00014054   0.00061199   0.00007146          -20.67       90.03       10.51
   0.00012308   0.00007146  -0.00080105           18.11       10.51     -117.84

     kinetic stress (kbar)  17138.47    -81.04     55.19
                              -81.04  17231.00     32.04
                               55.19     32.04  17201.13

     local   stress (kbar)  -8869.11  -1038.41    623.71
                            -1038.41  -7683.46    362.12
                              623.71    362.12   6345.05

     nonloc. stress (kbar)  -3405.35    -11.21     24.47
                              -11.21  -3392.55     14.21
                               24.47     14.21  -3199.18

     hartree stress (kbar)  11834.56    350.31   -178.67
                              350.31  11434.59   -103.74
                             -178.67   -103.74   5049.23

     exc-cor stress (kbar)   2611.61      0.50     -1.38
                                0.50   2611.03     -0.80
                               -1.38     -0.80   2608.55

     corecor stress (kbar)  -5904.35     -2.68      3.92
                               -2.68  -5901.29      2.27
                                3.92      2.27  -5873.74

     ewald   stress (kbar) -13339.41    761.86   -509.13
                              761.86 -14209.30   -295.60
                             -509.13   -295.60 -22248.88

     hubbard stress (kbar)      0.00      0.00      0.00
                                0.00      0.00      0.00
                                0.00      0.00      0.00

     DFT-D   stress (kbar)      0.00      0.00      0.00
                                0.00      0.00      0.00
                                0.00      0.00      0.00

     XDM     stress (kbar)      0.00      0.00      0.00
                                0.00      0.00      0.00
                                0.00      0.00      0.00

     dft-nl  stress (kbar)      0.00      0.00      0.00
                                0.00      0.00      0.00
                                0.00      0.00      0.00

     TS-vdW  stress (kbar)      0.00      0.00      0.00
                                0.00      0.00      0.00
                                0.00      0.00      0.00


                                0.00      0.00      0.00
                                0.00      0.00      0.00


                                0.00      0.00      0.00


     Writing all to output data dir new_calculations/myprefix.save/
 
     init_run     :    361.72s CPU     17.20s WALL (       1 calls)
     electrons    :   2095.47s CPU     71.18s WALL (       1 calls)
     forces       :      6.61s CPU      0.23s WALL (       1 calls)
     stress       :     27.16s CPU      0.92s WALL (       1 calls)

     Called by init_run:
     wfcinit      :    174.99s CPU      6.81s WALL (       1 calls)
     wfcinit:atom :      0.07s CPU      0.00s WALL (       1 calls)
     wfcinit:wfcr :    174.75s CPU      6.80s WALL (       1 calls)
     potinit      :     77.26s CPU      3.49s WALL (       1 calls)
     hinit0       :    107.43s CPU      6.73s WALL (       1 calls)

     Called by electrons:
     c_bands      :   1522.37s CPU     50.16s WALL (      53 calls)
     sum_band     :    366.79s CPU     13.78s WALL (      53 calls)
     v_of_rho     :     77.92s CPU      2.62s WALL (      54 calls)
     v_h          :      7.47s CPU      0.25s WALL (      54 calls)
     v_xc         :     72.57s CPU      2.44s WALL (      56 calls)
     newd         :     85.40s CPU      3.27s WALL (      54 calls)
     mix_rho      :     24.35s CPU      0.81s WALL (      53 calls)

     Called by c_bands:
     init_us_2    :      2.72s CPU      0.10s WALL (     107 calls)
     init_us_2:cp :      2.53s CPU      0.09s WALL (     107 calls)
     regterg      :   1506.12s CPU     49.63s WALL (      53 calls)

     Called by sum_band:
     sum_band:wei :      0.37s CPU      0.01s WALL (      53 calls)
     sum_band:loo :    287.89s CPU      9.44s WALL (      53 calls)
     sum_band:buf :      0.04s CPU      0.00s WALL (      53 calls)
     sum_band:ini :      1.42s CPU      0.05s WALL (      53 calls)
     sum_band:cal :      3.82s CPU      0.13s WALL (      53 calls)
     sum_band:bec :      0.32s CPU      0.01s WALL (      53 calls)
     addusdens    :     67.92s CPU      3.97s WALL (      53 calls)
     addusd:skk   :      4.08s CPU      0.21s WALL (      53 calls)
     addusd:dgemm :      6.77s CPU      1.61s WALL (      53 calls)
     addusd:qvan2 :     48.65s CPU      1.59s WALL (      53 calls)

     Called by *egterg:
     rdiaghg      :     52.81s CPU      1.77s WALL (     204 calls)
     regterg:over :     16.56s CPU      0.56s WALL (     151 calls)
     regterg:upda :      5.32s CPU      0.18s WALL (     151 calls)
     regterg:last :     10.86s CPU      0.37s WALL (      88 calls)
     h_psi        :   1558.02s CPU     52.28s WALL (     205 calls)
     s_psi        :      1.93s CPU      0.06s WALL (     205 calls)
     g_psi        :      0.33s CPU      0.01s WALL (     151 calls)

     Called by h_psi:
     h_psi:calbec :     12.06s CPU      0.41s WALL (     205 calls)
     vloc_psi     :   1540.38s CPU     51.68s WALL (     205 calls)
     add_vuspsi   :      3.28s CPU      0.11s WALL (     205 calls)

     General routines
     calbec       :     15.58s CPU      0.53s WALL (     263 calls)
     fft          :    110.89s CPU      4.98s WALL (     612 calls)
     ffts         :     73.28s CPU      3.31s WALL (     107 calls)
     fftw         :   1575.68s CPU     52.74s WALL (   13597 calls)
     interpolate  :     78.51s CPU      3.49s WALL (      54 calls)
 
     Parallel routines
 
     PWSCF        :  41m42.16s CPU   1m31.67s WALL

 
   This run was terminated on:  10:28:50  20May2023            

=------------------------------------------------------------------------------=
   JOB DONE.
=------------------------------------------------------------------------------=
