
     Program PWSCF v.7.0 starts on 20May2023 at 11:41:53 

     This program is part of the open-source Quantum ESPRESSO suite
     for quantum simulation of materials; please cite
         "P. Giannozzi et al., J. Phys.:Condens. Matter 21 395502 (2009);
         "P. Giannozzi et al., J. Phys.:Condens. Matter 29 465901 (2017);
         "P. Giannozzi et al., J. Chem. Phys. 152 154105 (2020);
          URL http://www.quantum-espresso.org", 
     in publications or presentations arising from this work. More details at
     http://www.quantum-espresso.org/quote

     Parallel version (MPI & OpenMP), running on      32 processor cores
     Number of MPI processes:                 1
     Threads/MPI process:                    32

     MPI processes distributed on     1 nodes
     137767 MiB available memory on the printing compute node when the environment starts
 
     Reading input from espresso_11321.pwi
Warning: card &CELL ignored
Warning: card / ignored

     Current dimensions of program PWSCF are:
     Max number of different atomic species (ntypx) = 10
     Max number of k-points (npk) =  40000
     Max angular momentum in pseudopotentials (lmaxx) =  4
     file Ga.pbe-dn-kjpaw_psl.1.0.0.UPF: wavefunction(s)  4S renormalized

     gamma-point specific algorithms are used
     Message from routine setup:
     using ibrav=0 with symmetry is DISCOURAGED, use correct ibrav instead

     Subspace diagonalization in iterative solution of the eigenvalue problem:
     a serial algorithm will be used

 
     G-vector sticks info
     --------------------
     sticks:   dense  smooth     PW     G-vecs:    dense   smooth      PW
     Sum        4675    2347    583               120549    42573    5311
 
     Using Slab Decomposition
 


     bravais-lattice index     =            0
     lattice parameter (alat)  =      16.8043  a.u.
     unit-cell volume          =    1917.6978 (a.u.)^3
     number of atoms/cell      =           18
     number of atomic types    =            3
     number of electrons       =       282.00
     number of Kohn-Sham states=          169
     kinetic-energy cutoff     =      30.0000  Ry
     charge density cutoff     =     240.0000  Ry
     scf convergence threshold =      1.0E-06
     mixing beta               =       0.7000
     number of iterations used =            8  plain     mixing
     Exchange-correlation=  SLA  PW   PBX  PBC
                           (   1   4   3   4   0   0   0)

     celldm(1)=  16.804307  celldm(2)=   0.000000  celldm(3)=   0.000000
     celldm(4)=   0.000000  celldm(5)=   0.000000  celldm(6)=   0.000000

     crystal axes: (cart. coord. in units of alat)
               a(1) = (   1.000000   0.000000   0.000000 )  
               a(2) = (  -0.500000   0.866025   0.000000 )  
               a(3) = (   0.000000   0.000000   0.466646 )  

     reciprocal axes: (cart. coord. in units 2 pi/alat)
               b(1) = (  1.000000  0.577350  0.000000 )  
               b(2) = (  0.000000  1.154701  0.000000 )  
               b(3) = (  0.000000  0.000000  2.142951 )  


     PseudoPot. # 1 for Nd read from file:
     /home/pragov/projects/rrg-bengioy-ad/pragov/crystal_structure_design/SSSP/Nd.GGA-PBE-paw-v1.0.UPF
     MD5 check sum: 1d1e94942b6eb1cde76049b71bb7dcb0
     Pseudo is Projector augmented-wave + core cor, Zval = 14.0
     Generated using ATOMPAW code
     Shape of augmentation charge: BESSEL
     Using radial grid of 1105 points,  8 beta functions with: 
                l(1) =   0
                l(2) =   0
                l(3) =   1
                l(4) =   1
                l(5) =   2
                l(6) =   2
                l(7) =   3
                l(8) =   3
     Q(r) pseudized with 0 coefficients 


     PseudoPot. # 2 for Ga read from file:
     /home/pragov/projects/rrg-bengioy-ad/pragov/crystal_structure_design/SSSP/Ga.pbe-dn-kjpaw_psl.1.0.0.UPF
     MD5 check sum: a27b4342b1af7e5f338de752e9ed7044
     Pseudo is Projector augmented-wave + core cor, Zval = 13.0
     Generated using "atomic" code by A. Dal Corso  v.5.1
     Shape of augmentation charge: PSQ
     Using radial grid of 1205 points,  6 beta functions with: 
                l(1) =   0
                l(2) =   0
                l(3) =   1
                l(4) =   1
                l(5) =   2
                l(6) =   2
     Q(r) pseudized with 0 coefficients 


     PseudoPot. # 3 for Ni read from file:
     /home/pragov/projects/rrg-bengioy-ad/pragov/crystal_structure_design/SSSP/ni_pbe_v1.4.uspp.F.UPF
     MD5 check sum: 1ee80287db30b12d2bc1f57a5b5d6409
     Pseudo is Ultrasoft + core correction, Zval = 18.0
     Generated by new atomic code, or converted to UPF format
     Using radial grid of  865 points,  6 beta functions with: 
                l(1) =   0
                l(2) =   0
                l(3) =   1
                l(4) =   1
                l(5) =   2
                l(6) =   2
     Q(r) pseudized with 10 coefficients,  rinner =    0.980   0.980   0.980
                                                       0.980   0.980

     atomic species   valence    mass     pseudopotential
        Nd            14.00   144.24200     Nd( 1.00)
        Ga            13.00    69.72300     Ga( 1.00)
        Ni            18.00    58.69340     Ni( 1.00)

     12 Sym. Ops. (no inversion) found


                                    s                        frac. trans.

      isym =  1     identity                                     

 cryst.   s( 1) = (     1          0          0      )
                  (     0          1          0      )
                  (     0          0          1      )

 cart.    s( 1) = (  1.0000000  0.0000000  0.0000000 )
                  (  0.0000000  1.0000000  0.0000000 )
                  (  0.0000000  0.0000000  1.0000000 )


      isym =  2     180 deg rotation - cart. axis [1,0,0]        

 cryst.   s( 2) = (     1          0          0      )
                  (    -1         -1          0      )
                  (     0          0         -1      )

 cart.    s( 2) = (  1.0000000  0.0000000  0.0000000 )
                  (  0.0000000 -1.0000000  0.0000000 )
                  (  0.0000000  0.0000000 -1.0000000 )


      isym =  3     120 deg rotation - cryst. axis [0,0,1]       

 cryst.   s( 3) = (     0          1          0      )
                  (    -1         -1          0      )
                  (     0          0          1      )

 cart.    s( 3) = ( -0.5000000 -0.8660254  0.0000000 )
                  (  0.8660254 -0.5000000  0.0000000 )
                  (  0.0000000  0.0000000  1.0000000 )


      isym =  4     120 deg rotation - cryst. axis [0,0,-1]      

 cryst.   s( 4) = (    -1         -1          0      )
                  (     1          0          0      )
                  (     0          0          1      )

 cart.    s( 4) = ( -0.5000000  0.8660254  0.0000000 )
                  ( -0.8660254 -0.5000000  0.0000000 )
                  (  0.0000000  0.0000000  1.0000000 )


      isym =  5     180 deg rotation - cryst. axis [0,1,0]       

 cryst.   s( 5) = (    -1         -1          0      )
                  (     0          1          0      )
                  (     0          0         -1      )

 cart.    s( 5) = ( -0.5000000 -0.8660254  0.0000000 )
                  ( -0.8660254  0.5000000  0.0000000 )
                  (  0.0000000  0.0000000 -1.0000000 )


      isym =  6     180 deg rotation - cryst. axis [1,1,0]       

 cryst.   s( 6) = (     0          1          0      )
                  (     1          0          0      )
                  (     0          0         -1      )

 cart.    s( 6) = ( -0.5000000  0.8660254  0.0000000 )
                  (  0.8660254  0.5000000  0.0000000 )
                  (  0.0000000  0.0000000 -1.0000000 )


      isym =  7     inv. 180 deg rotation - cart. axis [0,0,1]   

 cryst.   s( 7) = (     1          0          0      )
                  (     0          1          0      )
                  (     0          0         -1      )

 cart.    s( 7) = (  1.0000000  0.0000000  0.0000000 )
                  (  0.0000000  1.0000000  0.0000000 )
                  (  0.0000000  0.0000000 -1.0000000 )


      isym =  8     inv. 180 deg rotation - cart. axis [0,1,0]   

 cryst.   s( 8) = (     1          0          0      )
                  (    -1         -1          0      )
                  (     0          0          1      )

 cart.    s( 8) = (  1.0000000  0.0000000  0.0000000 )
                  (  0.0000000 -1.0000000  0.0000000 )
                  (  0.0000000  0.0000000  1.0000000 )


      isym =  9     inv.  60 deg rotation - cryst. axis [0,0,1]  

 cryst.   s( 9) = (    -1         -1          0      )
                  (     1          0          0      )
                  (     0          0         -1      )

 cart.    s( 9) = ( -0.5000000  0.8660254  0.0000000 )
                  ( -0.8660254 -0.5000000  0.0000000 )
                  (  0.0000000  0.0000000 -1.0000000 )


      isym = 10     inv.  60 deg rotation - cryst. axis [0,0,-1] 

 cryst.   s(10) = (     0          1          0      )
                  (    -1         -1          0      )
                  (     0          0         -1      )

 cart.    s(10) = ( -0.5000000 -0.8660254  0.0000000 )
                  (  0.8660254 -0.5000000  0.0000000 )
                  (  0.0000000  0.0000000 -1.0000000 )


      isym = 11     inv. 180 deg rotation - cryst. axis [1,-1,0] 

 cryst.   s(11) = (     0          1          0      )
                  (     1          0          0      )
                  (     0          0          1      )

 cart.    s(11) = ( -0.5000000  0.8660254  0.0000000 )
                  (  0.8660254  0.5000000  0.0000000 )
                  (  0.0000000  0.0000000  1.0000000 )


      isym = 12     inv. 180 deg rotation - cryst. axis [2,1,0]  

 cryst.   s(12) = (    -1         -1          0      )
                  (     0          1          0      )
                  (     0          0          1      )

 cart.    s(12) = ( -0.5000000 -0.8660254  0.0000000 )
                  ( -0.8660254  0.5000000  0.0000000 )
                  (  0.0000000  0.0000000  1.0000000 )


   Cartesian axes

     site n.     atom                  positions (alat units)
         1           Nd  tau(   1) = (  -0.0000005   0.5773506   0.2333231  )
         2           Nd  tau(   2) = (   0.5000005   0.2886748   0.2333231  )
         3           Nd  tau(   3) = (   0.0000000   0.0000000   0.0000000  )
         4           Ga  tau(   4) = (   0.4840580   0.0000000   0.0000000  )
         5           Ga  tau(   5) = (  -0.2420290   0.4192065   0.0000000  )
         6           Ga  tau(   6) = (   0.2579710   0.4468189   0.0000000  )
         7           Ga  tau(   7) = (   0.7266340   0.0000000   0.2333231  )
         8           Ga  tau(   8) = (   0.6366830   0.6292835   0.2333231  )
         9           Ga  tau(   9) = (   0.1366830   0.2367419   0.2333231  )
        10           Ni  tau(  10) = (   0.0099585   0.3202103   0.0000000  )
        11           Ni  tau(  11) = (   0.2177105   0.7145446   0.0000000  )
        12           Ni  tau(  12) = (  -0.2276690   0.6972959   0.0000000  )
        13           Ni  tau(  13) = (   0.5099585   0.5458151   0.0000000  )
        14           Ni  tau(  14) = (   0.7177105   0.1514808   0.0000000  )
        15           Ni  tau(  15) = (   0.2723310   0.1687295   0.0000000  )
        16           Ni  tau(  16) = (   0.2923390   0.0000000   0.2333231  )
        17           Ni  tau(  17) = (   0.8538305   0.2531730   0.2333231  )
        18           Ni  tau(  18) = (   0.3538305   0.6128524   0.2333231  )

   Crystallographic axes

     site n.     atom                  positions (cryst. coord.)
         1           Nd  tau(   1) = (  0.3333330  0.6666670  0.5000000  )
         2           Nd  tau(   2) = (  0.6666670  0.3333330  0.5000000  )
         3           Nd  tau(   3) = (  0.0000000  0.0000000  0.0000000  )
         4           Ga  tau(   4) = (  0.4840580  0.0000000  0.0000000  )
         5           Ga  tau(   5) = (  0.0000000  0.4840580  0.0000000  )
         6           Ga  tau(   6) = (  0.5159420  0.5159420  0.0000000  )
         7           Ga  tau(   7) = (  0.7266340  0.0000000  0.5000000  )
         8           Ga  tau(   8) = (  1.0000000  0.7266340  0.5000000  )
         9           Ga  tau(   9) = (  0.2733660  0.2733660  0.5000000  )
        10           Ni  tau(  10) = (  0.1948320  0.3697470  0.0000000  )
        11           Ni  tau(  11) = (  0.6302530  0.8250850  0.0000000  )
        12           Ni  tau(  12) = (  0.1749150  0.8051680  0.0000000  )
        13           Ni  tau(  13) = (  0.8250850  0.6302530  0.0000000  )
        14           Ni  tau(  14) = (  0.8051680  0.1749150  0.0000000  )
        15           Ni  tau(  15) = (  0.3697470  0.1948320  0.0000000  )
        16           Ni  tau(  16) = (  0.2923390  0.0000000  0.5000000  )
        17           Ni  tau(  17) = (  1.0000000  0.2923390  0.5000000  )
        18           Ni  tau(  18) = (  0.7076610  0.7076610  0.5000000  )

     number of k points=     1  Methfessel-Paxton smearing, width (Ry)=  0.0010
                       cart. coord. in units 2pi/alat
        k(    1) = (   0.0000000   0.0000000   0.0000000), wk =   2.0000000

                       cryst. coord.
        k(    1) = (   0.0000000   0.0000000   0.0000000), wk =   2.0000000

     Dense  grid:    60275 G-vectors     FFT dimensions: (  90,  90,  40)

     Smooth grid:    21287 G-vectors     FFT dimensions: (  60,  60,  27)

     Dynamical RAM for                 wfc:       6.86 MB

     Dynamical RAM for     wfc (w. buffer):       6.86 MB

     Dynamical RAM for           str. fact:       2.76 MB

     Dynamical RAM for           local pot:       0.00 MB

     Dynamical RAM for          nlocal pot:      14.86 MB

     Dynamical RAM for                qrad:       8.96 MB

     Dynamical RAM for          rho,v,vnew:      10.17 MB

     Dynamical RAM for               rhoin:       3.39 MB

     Dynamical RAM for            rho*nmix:      14.72 MB

     Dynamical RAM for           G-vectors:       3.61 MB

     Dynamical RAM for          h,s,v(r/c):       2.61 MB

     Dynamical RAM for          <psi|beta>:       0.47 MB

     Dynamical RAM for                 psi:      13.72 MB

     Dynamical RAM for                hpsi:      13.72 MB

     Dynamical RAM for                spsi:      13.72 MB

     Dynamical RAM for      wfcinit/wfcrot:      23.32 MB

     Dynamical RAM for           addusdens:     518.72 MB

     Dynamical RAM for          addusforce:     534.01 MB

     Dynamical RAM for         addusstress:     535.28 MB

     Estimated static dynamical RAM per process >      66.66 MB

     Estimated max dynamical RAM per process >     616.65 MB

     Check: negative core charge=   -0.000006

     Initial potential from superposition of free atoms

     starting charge     263.9637, renormalised to     282.0000
     Starting wfcs are  267 randomized atomic wfcs
     Checking if some PAW data can be deallocated... 

     total cpu time spent up to now is       24.4 secs

     Self-consistent Calculation

     iteration #  1     ecut=    30.00 Ry     beta= 0.70
     Davidson diagonalization with overlap

---- Real-time Memory Report at c_bands before calling an iterative solver
           861 MiB given to the printing process from OS
             0 MiB allocation reported by mallinfo(arena+hblkhd)
        137226 MiB available memory on the node where the printing process lives
------------------
     ethr =  1.00E-02,  avg # of iterations =  3.0

     total cpu time spent up to now is       31.6 secs

     total energy              =   -6013.37585330 Ry
     estimated scf accuracy    <     447.04945152 Ry

     iteration #  2     ecut=    30.00 Ry     beta= 0.70
     Davidson diagonalization with overlap

---- Real-time Memory Report at c_bands before calling an iterative solver
          1316 MiB given to the printing process from OS
             0 MiB allocation reported by mallinfo(arena+hblkhd)
        137130 MiB available memory on the node where the printing process lives
------------------
     ethr =  1.00E-02,  avg # of iterations =  7.0

     total cpu time spent up to now is       41.1 secs

     total energy              =   -6372.91625429 Ry
     estimated scf accuracy    <    1151.13235626 Ry

     iteration #  3     ecut=    30.00 Ry     beta= 0.70
     Davidson diagonalization with overlap

---- Real-time Memory Report at c_bands before calling an iterative solver
          1322 MiB given to the printing process from OS
             0 MiB allocation reported by mallinfo(arena+hblkhd)
        137129 MiB available memory on the node where the printing process lives
------------------
     ethr =  1.00E-02,  avg # of iterations =  5.0

     total cpu time spent up to now is       46.7 secs

     total energy              =   -6388.58179540 Ry
     estimated scf accuracy    <     400.59307211 Ry

     iteration #  4     ecut=    30.00 Ry     beta= 0.70
     Davidson diagonalization with overlap

---- Real-time Memory Report at c_bands before calling an iterative solver
          1322 MiB given to the printing process from OS
             0 MiB allocation reported by mallinfo(arena+hblkhd)
        137146 MiB available memory on the node where the printing process lives
------------------
     ethr =  1.00E-02,  avg # of iterations =  5.0

     total cpu time spent up to now is       54.6 secs

     total energy              =   -6402.02781750 Ry
     estimated scf accuracy    <     235.99992549 Ry

     iteration #  5     ecut=    30.00 Ry     beta= 0.70
     Davidson diagonalization with overlap

---- Real-time Memory Report at c_bands before calling an iterative solver
          1322 MiB given to the printing process from OS
             0 MiB allocation reported by mallinfo(arena+hblkhd)
        137149 MiB available memory on the node where the printing process lives
------------------
     ethr =  1.00E-02,  avg # of iterations =  4.0

     total cpu time spent up to now is       63.7 secs

     total energy              =   -6370.62672955 Ry
     estimated scf accuracy    <     140.59003090 Ry

     iteration #  6     ecut=    30.00 Ry     beta= 0.70
     Davidson diagonalization with overlap

---- Real-time Memory Report at c_bands before calling an iterative solver
          1322 MiB given to the printing process from OS
             0 MiB allocation reported by mallinfo(arena+hblkhd)
        137120 MiB available memory on the node where the printing process lives
------------------
     ethr =  1.00E-02,  avg # of iterations =  4.0

     total cpu time spent up to now is       68.3 secs

     total energy              =   -6367.00579694 Ry
     estimated scf accuracy    <      59.21235273 Ry

     iteration #  7     ecut=    30.00 Ry     beta= 0.70
     Davidson diagonalization with overlap

---- Real-time Memory Report at c_bands before calling an iterative solver
          1322 MiB given to the printing process from OS
             0 MiB allocation reported by mallinfo(arena+hblkhd)
        137141 MiB available memory on the node where the printing process lives
------------------
     ethr =  1.00E-02,  avg # of iterations =  5.0

     total cpu time spent up to now is       80.8 secs

     total energy              =   -6362.73860827 Ry
     estimated scf accuracy    <      55.34239989 Ry

     iteration #  8     ecut=    30.00 Ry     beta= 0.70
     Davidson diagonalization with overlap

---- Real-time Memory Report at c_bands before calling an iterative solver
          1326 MiB given to the printing process from OS
             0 MiB allocation reported by mallinfo(arena+hblkhd)
        137130 MiB available memory on the node where the printing process lives
------------------
     ethr =  1.00E-02,  avg # of iterations =  3.0

     total cpu time spent up to now is       99.2 secs

     total energy              =   -6371.69732294 Ry
     estimated scf accuracy    <      42.35752995 Ry

     iteration #  9     ecut=    30.00 Ry     beta= 0.70
     Davidson diagonalization with overlap

---- Real-time Memory Report at c_bands before calling an iterative solver
          1326 MiB given to the printing process from OS
             0 MiB allocation reported by mallinfo(arena+hblkhd)
        137146 MiB available memory on the node where the printing process lives
------------------
     ethr =  1.00E-02,  avg # of iterations =  2.0

     total cpu time spent up to now is      116.2 secs

     total energy              =   -6371.88641141 Ry
     estimated scf accuracy    <      26.17262077 Ry

     iteration # 10     ecut=    30.00 Ry     beta= 0.70
     Davidson diagonalization with overlap

---- Real-time Memory Report at c_bands before calling an iterative solver
          1327 MiB given to the printing process from OS
             0 MiB allocation reported by mallinfo(arena+hblkhd)
        137132 MiB available memory on the node where the printing process lives
------------------
     ethr =  9.28E-03,  avg # of iterations =  1.0

     total cpu time spent up to now is      129.9 secs

     total energy              =   -6361.00083970 Ry
     estimated scf accuracy    <      26.99672869 Ry

     iteration # 11     ecut=    30.00 Ry     beta= 0.70
     Davidson diagonalization with overlap

---- Real-time Memory Report at c_bands before calling an iterative solver
          1327 MiB given to the printing process from OS
             0 MiB allocation reported by mallinfo(arena+hblkhd)
        137150 MiB available memory on the node where the printing process lives
------------------
     ethr =  9.28E-03,  avg # of iterations =  4.0

     total cpu time spent up to now is      134.8 secs

     total energy              =   -6353.27563344 Ry
     estimated scf accuracy    <     508.52994724 Ry

     iteration # 12     ecut=    30.00 Ry     beta= 0.70
     Davidson diagonalization with overlap

---- Real-time Memory Report at c_bands before calling an iterative solver
          1330 MiB given to the printing process from OS
             0 MiB allocation reported by mallinfo(arena+hblkhd)
        137131 MiB available memory on the node where the printing process lives
------------------
     ethr =  9.28E-03,  avg # of iterations =  5.0

     total cpu time spent up to now is      139.4 secs

     total energy              =   -6364.21787126 Ry
     estimated scf accuracy    <     214.36273045 Ry

     iteration # 13     ecut=    30.00 Ry     beta= 0.70
     Davidson diagonalization with overlap

---- Real-time Memory Report at c_bands before calling an iterative solver
          1330 MiB given to the printing process from OS
             0 MiB allocation reported by mallinfo(arena+hblkhd)
        137133 MiB available memory on the node where the printing process lives
------------------
     ethr =  9.28E-03,  avg # of iterations =  2.0

     total cpu time spent up to now is      143.5 secs

     total energy              =   -6369.23886131 Ry
     estimated scf accuracy    <      22.44987291 Ry

     iteration # 14     ecut=    30.00 Ry     beta= 0.70
     Davidson diagonalization with overlap

---- Real-time Memory Report at c_bands before calling an iterative solver
          1330 MiB given to the printing process from OS
             0 MiB allocation reported by mallinfo(arena+hblkhd)
        137134 MiB available memory on the node where the printing process lives
------------------
     ethr =  7.96E-03,  avg # of iterations =  1.0

     total cpu time spent up to now is      147.5 secs

     total energy              =   -6368.12033814 Ry
     estimated scf accuracy    <      20.09706068 Ry

     iteration # 15     ecut=    30.00 Ry     beta= 0.70
     Davidson diagonalization with overlap

---- Real-time Memory Report at c_bands before calling an iterative solver
          1330 MiB given to the printing process from OS
             0 MiB allocation reported by mallinfo(arena+hblkhd)
        137152 MiB available memory on the node where the printing process lives
------------------
     ethr =  7.13E-03,  avg # of iterations =  1.0

     total cpu time spent up to now is      153.6 secs

     total energy              =   -6368.04126933 Ry
     estimated scf accuracy    <      41.14975899 Ry

     iteration # 16     ecut=    30.00 Ry     beta= 0.70
     Davidson diagonalization with overlap

---- Real-time Memory Report at c_bands before calling an iterative solver
          1330 MiB given to the printing process from OS
             0 MiB allocation reported by mallinfo(arena+hblkhd)
        137138 MiB available memory on the node where the printing process lives
------------------
     ethr =  7.13E-03,  avg # of iterations =  1.0

     total cpu time spent up to now is      157.6 secs

     total energy              =   -6366.14265393 Ry
     estimated scf accuracy    <      83.42441303 Ry

     iteration # 17     ecut=    30.00 Ry     beta= 0.70
     Davidson diagonalization with overlap

---- Real-time Memory Report at c_bands before calling an iterative solver
          1330 MiB given to the printing process from OS
             0 MiB allocation reported by mallinfo(arena+hblkhd)
        137142 MiB available memory on the node where the printing process lives
------------------
     ethr =  7.13E-03,  avg # of iterations =  4.0

     total cpu time spent up to now is      162.2 secs

     total energy              =   -6364.54100309 Ry
     estimated scf accuracy    <     166.17565361 Ry

     iteration # 18     ecut=    30.00 Ry     beta= 0.70
     Davidson diagonalization with overlap

---- Real-time Memory Report at c_bands before calling an iterative solver
          1330 MiB given to the printing process from OS
             0 MiB allocation reported by mallinfo(arena+hblkhd)
        137129 MiB available memory on the node where the printing process lives
------------------
     ethr =  7.13E-03,  avg # of iterations =  2.0

     total cpu time spent up to now is      166.7 secs

     total energy              =   -6366.50632676 Ry
     estimated scf accuracy    <     111.27923510 Ry

     iteration # 19     ecut=    30.00 Ry     beta= 0.70
     Davidson diagonalization with overlap

---- Real-time Memory Report at c_bands before calling an iterative solver
          1330 MiB given to the printing process from OS
             0 MiB allocation reported by mallinfo(arena+hblkhd)
        137130 MiB available memory on the node where the printing process lives
------------------
     ethr =  7.13E-03,  avg # of iterations =  1.0
     Minimization algorithm failed to find Fermi energy: reverting to bisection
     Possible cause: smearing is larger than the electronic band-gap.

     total cpu time spent up to now is      170.8 secs

     total energy              =   -6367.70999375 Ry
     estimated scf accuracy    <      35.45911939 Ry

     iteration # 20     ecut=    30.00 Ry     beta= 0.70
     Davidson diagonalization with overlap

---- Real-time Memory Report at c_bands before calling an iterative solver
          1330 MiB given to the printing process from OS
             0 MiB allocation reported by mallinfo(arena+hblkhd)
        137132 MiB available memory on the node where the printing process lives
------------------
     ethr =  7.13E-03,  avg # of iterations =  1.0

     total cpu time spent up to now is      174.9 secs

     total energy              =   -6365.97081482 Ry
     estimated scf accuracy    <      46.76759396 Ry

     iteration # 21     ecut=    30.00 Ry     beta= 0.70
     Davidson diagonalization with overlap

---- Real-time Memory Report at c_bands before calling an iterative solver
          1330 MiB given to the printing process from OS
             0 MiB allocation reported by mallinfo(arena+hblkhd)
        137150 MiB available memory on the node where the printing process lives
------------------
     ethr =  7.13E-03,  avg # of iterations =  3.0

     total cpu time spent up to now is      182.0 secs

     total energy              =   -6358.06407676 Ry
     estimated scf accuracy    <     313.22305928 Ry

     iteration # 22     ecut=    30.00 Ry     beta= 0.70
     Davidson diagonalization with overlap

---- Real-time Memory Report at c_bands before calling an iterative solver
          1330 MiB given to the printing process from OS
             0 MiB allocation reported by mallinfo(arena+hblkhd)
        137151 MiB available memory on the node where the printing process lives
------------------
     ethr =  7.13E-03,  avg # of iterations =  5.0

     total cpu time spent up to now is      190.8 secs

     total energy              =   -6363.44211870 Ry
     estimated scf accuracy    <     157.55085943 Ry

     iteration # 23     ecut=    30.00 Ry     beta= 0.70
     Davidson diagonalization with overlap

---- Real-time Memory Report at c_bands before calling an iterative solver
          1330 MiB given to the printing process from OS
             0 MiB allocation reported by mallinfo(arena+hblkhd)
        137132 MiB available memory on the node where the printing process lives
------------------
     ethr =  7.13E-03,  avg # of iterations =  2.0

     total cpu time spent up to now is      195.2 secs

     total energy              =   -6365.91905460 Ry
     estimated scf accuracy    <      22.80311987 Ry

     iteration # 24     ecut=    30.00 Ry     beta= 0.70
     Davidson diagonalization with overlap

---- Real-time Memory Report at c_bands before calling an iterative solver
          1330 MiB given to the printing process from OS
             0 MiB allocation reported by mallinfo(arena+hblkhd)
        137134 MiB available memory on the node where the printing process lives
------------------
     ethr =  7.13E-03,  avg # of iterations =  6.0

     total cpu time spent up to now is      200.3 secs

     total energy              =   -6360.30481172 Ry
     estimated scf accuracy    <     160.83875128 Ry

     iteration # 25     ecut=    30.00 Ry     beta= 0.70
     Davidson diagonalization with overlap

---- Real-time Memory Report at c_bands before calling an iterative solver
          1330 MiB given to the printing process from OS
             0 MiB allocation reported by mallinfo(arena+hblkhd)
        137156 MiB available memory on the node where the printing process lives
------------------
     ethr =  7.13E-03,  avg # of iterations =  4.0

     total cpu time spent up to now is      205.0 secs

     total energy              =   -6366.71131845 Ry
     estimated scf accuracy    <      21.05612135 Ry

     iteration # 26     ecut=    30.00 Ry     beta= 0.70
     Davidson diagonalization with overlap

---- Real-time Memory Report at c_bands before calling an iterative solver
          1330 MiB given to the printing process from OS
             0 MiB allocation reported by mallinfo(arena+hblkhd)
        137156 MiB available memory on the node where the printing process lives
------------------
     ethr =  7.13E-03,  avg # of iterations =  3.0

     total cpu time spent up to now is      209.6 secs

     total energy              =   -6365.00840724 Ry
     estimated scf accuracy    <     108.24594587 Ry

     iteration # 27     ecut=    30.00 Ry     beta= 0.70
     Davidson diagonalization with overlap

---- Real-time Memory Report at c_bands before calling an iterative solver
          1330 MiB given to the printing process from OS
             0 MiB allocation reported by mallinfo(arena+hblkhd)
        137153 MiB available memory on the node where the printing process lives
------------------
     ethr =  7.13E-03,  avg # of iterations =  3.0

     total cpu time spent up to now is      214.1 secs

     total energy              =   -6362.48329934 Ry
     estimated scf accuracy    <     245.29128955 Ry

     iteration # 28     ecut=    30.00 Ry     beta= 0.70
     Davidson diagonalization with overlap

---- Real-time Memory Report at c_bands before calling an iterative solver
          1330 MiB given to the printing process from OS
             0 MiB allocation reported by mallinfo(arena+hblkhd)
        137133 MiB available memory on the node where the printing process lives
------------------
     ethr =  7.13E-03,  avg # of iterations =  6.0

     total cpu time spent up to now is      219.0 secs

     total energy              =   -6362.48730731 Ry
     estimated scf accuracy    <     271.26620701 Ry

     iteration # 29     ecut=    30.00 Ry     beta= 0.70
     Davidson diagonalization with overlap

---- Real-time Memory Report at c_bands before calling an iterative solver
          1330 MiB given to the printing process from OS
             0 MiB allocation reported by mallinfo(arena+hblkhd)
        137133 MiB available memory on the node where the printing process lives
------------------
     ethr =  7.13E-03,  avg # of iterations =  2.0

     total cpu time spent up to now is      225.2 secs

     total energy              =   -6363.78563747 Ry
     estimated scf accuracy    <      25.72257434 Ry

     iteration # 30     ecut=    30.00 Ry     beta= 0.70
     Davidson diagonalization with overlap

---- Real-time Memory Report at c_bands before calling an iterative solver
          1330 MiB given to the printing process from OS
             0 MiB allocation reported by mallinfo(arena+hblkhd)
        137134 MiB available memory on the node where the printing process lives
------------------
     ethr =  7.13E-03,  avg # of iterations =  4.0

     total cpu time spent up to now is      235.4 secs

     total energy              =   -6358.86571596 Ry
     estimated scf accuracy    <     361.01253554 Ry

     iteration # 31     ecut=    30.00 Ry     beta= 0.70
     Davidson diagonalization with overlap

---- Real-time Memory Report at c_bands before calling an iterative solver
          1330 MiB given to the printing process from OS
             0 MiB allocation reported by mallinfo(arena+hblkhd)
        137151 MiB available memory on the node where the printing process lives
------------------
     ethr =  7.13E-03,  avg # of iterations =  4.0

     total cpu time spent up to now is      242.2 secs

     total energy              =   -6356.56063011 Ry
     estimated scf accuracy    <     508.05151510 Ry

     iteration # 32     ecut=    30.00 Ry     beta= 0.70
     Davidson diagonalization with overlap

---- Real-time Memory Report at c_bands before calling an iterative solver
          1330 MiB given to the printing process from OS
             0 MiB allocation reported by mallinfo(arena+hblkhd)
        137129 MiB available memory on the node where the printing process lives
------------------
     ethr =  7.13E-03,  avg # of iterations =  6.0

     total cpu time spent up to now is      247.0 secs

     total energy              =   -6363.69639603 Ry
     estimated scf accuracy    <     187.78854147 Ry

     iteration # 33     ecut=    30.00 Ry     beta= 0.70
     Davidson diagonalization with overlap

---- Real-time Memory Report at c_bands before calling an iterative solver
          1330 MiB given to the printing process from OS
             0 MiB allocation reported by mallinfo(arena+hblkhd)
        137133 MiB available memory on the node where the printing process lives
------------------
     ethr =  7.13E-03,  avg # of iterations =  3.0

     total cpu time spent up to now is      251.5 secs

     total energy              =   -6363.61990688 Ry
     estimated scf accuracy    <      94.84494632 Ry

     iteration # 34     ecut=    30.00 Ry     beta= 0.70
     Davidson diagonalization with overlap

---- Real-time Memory Report at c_bands before calling an iterative solver
          1330 MiB given to the printing process from OS
             0 MiB allocation reported by mallinfo(arena+hblkhd)
        137134 MiB available memory on the node where the printing process lives
------------------
     ethr =  7.13E-03,  avg # of iterations =  3.0

     total cpu time spent up to now is      256.0 secs

     total energy              =   -6364.50757469 Ry
     estimated scf accuracy    <      68.11083898 Ry

     iteration # 35     ecut=    30.00 Ry     beta= 0.70
     Davidson diagonalization with overlap

---- Real-time Memory Report at c_bands before calling an iterative solver
          1330 MiB given to the printing process from OS
             0 MiB allocation reported by mallinfo(arena+hblkhd)
        137152 MiB available memory on the node where the printing process lives
------------------
     ethr =  7.13E-03,  avg # of iterations =  3.0

     total cpu time spent up to now is      260.6 secs

     total energy              =   -6360.06848652 Ry
     estimated scf accuracy    <     208.75358415 Ry

     iteration # 36     ecut=    30.00 Ry     beta= 0.70
     Davidson diagonalization with overlap

---- Real-time Memory Report at c_bands before calling an iterative solver
          1330 MiB given to the printing process from OS
             0 MiB allocation reported by mallinfo(arena+hblkhd)
        137154 MiB available memory on the node where the printing process lives
------------------
     ethr =  7.13E-03,  avg # of iterations =  5.0

     total cpu time spent up to now is      265.8 secs

     total energy              =   -6357.77340023 Ry
     estimated scf accuracy    <     395.76428612 Ry

     iteration # 37     ecut=    30.00 Ry     beta= 0.70
     Davidson diagonalization with overlap

---- Real-time Memory Report at c_bands before calling an iterative solver
          1330 MiB given to the printing process from OS
             0 MiB allocation reported by mallinfo(arena+hblkhd)
        137156 MiB available memory on the node where the printing process lives
------------------
     ethr =  7.13E-03,  avg # of iterations =  4.0

     total cpu time spent up to now is      270.5 secs

     total energy              =   -6365.13258173 Ry
     estimated scf accuracy    <     127.33812596 Ry

     iteration # 38     ecut=    30.00 Ry     beta= 0.70
     Davidson diagonalization with overlap

---- Real-time Memory Report at c_bands before calling an iterative solver
          1330 MiB given to the printing process from OS
             0 MiB allocation reported by mallinfo(arena+hblkhd)
        137139 MiB available memory on the node where the printing process lives
------------------
     ethr =  7.13E-03,  avg # of iterations =  5.0

     total cpu time spent up to now is      275.1 secs

     total energy              =   -6354.17010910 Ry
     estimated scf accuracy    <     314.95572054 Ry

     iteration # 39     ecut=    30.00 Ry     beta= 0.70
     Davidson diagonalization with overlap

---- Real-time Memory Report at c_bands before calling an iterative solver
          1330 MiB given to the printing process from OS
             0 MiB allocation reported by mallinfo(arena+hblkhd)
        137140 MiB available memory on the node where the printing process lives
------------------
     ethr =  7.13E-03,  avg # of iterations =  5.0

     total cpu time spent up to now is      280.3 secs

     total energy              =   -6357.64404819 Ry
     estimated scf accuracy    <     435.65633155 Ry

     iteration # 40     ecut=    30.00 Ry     beta= 0.70
     Davidson diagonalization with overlap

---- Real-time Memory Report at c_bands before calling an iterative solver
          1330 MiB given to the printing process from OS
             0 MiB allocation reported by mallinfo(arena+hblkhd)
        137141 MiB available memory on the node where the printing process lives
------------------
     ethr =  7.13E-03,  avg # of iterations =  4.0

     total cpu time spent up to now is      285.2 secs

     total energy              =   -6362.19244296 Ry
     estimated scf accuracy    <     111.27300665 Ry

     iteration # 41     ecut=    30.00 Ry     beta= 0.70
     Davidson diagonalization with overlap

---- Real-time Memory Report at c_bands before calling an iterative solver
          1330 MiB given to the printing process from OS
             0 MiB allocation reported by mallinfo(arena+hblkhd)
        137156 MiB available memory on the node where the printing process lives
------------------
     ethr =  7.13E-03,  avg # of iterations =  5.0

     total cpu time spent up to now is      290.4 secs

     total energy              =   -6366.36903247 Ry
     estimated scf accuracy    <      74.65686400 Ry

     iteration # 42     ecut=    30.00 Ry     beta= 0.70
     Davidson diagonalization with overlap

---- Real-time Memory Report at c_bands before calling an iterative solver
          1330 MiB given to the printing process from OS
             0 MiB allocation reported by mallinfo(arena+hblkhd)
        137157 MiB available memory on the node where the printing process lives
------------------
     ethr =  7.13E-03,  avg # of iterations =  4.0

     total cpu time spent up to now is      294.9 secs

     total energy              =   -6366.93136938 Ry
     estimated scf accuracy    <      23.79393347 Ry

     iteration # 43     ecut=    30.00 Ry     beta= 0.70
     Davidson diagonalization with overlap

---- Real-time Memory Report at c_bands before calling an iterative solver
          1330 MiB given to the printing process from OS
             0 MiB allocation reported by mallinfo(arena+hblkhd)
        137140 MiB available memory on the node where the printing process lives
------------------
     ethr =  7.13E-03,  avg # of iterations =  4.0

     total cpu time spent up to now is      299.8 secs

     total energy              =   -6359.33594864 Ry
     estimated scf accuracy    <     234.97380877 Ry

     iteration # 44     ecut=    30.00 Ry     beta= 0.70
     Davidson diagonalization with overlap

---- Real-time Memory Report at c_bands before calling an iterative solver
          1330 MiB given to the printing process from OS
             0 MiB allocation reported by mallinfo(arena+hblkhd)
        137141 MiB available memory on the node where the printing process lives
------------------
     ethr =  7.13E-03,  avg # of iterations =  6.0

     total cpu time spent up to now is      305.3 secs

     total energy              =   -6360.46379467 Ry
     estimated scf accuracy    <     257.14780649 Ry

     iteration # 45     ecut=    30.00 Ry     beta= 0.70
     Davidson diagonalization with overlap

---- Real-time Memory Report at c_bands before calling an iterative solver
          1330 MiB given to the printing process from OS
             0 MiB allocation reported by mallinfo(arena+hblkhd)
        137142 MiB available memory on the node where the printing process lives
------------------
     ethr =  7.13E-03,  avg # of iterations =  7.0

     total cpu time spent up to now is      310.5 secs

     total energy              =   -6361.69432709 Ry
     estimated scf accuracy    <     159.91050779 Ry

     iteration # 46     ecut=    30.00 Ry     beta= 0.70
     Davidson diagonalization with overlap

---- Real-time Memory Report at c_bands before calling an iterative solver
          1330 MiB given to the printing process from OS
             0 MiB allocation reported by mallinfo(arena+hblkhd)
        137158 MiB available memory on the node where the printing process lives
------------------
     ethr =  7.13E-03,  avg # of iterations =  4.0

     total cpu time spent up to now is      315.0 secs

     total energy              =   -6359.16716215 Ry
     estimated scf accuracy    <     271.64193682 Ry

     iteration # 47     ecut=    30.00 Ry     beta= 0.70
     Davidson diagonalization with overlap

---- Real-time Memory Report at c_bands before calling an iterative solver
          1330 MiB given to the printing process from OS
             0 MiB allocation reported by mallinfo(arena+hblkhd)
        137159 MiB available memory on the node where the printing process lives
------------------
     ethr =  7.13E-03,  avg # of iterations =  5.0

     total cpu time spent up to now is      320.3 secs

     total energy              =   -6357.89368620 Ry
     estimated scf accuracy    <     364.97112733 Ry

     iteration # 48     ecut=    30.00 Ry     beta= 0.70
     Davidson diagonalization with overlap

---- Real-time Memory Report at c_bands before calling an iterative solver
          1330 MiB given to the printing process from OS
             0 MiB allocation reported by mallinfo(arena+hblkhd)
        137159 MiB available memory on the node where the printing process lives
------------------
     ethr =  7.13E-03,  avg # of iterations =  5.0

     total cpu time spent up to now is      325.9 secs

     total energy              =   -6355.82285246 Ry
     estimated scf accuracy    <     561.12199269 Ry

     iteration # 49     ecut=    30.00 Ry     beta= 0.70
     Davidson diagonalization with overlap

---- Real-time Memory Report at c_bands before calling an iterative solver
          1330 MiB given to the printing process from OS
             0 MiB allocation reported by mallinfo(arena+hblkhd)
        137142 MiB available memory on the node where the printing process lives
------------------
     ethr =  7.13E-03,  avg # of iterations =  6.0

     total cpu time spent up to now is      333.9 secs

     total energy              =   -6367.03892720 Ry
     estimated scf accuracy    <      34.24843510 Ry

     iteration # 50     ecut=    30.00 Ry     beta= 0.70
     Davidson diagonalization with overlap

---- Real-time Memory Report at c_bands before calling an iterative solver
          1330 MiB given to the printing process from OS
             0 MiB allocation reported by mallinfo(arena+hblkhd)
        137149 MiB available memory on the node where the printing process lives
------------------
     ethr =  7.13E-03,  avg # of iterations =  3.0

     total cpu time spent up to now is      338.5 secs

     total energy              =   -6365.16931566 Ry
     estimated scf accuracy    <     176.25690197 Ry

     iteration # 51     ecut=    30.00 Ry     beta= 0.70
     Davidson diagonalization with overlap

---- Real-time Memory Report at c_bands before calling an iterative solver
          1330 MiB given to the printing process from OS
             0 MiB allocation reported by mallinfo(arena+hblkhd)
        137153 MiB available memory on the node where the printing process lives
------------------
     ethr =  7.13E-03,  avg # of iterations =  2.0

     total cpu time spent up to now is      348.6 secs

     total energy              =   -6367.07187199 Ry
     estimated scf accuracy    <      14.29019314 Ry

     iteration # 52     ecut=    30.00 Ry     beta= 0.70
     Davidson diagonalization with overlap

---- Real-time Memory Report at c_bands before calling an iterative solver
          1330 MiB given to the printing process from OS
             0 MiB allocation reported by mallinfo(arena+hblkhd)
        137150 MiB available memory on the node where the printing process lives
------------------
     ethr =  5.07E-03,  avg # of iterations =  4.0

     total cpu time spent up to now is      360.3 secs

     total energy              =   -6365.99067548 Ry
     estimated scf accuracy    <      94.28600629 Ry

     iteration # 53     ecut=    30.00 Ry     beta= 0.70
     Davidson diagonalization with overlap

---- Real-time Memory Report at c_bands before calling an iterative solver
          1332 MiB given to the printing process from OS
             0 MiB allocation reported by mallinfo(arena+hblkhd)
        137137 MiB available memory on the node where the printing process lives
------------------
     ethr =  5.07E-03,  avg # of iterations =  2.0

     total cpu time spent up to now is      364.7 secs

     total energy              =   -6362.16958108 Ry
     estimated scf accuracy    <     205.86150728 Ry

     iteration # 54     ecut=    30.00 Ry     beta= 0.70
     Davidson diagonalization with overlap

---- Real-time Memory Report at c_bands before calling an iterative solver
          1333 MiB given to the printing process from OS
             0 MiB allocation reported by mallinfo(arena+hblkhd)
        137154 MiB available memory on the node where the printing process lives
------------------
     ethr =  5.07E-03,  avg # of iterations =  3.0

     total cpu time spent up to now is      369.5 secs

     total energy              =   -6360.48353289 Ry
     estimated scf accuracy    <     285.52467466 Ry

     iteration # 55     ecut=    30.00 Ry     beta= 0.70
     Davidson diagonalization with overlap

---- Real-time Memory Report at c_bands before calling an iterative solver
          1333 MiB given to the printing process from OS
             0 MiB allocation reported by mallinfo(arena+hblkhd)
        137154 MiB available memory on the node where the printing process lives
------------------
     ethr =  5.07E-03,  avg # of iterations =  7.0

     total cpu time spent up to now is      377.5 secs

     total energy              =   -6361.50294399 Ry
     estimated scf accuracy    <     238.11721091 Ry

     iteration # 56     ecut=    30.00 Ry     beta= 0.70
     Davidson diagonalization with overlap

---- Real-time Memory Report at c_bands before calling an iterative solver
          1333 MiB given to the printing process from OS
             0 MiB allocation reported by mallinfo(arena+hblkhd)
        137140 MiB available memory on the node where the printing process lives
------------------
     ethr =  5.07E-03,  avg # of iterations =  5.0

     total cpu time spent up to now is      390.4 secs

     total energy              =   -6366.53282509 Ry
     estimated scf accuracy    <      20.50672533 Ry

     iteration # 57     ecut=    30.00 Ry     beta= 0.70
     Davidson diagonalization with overlap

---- Real-time Memory Report at c_bands before calling an iterative solver
          1333 MiB given to the printing process from OS
             0 MiB allocation reported by mallinfo(arena+hblkhd)
        137154 MiB available memory on the node where the printing process lives
------------------
     ethr =  5.07E-03,  avg # of iterations =  2.0

     total cpu time spent up to now is      394.9 secs

     total energy              =   -6364.91137646 Ry
     estimated scf accuracy    <      98.34983115 Ry

     iteration # 58     ecut=    30.00 Ry     beta= 0.70
     Davidson diagonalization with overlap

---- Real-time Memory Report at c_bands before calling an iterative solver
          1333 MiB given to the printing process from OS
             0 MiB allocation reported by mallinfo(arena+hblkhd)
        137151 MiB available memory on the node where the printing process lives
------------------
     ethr =  5.07E-03,  avg # of iterations =  2.0

     total cpu time spent up to now is      400.7 secs

     total energy              =   -6366.79292964 Ry
     estimated scf accuracy    <      13.75900408 Ry

     iteration # 59     ecut=    30.00 Ry     beta= 0.70
     Davidson diagonalization with overlap

---- Real-time Memory Report at c_bands before calling an iterative solver
          1333 MiB given to the printing process from OS
             0 MiB allocation reported by mallinfo(arena+hblkhd)
        137154 MiB available memory on the node where the printing process lives
------------------
     ethr =  4.88E-03,  avg # of iterations =  2.0

     total cpu time spent up to now is      405.1 secs

     total energy              =   -6366.14793429 Ry
     estimated scf accuracy    <     135.01498327 Ry

     iteration # 60     ecut=    30.00 Ry     beta= 0.70
     Davidson diagonalization with overlap

---- Real-time Memory Report at c_bands before calling an iterative solver
          1333 MiB given to the printing process from OS
             0 MiB allocation reported by mallinfo(arena+hblkhd)
        137139 MiB available memory on the node where the printing process lives
------------------
     ethr =  4.88E-03,  avg # of iterations =  1.0

     total cpu time spent up to now is      411.4 secs

     total energy              =   -6366.57559363 Ry
     estimated scf accuracy    <      16.56794815 Ry

     iteration # 61     ecut=    30.00 Ry     beta= 0.70
     Davidson diagonalization with overlap

---- Real-time Memory Report at c_bands before calling an iterative solver
          1333 MiB given to the printing process from OS
             0 MiB allocation reported by mallinfo(arena+hblkhd)
        137140 MiB available memory on the node where the printing process lives
------------------
     ethr =  4.88E-03,  avg # of iterations =  2.0

     total cpu time spent up to now is      422.8 secs

     total energy              =   -6365.89222194 Ry
     estimated scf accuracy    <      44.28100260 Ry

     iteration # 62     ecut=    30.00 Ry     beta= 0.70
     Davidson diagonalization with overlap

---- Real-time Memory Report at c_bands before calling an iterative solver
          1333 MiB given to the printing process from OS
             0 MiB allocation reported by mallinfo(arena+hblkhd)
        137145 MiB available memory on the node where the printing process lives
------------------
     ethr =  4.88E-03,  avg # of iterations =  2.0
     Minimization algorithm failed to find Fermi energy: reverting to bisection
     Possible cause: smearing is larger than the electronic band-gap.

     total cpu time spent up to now is      427.4 secs

     total energy              =   -6366.36423097 Ry
     estimated scf accuracy    <      48.76587115 Ry

     iteration # 63     ecut=    30.00 Ry     beta= 0.70
     Davidson diagonalization with overlap

---- Real-time Memory Report at c_bands before calling an iterative solver
          1333 MiB given to the printing process from OS
             0 MiB allocation reported by mallinfo(arena+hblkhd)
        137148 MiB available memory on the node where the printing process lives
------------------
     ethr =  4.88E-03,  avg # of iterations =  2.0

     total cpu time spent up to now is      445.0 secs

     total energy              =   -6363.58433592 Ry
     estimated scf accuracy    <     212.39339909 Ry

     iteration # 64     ecut=    30.00 Ry     beta= 0.70
     Davidson diagonalization with overlap

---- Real-time Memory Report at c_bands before calling an iterative solver
          1333 MiB given to the printing process from OS
             0 MiB allocation reported by mallinfo(arena+hblkhd)
        137155 MiB available memory on the node where the printing process lives
------------------
     ethr =  4.88E-03,  avg # of iterations =  2.0

     total cpu time spent up to now is      459.6 secs

     total energy              =   -6364.84718116 Ry
     estimated scf accuracy    <     165.77934598 Ry

     iteration # 65     ecut=    30.00 Ry     beta= 0.70
     Davidson diagonalization with overlap

---- Real-time Memory Report at c_bands before calling an iterative solver
          1333 MiB given to the printing process from OS
             0 MiB allocation reported by mallinfo(arena+hblkhd)
        137140 MiB available memory on the node where the printing process lives
------------------
     ethr =  4.88E-03,  avg # of iterations =  2.0

     total cpu time spent up to now is      464.0 secs

     total energy              =   -6364.78643456 Ry
     estimated scf accuracy    <     129.72886386 Ry

     iteration # 66     ecut=    30.00 Ry     beta= 0.70
     Davidson diagonalization with overlap

---- Real-time Memory Report at c_bands before calling an iterative solver
          1333 MiB given to the printing process from OS
             0 MiB allocation reported by mallinfo(arena+hblkhd)
        137142 MiB available memory on the node where the printing process lives
------------------
     ethr =  4.88E-03,  avg # of iterations =  7.0

     total cpu time spent up to now is      468.5 secs

     total energy              =   -6364.77830449 Ry
     estimated scf accuracy    <     161.02318288 Ry

     iteration # 67     ecut=    30.00 Ry     beta= 0.70
     Davidson diagonalization with overlap

---- Real-time Memory Report at c_bands before calling an iterative solver
          1333 MiB given to the printing process from OS
             0 MiB allocation reported by mallinfo(arena+hblkhd)
        137159 MiB available memory on the node where the printing process lives
------------------
     ethr =  4.88E-03,  avg # of iterations =  6.0

     total cpu time spent up to now is      479.2 secs

     total energy              =   -6362.62292368 Ry
     estimated scf accuracy    <     209.90663558 Ry

     iteration # 68     ecut=    30.00 Ry     beta= 0.70
     Davidson diagonalization with overlap

---- Real-time Memory Report at c_bands before calling an iterative solver
          1333 MiB given to the printing process from OS
             0 MiB allocation reported by mallinfo(arena+hblkhd)
        137140 MiB available memory on the node where the printing process lives
------------------
     ethr =  4.88E-03,  avg # of iterations =  9.0

     total cpu time spent up to now is      484.2 secs

     total energy              =   -6364.46979140 Ry
     estimated scf accuracy    <      74.45558485 Ry

     iteration # 69     ecut=    30.00 Ry     beta= 0.70
     Davidson diagonalization with overlap

---- Real-time Memory Report at c_bands before calling an iterative solver
          1333 MiB given to the printing process from OS
             0 MiB allocation reported by mallinfo(arena+hblkhd)
        137142 MiB available memory on the node where the printing process lives
------------------
     ethr =  4.88E-03,  avg # of iterations =  3.0

     total cpu time spent up to now is      488.8 secs

     total energy              =   -6356.14622563 Ry
     estimated scf accuracy    <     176.75420419 Ry

     iteration # 70     ecut=    30.00 Ry     beta= 0.70
     Davidson diagonalization with overlap

---- Real-time Memory Report at c_bands before calling an iterative solver
          1333 MiB given to the printing process from OS
             0 MiB allocation reported by mallinfo(arena+hblkhd)
        137140 MiB available memory on the node where the printing process lives
------------------
     ethr =  4.88E-03,  avg # of iterations =  4.0

     total cpu time spent up to now is      494.1 secs

     total energy              =   -6351.03713262 Ry
     estimated scf accuracy    <     480.00954517 Ry

     iteration # 71     ecut=    30.00 Ry     beta= 0.70
     Davidson diagonalization with overlap

---- Real-time Memory Report at c_bands before calling an iterative solver
          1333 MiB given to the printing process from OS
             0 MiB allocation reported by mallinfo(arena+hblkhd)
        137159 MiB available memory on the node where the printing process lives
------------------
     ethr =  4.88E-03,  avg # of iterations =  6.0

     total cpu time spent up to now is      499.5 secs

     total energy              =   -6360.05257553 Ry
     estimated scf accuracy    <     239.11846308 Ry

     iteration # 72     ecut=    30.00 Ry     beta= 0.70
     Davidson diagonalization with overlap

---- Real-time Memory Report at c_bands before calling an iterative solver
          1333 MiB given to the printing process from OS
             0 MiB allocation reported by mallinfo(arena+hblkhd)
        137160 MiB available memory on the node where the printing process lives
------------------
     ethr =  4.88E-03,  avg # of iterations =  8.0

     total cpu time spent up to now is      505.2 secs

     total energy              =   -6360.53666980 Ry
     estimated scf accuracy    <     159.16069078 Ry

     iteration # 73     ecut=    30.00 Ry     beta= 0.70
     Davidson diagonalization with overlap

---- Real-time Memory Report at c_bands before calling an iterative solver
          1333 MiB given to the printing process from OS
             0 MiB allocation reported by mallinfo(arena+hblkhd)
        137144 MiB available memory on the node where the printing process lives
------------------
     ethr =  4.88E-03,  avg # of iterations =  5.0

     total cpu time spent up to now is      512.3 secs

     total energy              =   -6361.43214798 Ry
     estimated scf accuracy    <     190.87229495 Ry

     iteration # 74     ecut=    30.00 Ry     beta= 0.70
     Davidson diagonalization with overlap

---- Real-time Memory Report at c_bands before calling an iterative solver
          1333 MiB given to the printing process from OS
             0 MiB allocation reported by mallinfo(arena+hblkhd)
        137131 MiB available memory on the node where the printing process lives
------------------
     ethr =  4.88E-03,  avg # of iterations =  6.0

     total cpu time spent up to now is      519.5 secs

     total energy              =   -6366.07267645 Ry
     estimated scf accuracy    <      28.66164799 Ry

     iteration # 75     ecut=    30.00 Ry     beta= 0.70
     Davidson diagonalization with overlap

---- Real-time Memory Report at c_bands before calling an iterative solver
          1333 MiB given to the printing process from OS
             0 MiB allocation reported by mallinfo(arena+hblkhd)
        137151 MiB available memory on the node where the printing process lives
------------------
     ethr =  4.88E-03,  avg # of iterations =  4.0

     total cpu time spent up to now is      524.9 secs

     total energy              =   -6354.41914399 Ry
     estimated scf accuracy    <     429.04881217 Ry

     iteration # 76     ecut=    30.00 Ry     beta= 0.70
     Davidson diagonalization with overlap

---- Real-time Memory Report at c_bands before calling an iterative solver
          1333 MiB given to the printing process from OS
             0 MiB allocation reported by mallinfo(arena+hblkhd)
        137151 MiB available memory on the node where the printing process lives
------------------
     ethr =  4.88E-03,  avg # of iterations =  5.0

     total cpu time spent up to now is      537.9 secs

     total energy              =   -6361.08500413 Ry
     estimated scf accuracy    <     191.32058449 Ry

     iteration # 77     ecut=    30.00 Ry     beta= 0.70
     Davidson diagonalization with overlap

---- Real-time Memory Report at c_bands before calling an iterative solver
          1333 MiB given to the printing process from OS
             0 MiB allocation reported by mallinfo(arena+hblkhd)
        137135 MiB available memory on the node where the printing process lives
------------------
     ethr =  4.88E-03,  avg # of iterations =  4.0

     total cpu time spent up to now is      543.2 secs

     total energy              =   -6356.31200878 Ry
     estimated scf accuracy    <     350.61217772 Ry

     iteration # 78     ecut=    30.00 Ry     beta= 0.70
     Davidson diagonalization with overlap

---- Real-time Memory Report at c_bands before calling an iterative solver
          1333 MiB given to the printing process from OS
             0 MiB allocation reported by mallinfo(arena+hblkhd)
        137154 MiB available memory on the node where the printing process lives
------------------
     ethr =  4.88E-03,  avg # of iterations =  7.0

     total cpu time spent up to now is      548.8 secs

     total energy              =   -6360.38899666 Ry
     estimated scf accuracy    <     136.51139437 Ry

     iteration # 79     ecut=    30.00 Ry     beta= 0.70
     Davidson diagonalization with overlap

---- Real-time Memory Report at c_bands before calling an iterative solver
          1333 MiB given to the printing process from OS
             0 MiB allocation reported by mallinfo(arena+hblkhd)
        137154 MiB available memory on the node where the printing process lives
------------------
     ethr =  4.88E-03,  avg # of iterations =  5.0

     total cpu time spent up to now is      565.8 secs

     total energy              =   -6357.28783272 Ry
     estimated scf accuracy    <     293.88011114 Ry

     iteration # 80     ecut=    30.00 Ry     beta= 0.70
     Davidson diagonalization with overlap

---- Real-time Memory Report at c_bands before calling an iterative solver
          1333 MiB given to the printing process from OS
             0 MiB allocation reported by mallinfo(arena+hblkhd)
        137150 MiB available memory on the node where the printing process lives
------------------
     ethr =  4.88E-03,  avg # of iterations =  6.0

     total cpu time spent up to now is      571.3 secs

     total energy              =   -6361.37530612 Ry
     estimated scf accuracy    <     244.02896086 Ry

     iteration # 81     ecut=    30.00 Ry     beta= 0.70
     Davidson diagonalization with overlap

---- Real-time Memory Report at c_bands before calling an iterative solver
          1333 MiB given to the printing process from OS
             0 MiB allocation reported by mallinfo(arena+hblkhd)
        137157 MiB available memory on the node where the printing process lives
------------------
     ethr =  4.88E-03,  avg # of iterations =  5.0

     total cpu time spent up to now is      576.0 secs

     total energy              =   -6366.90256888 Ry
     estimated scf accuracy    <      28.08469373 Ry

     iteration # 82     ecut=    30.00 Ry     beta= 0.70
     Davidson diagonalization with overlap

---- Real-time Memory Report at c_bands before calling an iterative solver
          1333 MiB given to the printing process from OS
             0 MiB allocation reported by mallinfo(arena+hblkhd)
        137156 MiB available memory on the node where the printing process lives
------------------
     ethr =  4.88E-03,  avg # of iterations =  5.0

     total cpu time spent up to now is      580.8 secs

     total energy              =   -6363.80751948 Ry
     estimated scf accuracy    <     154.63993687 Ry

     iteration # 83     ecut=    30.00 Ry     beta= 0.70
     Davidson diagonalization with overlap

---- Real-time Memory Report at c_bands before calling an iterative solver
          1333 MiB given to the printing process from OS
             0 MiB allocation reported by mallinfo(arena+hblkhd)
        137155 MiB available memory on the node where the printing process lives
------------------
     ethr =  4.88E-03,  avg # of iterations =  6.0

     total cpu time spent up to now is      586.2 secs

     total energy              =   -6362.24121296 Ry
     estimated scf accuracy    <     190.80827741 Ry

     iteration # 84     ecut=    30.00 Ry     beta= 0.70
     Davidson diagonalization with overlap

---- Real-time Memory Report at c_bands before calling an iterative solver
          1333 MiB given to the printing process from OS
             0 MiB allocation reported by mallinfo(arena+hblkhd)
        137141 MiB available memory on the node where the printing process lives
------------------
     ethr =  4.88E-03,  avg # of iterations =  4.0

     total cpu time spent up to now is      591.1 secs

     total energy              =   -6362.58365655 Ry
     estimated scf accuracy    <     172.86764208 Ry

     iteration # 85     ecut=    30.00 Ry     beta= 0.70
     Davidson diagonalization with overlap

---- Real-time Memory Report at c_bands before calling an iterative solver
          1333 MiB given to the printing process from OS
             0 MiB allocation reported by mallinfo(arena+hblkhd)
        137139 MiB available memory on the node where the printing process lives
------------------
     ethr =  4.88E-03,  avg # of iterations =  4.0

     total cpu time spent up to now is      595.8 secs

     total energy              =   -6362.50070037 Ry
     estimated scf accuracy    <     102.97269501 Ry

     iteration # 86     ecut=    30.00 Ry     beta= 0.70
     Davidson diagonalization with overlap

---- Real-time Memory Report at c_bands before calling an iterative solver
          1333 MiB given to the printing process from OS
             0 MiB allocation reported by mallinfo(arena+hblkhd)
        137161 MiB available memory on the node where the printing process lives
------------------
     ethr =  4.88E-03,  avg # of iterations =  5.0

     total cpu time spent up to now is      602.8 secs

     total energy              =   -6361.37024215 Ry
     estimated scf accuracy    <     304.98627648 Ry

     iteration # 87     ecut=    30.00 Ry     beta= 0.70
     Davidson diagonalization with overlap

---- Real-time Memory Report at c_bands before calling an iterative solver
          1333 MiB given to the printing process from OS
             0 MiB allocation reported by mallinfo(arena+hblkhd)
        137155 MiB available memory on the node where the printing process lives
------------------
     ethr =  4.88E-03,  avg # of iterations =  6.0

     total cpu time spent up to now is      608.9 secs

     total energy              =   -6361.99764442 Ry
     estimated scf accuracy    <     236.87840008 Ry

     iteration # 88     ecut=    30.00 Ry     beta= 0.70
     Davidson diagonalization with overlap

---- Real-time Memory Report at c_bands before calling an iterative solver
          1333 MiB given to the printing process from OS
             0 MiB allocation reported by mallinfo(arena+hblkhd)
        137141 MiB available memory on the node where the printing process lives
------------------
     ethr =  4.88E-03,  avg # of iterations =  6.0

     total cpu time spent up to now is      613.9 secs

     total energy              =   -6364.79061995 Ry
     estimated scf accuracy    <      86.57242642 Ry

     iteration # 89     ecut=    30.00 Ry     beta= 0.70
     Davidson diagonalization with overlap

---- Real-time Memory Report at c_bands before calling an iterative solver
          1333 MiB given to the printing process from OS
             0 MiB allocation reported by mallinfo(arena+hblkhd)
        137144 MiB available memory on the node where the printing process lives
------------------
     ethr =  4.88E-03,  avg # of iterations =  3.0

     total cpu time spent up to now is      618.4 secs

     total energy              =   -6359.13966398 Ry
     estimated scf accuracy    <     282.51015004 Ry

     iteration # 90     ecut=    30.00 Ry     beta= 0.70
     Davidson diagonalization with overlap

---- Real-time Memory Report at c_bands before calling an iterative solver
          1334 MiB given to the printing process from OS
             0 MiB allocation reported by mallinfo(arena+hblkhd)
        137146 MiB available memory on the node where the printing process lives
------------------
     ethr =  4.88E-03,  avg # of iterations =  6.0

     total cpu time spent up to now is      623.4 secs

     total energy              =   -6360.30024514 Ry
     estimated scf accuracy    <     150.13551696 Ry

     iteration # 91     ecut=    30.00 Ry     beta= 0.70
     Davidson diagonalization with overlap

---- Real-time Memory Report at c_bands before calling an iterative solver
          1334 MiB given to the printing process from OS
             0 MiB allocation reported by mallinfo(arena+hblkhd)
        137162 MiB available memory on the node where the printing process lives
------------------
     ethr =  4.88E-03,  avg # of iterations =  4.0

     total cpu time spent up to now is      631.0 secs

     total energy              =   -6362.12858947 Ry
     estimated scf accuracy    <     149.10322854 Ry

     iteration # 92     ecut=    30.00 Ry     beta= 0.70
     Davidson diagonalization with overlap

---- Real-time Memory Report at c_bands before calling an iterative solver
          1334 MiB given to the printing process from OS
             0 MiB allocation reported by mallinfo(arena+hblkhd)
        137161 MiB available memory on the node where the printing process lives
------------------
     ethr =  4.88E-03,  avg # of iterations =  5.0

     total cpu time spent up to now is      637.4 secs

     total energy              =   -6364.64973637 Ry
     estimated scf accuracy    <     131.77228051 Ry

     iteration # 93     ecut=    30.00 Ry     beta= 0.70
     Davidson diagonalization with overlap

---- Real-time Memory Report at c_bands before calling an iterative solver
          1334 MiB given to the printing process from OS
             0 MiB allocation reported by mallinfo(arena+hblkhd)
        137147 MiB available memory on the node where the printing process lives
------------------
     ethr =  4.88E-03,  avg # of iterations =  6.0

     total cpu time spent up to now is      649.7 secs

     total energy              =   -6360.42609705 Ry
     estimated scf accuracy    <     135.47747610 Ry

     iteration # 94     ecut=    30.00 Ry     beta= 0.70
     Davidson diagonalization with overlap

---- Real-time Memory Report at c_bands before calling an iterative solver
          1334 MiB given to the printing process from OS
             0 MiB allocation reported by mallinfo(arena+hblkhd)
        137162 MiB available memory on the node where the printing process lives
------------------
     ethr =  4.88E-03,  avg # of iterations =  4.0

     total cpu time spent up to now is      655.0 secs

     total energy              =   -6354.24147934 Ry
     estimated scf accuracy    <     310.53672922 Ry

     iteration # 95     ecut=    30.00 Ry     beta= 0.70
     Davidson diagonalization with overlap

---- Real-time Memory Report at c_bands before calling an iterative solver
          1334 MiB given to the printing process from OS
             0 MiB allocation reported by mallinfo(arena+hblkhd)
        137164 MiB available memory on the node where the printing process lives
------------------
     ethr =  4.88E-03,  avg # of iterations =  5.0

     total cpu time spent up to now is      660.8 secs

     total energy              =   -6356.28717769 Ry
     estimated scf accuracy    <     397.33512343 Ry

     iteration # 96     ecut=    30.00 Ry     beta= 0.70
     Davidson diagonalization with overlap

---- Real-time Memory Report at c_bands before calling an iterative solver
          1334 MiB given to the printing process from OS
             0 MiB allocation reported by mallinfo(arena+hblkhd)
        137166 MiB available memory on the node where the printing process lives
------------------
     ethr =  4.88E-03,  avg # of iterations =  5.0

     total cpu time spent up to now is      666.0 secs

     total energy              =   -6361.71681618 Ry
     estimated scf accuracy    <     193.85535535 Ry

     iteration # 97     ecut=    30.00 Ry     beta= 0.70
     Davidson diagonalization with overlap

---- Real-time Memory Report at c_bands before calling an iterative solver
          1334 MiB given to the printing process from OS
             0 MiB allocation reported by mallinfo(arena+hblkhd)
        137153 MiB available memory on the node where the printing process lives
------------------
     ethr =  4.88E-03,  avg # of iterations =  6.0

     total cpu time spent up to now is      670.8 secs

     total energy              =   -6354.63335499 Ry
     estimated scf accuracy    <     312.79199981 Ry

     iteration # 98     ecut=    30.00 Ry     beta= 0.70
     Davidson diagonalization with overlap

---- Real-time Memory Report at c_bands before calling an iterative solver
          1334 MiB given to the printing process from OS
             0 MiB allocation reported by mallinfo(arena+hblkhd)
        137153 MiB available memory on the node where the printing process lives
------------------
     ethr =  4.88E-03,  avg # of iterations =  6.0

     total cpu time spent up to now is      676.7 secs

     total energy              =   -6364.01053908 Ry
     estimated scf accuracy    <     153.85021128 Ry

     iteration # 99     ecut=    30.00 Ry     beta= 0.70
     Davidson diagonalization with overlap

---- Real-time Memory Report at c_bands before calling an iterative solver
          1334 MiB given to the printing process from OS
             0 MiB allocation reported by mallinfo(arena+hblkhd)
        137170 MiB available memory on the node where the printing process lives
------------------
     ethr =  4.88E-03,  avg # of iterations =  6.0

     total cpu time spent up to now is      681.9 secs

     total energy              =   -6362.08267063 Ry
     estimated scf accuracy    <      66.05345081 Ry

     iteration #100     ecut=    30.00 Ry     beta= 0.70
     Davidson diagonalization with overlap

---- Real-time Memory Report at c_bands before calling an iterative solver
          1334 MiB given to the printing process from OS
             0 MiB allocation reported by mallinfo(arena+hblkhd)
        137171 MiB available memory on the node where the printing process lives
------------------
     ethr =  4.88E-03,  avg # of iterations =  6.0

     total cpu time spent up to now is      687.4 secs

     total energy              =   -6348.69524599 Ry
     estimated scf accuracy    <     529.87716842 Ry

     End of self-consistent calculation

     convergence NOT achieved after 100 iterations: stopping

     Writing config to output data dir new_calculations/myprefix.save/
     Message from routine punch:
     wavefunctions written to file
 
     init_run     :    649.40s CPU     23.96s WALL (       1 calls)
     electrons    :  19712.52s CPU    663.14s WALL (       1 calls)

     Called by init_run:
     wfcinit      :    369.24s CPU     12.53s WALL (       1 calls)
     wfcinit:atom :      0.15s CPU      0.01s WALL (       1 calls)
     wfcinit:wfcr :    368.16s CPU     12.49s WALL (       1 calls)
     potinit      :     87.00s CPU      3.06s WALL (       1 calls)
     hinit0       :    177.51s CPU      7.80s WALL (       1 calls)

     Called by electrons:
     c_bands      :  12296.15s CPU    399.87s WALL (     100 calls)
     sum_band     :   2791.45s CPU    108.20s WALL (     100 calls)
     v_of_rho     :    133.95s CPU      4.59s WALL (     101 calls)
     v_h          :     10.18s CPU      0.34s WALL (     101 calls)
     v_xc         :    123.52s CPU      4.25s WALL (     101 calls)
     newd         :    908.04s CPU     30.89s WALL (     101 calls)
     PAW_pot      :   3555.23s CPU    118.79s WALL (     101 calls)
     mix_rho      :     39.90s CPU      1.32s WALL (     100 calls)

     Called by c_bands:
     init_us_2    :      5.61s CPU      0.20s WALL (     201 calls)
     init_us_2:cp :      5.31s CPU      0.19s WALL (     201 calls)
     regterg      :  12258.83s CPU    398.63s WALL (     100 calls)

     Called by sum_band:
     sum_band:wei :      0.46s CPU      0.02s WALL (     100 calls)
     sum_band:loo :   1993.17s CPU     64.32s WALL (     100 calls)
     sum_band:buf :      0.07s CPU      0.00s WALL (     100 calls)
     sum_band:ini :      3.24s CPU      0.11s WALL (     100 calls)
     sum_band:cal :      4.87s CPU      0.16s WALL (     100 calls)
     sum_band:bec :      1.69s CPU      0.06s WALL (     100 calls)
     addusdens    :    775.92s CPU     43.13s WALL (     100 calls)
     addusd:skk   :      5.43s CPU      0.35s WALL (     300 calls)
     addusd:dgemm :     69.59s CPU     19.62s WALL (     300 calls)
     addusd:qvan2 :    676.03s CPU     21.99s WALL (     300 calls)

     Called by *egterg:
     rdiaghg      :    445.62s CPU     14.85s WALL (     518 calls)
     regterg:over :     18.98s CPU      0.63s WALL (     418 calls)
     regterg:upda :     18.15s CPU      0.60s WALL (     418 calls)
     regterg:last :     40.45s CPU      1.34s WALL (     218 calls)
     h_psi        :  12020.88s CPU    390.90s WALL (     519 calls)
     s_psi        :      7.27s CPU      0.24s WALL (     519 calls)
     g_psi        :      1.01s CPU      0.03s WALL (     418 calls)

     Called by h_psi:
     h_psi:calbec :     16.71s CPU      0.56s WALL (     519 calls)
     vloc_psi     :  11987.29s CPU    389.78s WALL (     519 calls)
     add_vuspsi   :     10.80s CPU      0.36s WALL (     519 calls)

     General routines
     calbec       :     20.65s CPU      0.69s WALL (     619 calls)
     fft          :    179.77s CPU      6.33s WALL (    1111 calls)
     ffts         :     51.97s CPU      1.81s WALL (     201 calls)
     fftw         :  13285.76s CPU    431.10s WALL (   53220 calls)
     interpolate  :     59.33s CPU      2.05s WALL (     101 calls)
     davcio       :      0.62s CPU      0.26s WALL (      19 calls)
 
     Parallel routines

     PAW routines
     PAW_pot      :   3555.23s CPU    118.79s WALL (     101 calls)
     PAW_symme    :     11.57s CPU      0.39s WALL (     201 calls)
 
     PWSCF        :      5h39m CPU  11m27.90s WALL

 
   This run was terminated on:  11:53:21  20May2023            

=------------------------------------------------------------------------------=
   JOB DONE.
=------------------------------------------------------------------------------=
