
     Program PWSCF v.7.0 starts on 21May2023 at  0: 4:12 

     This program is part of the open-source Quantum ESPRESSO suite
     for quantum simulation of materials; please cite
         "P. Giannozzi et al., J. Phys.:Condens. Matter 21 395502 (2009);
         "P. Giannozzi et al., J. Phys.:Condens. Matter 29 465901 (2017);
         "P. Giannozzi et al., J. Chem. Phys. 152 154105 (2020);
          URL http://www.quantum-espresso.org", 
     in publications or presentations arising from this work. More details at
     http://www.quantum-espresso.org/quote

     Parallel version (MPI & OpenMP), running on      32 processor cores
     Number of MPI processes:                 1
     Threads/MPI process:                    32

     MPI processes distributed on     1 nodes
     139839 MiB available memory on the printing compute node when the environment starts
 
     Reading input from espresso_1840.pwi
Warning: card &CELL ignored
Warning: card / ignored

     Current dimensions of program PWSCF are:
     Max number of different atomic species (ntypx) = 10
     Max number of k-points (npk) =  40000
     Max angular momentum in pseudopotentials (lmaxx) =  4

     gamma-point specific algorithms are used
     Message from routine setup:
     using ibrav=0 with symmetry is DISCOURAGED, use correct ibrav instead

     Subspace diagonalization in iterative solution of the eigenvalue problem:
     a serial algorithm will be used

 
     G-vector sticks info
     --------------------
     sticks:   dense  smooth     PW     G-vecs:    dense   smooth      PW
     Sum        1483     745    187               112507    39885    4973
 
     Using Slab Decomposition
 


     bravais-lattice index     =            0
     lattice parameter (alat)  =       9.4454  a.u.
     unit-cell volume          =    1791.4032 (a.u.)^3
     number of atoms/cell      =           18
     number of atomic types    =            2
     number of electrons       =       304.00
     number of Kohn-Sham states=          182
     kinetic-energy cutoff     =      30.0000  Ry
     charge density cutoff     =     240.0000  Ry
     scf convergence threshold =      1.0E-06
     mixing beta               =       0.7000
     number of iterations used =            8  plain     mixing
     Exchange-correlation=  SLA  PW   PBX  PBC
                           (   1   4   3   4   0   0   0)

     celldm(1)=   9.445442  celldm(2)=   0.000000  celldm(3)=   0.000000
     celldm(4)=   0.000000  celldm(5)=   0.000000  celldm(6)=   0.000000

     crystal axes: (cart. coord. in units of alat)
               a(1) = (   1.000000   0.000000   0.000000 )  
               a(2) = (   0.500000   0.866025   0.000000 )  
               a(3) = (   0.500000   0.288675   2.454685 )  

     reciprocal axes: (cart. coord. in units 2 pi/alat)
               b(1) = (  1.000000 -0.577350 -0.135795 )  
               b(2) = (  0.000000  1.154700 -0.135795 )  
               b(3) = (  0.000000  0.000000  0.407384 )  


     PseudoPot. # 1 for Pr read from file:
     /home/pragov/projects/rrg-bengioy-ad/pragov/crystal_structure_design/SSSP/Pr.GGA-PBE-paw-v1.0.UPF
     MD5 check sum: b5e1e58e76df433569641143f671cc27
     Pseudo is Projector augmented-wave + core cor, Zval = 13.0
     Generated using ATOMPAW code
     Shape of augmentation charge: BESSEL
     Using radial grid of 1103 points,  8 beta functions with: 
                l(1) =   0
                l(2) =   0
                l(3) =   1
                l(4) =   1
                l(5) =   2
                l(6) =   2
                l(7) =   3
                l(8) =   3
     Q(r) pseudized with 0 coefficients 


     PseudoPot. # 2 for Ni read from file:
     /home/pragov/projects/rrg-bengioy-ad/pragov/crystal_structure_design/SSSP/ni_pbe_v1.4.uspp.F.UPF
     MD5 check sum: 1ee80287db30b12d2bc1f57a5b5d6409
     Pseudo is Ultrasoft + core correction, Zval = 18.0
     Generated by new atomic code, or converted to UPF format
     Using radial grid of  865 points,  6 beta functions with: 
                l(1) =   0
                l(2) =   0
                l(3) =   1
                l(4) =   1
                l(5) =   2
                l(6) =   2
     Q(r) pseudized with 10 coefficients,  rinner =    0.980   0.980   0.980
                                                       0.980   0.980

     atomic species   valence    mass     pseudopotential
        Pr            13.00   140.90766     Pr( 1.00)
        Ni            18.00    58.69340     Ni( 1.00)

     12 Sym. Ops., with inversion, found


                                    s                        frac. trans.

      isym =  1     identity                                     

 cryst.   s( 1) = (     1          0          0      )
                  (     0          1          0      )
                  (     0          0          1      )

 cart.    s( 1) = (  1.0000000  0.0000000  0.0000000 )
                  (  0.0000000  1.0000000 -0.0000000 )
                  (  0.0000000  0.0000000  1.0000000 )


      isym =  2     180 deg rotation - cart. axis [1,0,0]        

 cryst.   s( 2) = (     1          0          0      )
                  (     1         -1          0      )
                  (     1          0         -1      )

 cart.    s( 2) = (  1.0000000  0.0000001 -0.0000000 )
                  (  0.0000000 -1.0000000  0.0000000 )
                  (  0.0000000  0.0000000 -1.0000000 )


      isym =  3     120 deg rotation - cryst. axis [0,0,1]       

 cryst.   s( 3) = (    -1          1          0      )
                  (    -1          0          0      )
                  (    -1          0          1      )

 cart.    s( 3) = ( -0.5000000 -0.8660253 -0.0000000 )
                  (  0.8660255 -0.5000000 -0.0000001 )
                  (  0.0000000  0.0000000  1.0000000 )


      isym =  4     120 deg rotation - cryst. axis [0,0,-1]      

 cryst.   s( 4) = (     0         -1          0      )
                  (     1         -1          0      )
                  (     0         -1          1      )

 cart.    s( 4) = ( -0.5000000  0.8660253  0.0000000 )
                  ( -0.8660255 -0.5000000 -0.0000000 )
                  (  0.0000000  0.0000000  1.0000000 )


      isym =  5     180 deg rotation - cryst. axis [0,1,0]       

 cryst.   s( 5) = (     0         -1          0      )
                  (    -1          0          0      )
                  (     0          0         -1      )

 cart.    s( 5) = ( -0.5000000 -0.8660254 -0.0000000 )
                  ( -0.8660255  0.5000000  0.0000001 )
                  (  0.0000000  0.0000000 -1.0000000 )


      isym =  6     180 deg rotation - cryst. axis [1,1,0]       

 cryst.   s( 6) = (    -1          1          0      )
                  (     0          1          0      )
                  (     0          1         -1      )

 cart.    s( 6) = ( -0.5000000  0.8660253  0.0000000 )
                  (  0.8660255  0.5000000  0.0000000 )
                  (  0.0000000  0.0000000 -1.0000000 )


      isym =  7     inversion                                    

 cryst.   s( 7) = (    -1          0          0      )
                  (     0         -1          0      )
                  (     0          0         -1      )

 cart.    s( 7) = ( -1.0000000 -0.0000000 -0.0000000 )
                  (  0.0000000 -1.0000000  0.0000000 )
                  (  0.0000000  0.0000000 -1.0000000 )


      isym =  8     inv. 180 deg rotation - cart. axis [1,0,0]   

 cryst.   s( 8) = (    -1          0          0      )
                  (    -1          1          0      )
                  (    -1          0          1      )

 cart.    s( 8) = ( -1.0000000 -0.0000001  0.0000000 )
                  (  0.0000000  1.0000000 -0.0000000 )
                  (  0.0000000  0.0000000  1.0000000 )


      isym =  9     inv. 120 deg rotation - cryst. axis [0,0,1]  

 cryst.   s( 9) = (     1         -1          0      )
                  (     1          0          0      )
                  (     1          0         -1      )

 cart.    s( 9) = (  0.5000000  0.8660253  0.0000000 )
                  ( -0.8660255  0.5000000  0.0000001 )
                  (  0.0000000  0.0000000 -1.0000000 )


      isym = 10     inv. 120 deg rotation - cryst. axis [0,0,-1] 

 cryst.   s(10) = (     0          1          0      )
                  (    -1          1          0      )
                  (     0          1         -1      )

 cart.    s(10) = (  0.5000000 -0.8660253 -0.0000000 )
                  (  0.8660255  0.5000000  0.0000000 )
                  (  0.0000000  0.0000000 -1.0000000 )


      isym = 11     inv. 180 deg rotation - cryst. axis [0,1,0]  

 cryst.   s(11) = (     0          1          0      )
                  (     1          0          0      )
                  (     0          0          1      )

 cart.    s(11) = (  0.5000000  0.8660254  0.0000000 )
                  (  0.8660255 -0.5000000 -0.0000001 )
                  (  0.0000000  0.0000000  1.0000000 )


      isym = 12     inv. 180 deg rotation - cryst. axis [1,1,0]  

 cryst.   s(12) = (     1         -1          0      )
                  (     0         -1          0      )
                  (     0         -1          1      )

 cart.    s(12) = (  0.5000000 -0.8660253 -0.0000000 )
                  ( -0.8660255 -0.5000000 -0.0000000 )
                  (  0.0000000  0.0000000  1.0000000 )


   Cartesian axes

     site n.     atom                  positions (alat units)
         1           Pr  tau(   1) = (   1.4999995   0.8660252   0.3748427  )
         2           Pr  tau(   2) = (   0.5000005   0.2886754   2.0798425  )
         3           Pr  tau(   3) = (   1.5000005   0.8660257   1.0845069  )
         4           Pr  tau(   4) = (   0.4999995   0.2886748   1.3701782  )
         5           Ni  tau(   5) = (   1.0000000   0.5773503   1.2273426  )
         6           Ni  tau(   6) = (   1.4999995   0.8660251   2.0497456  )
         7           Ni  tau(   7) = (   0.5000005   0.2886754   0.4049396  )
         8           Ni  tau(   8) = (   1.0000000   0.5773503   0.4015153  )
         9           Ni  tau(   9) = (   1.0000000   0.5773503   2.0531698  )
        10           Ni  tau(  10) = (   0.2500000   0.4330127   0.0000000  )
        11           Ni  tau(  11) = (   0.5000000   0.0000000   0.0000000  )
        12           Ni  tau(  12) = (   0.7500000   0.4330127   0.0000000  )
        13           Ni  tau(  13) = (   0.7507595   0.4334512   0.7995400  )
        14           Ni  tau(  14) = (   1.2492405   0.4334512   0.7995400  )
        15           Ni  tau(  15) = (   1.0000000   0.8651485   0.7995400  )
        16           Ni  tau(  16) = (   1.2492405   0.7212494   1.6551451  )
        17           Ni  tau(  17) = (   0.7507595   0.7212494   1.6551451  )
        18           Ni  tau(  18) = (   1.0000000   0.2895521   1.6551451  )

   Crystallographic axes

     site n.     atom                  positions (cryst. coord.)
         1           Pr  tau(   1) = (  0.9490980  0.9490980  0.1527050  )
         2           Pr  tau(   2) = (  0.0509020  0.0509020  0.8472950  )
         3           Pr  tau(   3) = (  0.8527300  0.8527300  0.4418110  )
         4           Pr  tau(   4) = (  0.1472700  0.1472700  0.5581890  )
         5           Ni  tau(   5) = (  0.5000000  0.5000000  0.5000000  )
         6           Ni  tau(   6) = (  0.7216550  0.7216550  0.8350340  )
         7           Ni  tau(   7) = (  0.2783450  0.2783450  0.1649660  )
         8           Ni  tau(   8) = (  0.6121430  0.6121430  0.1635710  )
         9           Ni  tau(   9) = (  0.3878570  0.3878570  0.8364290  )
        10           Ni  tau(  10) = ( -0.0000000  0.5000000  0.0000000  )
        11           Ni  tau(  11) = (  0.5000000  0.0000000  0.0000000  )
        12           Ni  tau(  12) = (  0.5000000  0.5000000  0.0000000  )
        13           Ni  tau(  13) = (  0.3919330  0.3919330  0.3257200  )
        14           Ni  tau(  14) = (  0.8904140  0.3919330  0.3257200  )
        15           Ni  tau(  15) = (  0.3919330  0.8904140  0.3257200  )
        16           Ni  tau(  16) = (  0.6080670  0.6080670  0.6742800  )
        17           Ni  tau(  17) = (  0.1095860  0.6080670  0.6742800  )
        18           Ni  tau(  18) = (  0.6080670  0.1095860  0.6742800  )

     number of k points=     1  Methfessel-Paxton smearing, width (Ry)=  0.0010
                       cart. coord. in units 2pi/alat
        k(    1) = (   0.0000000   0.0000000   0.0000000), wk =   2.0000000

                       cryst. coord.
        k(    1) = (   0.0000000   0.0000000   0.0000000), wk =   2.0000000

     Dense  grid:    56254 G-vectors     FFT dimensions: (  48,  48, 120)

     Smooth grid:    19943 G-vectors     FFT dimensions: (  36,  36,  90)

     Dynamical RAM for                 wfc:       6.90 MB

     Dynamical RAM for     wfc (w. buffer):       6.90 MB

     Dynamical RAM for           str. fact:       1.72 MB

     Dynamical RAM for           local pot:       0.00 MB

     Dynamical RAM for          nlocal pot:      14.41 MB

     Dynamical RAM for                qrad:       5.97 MB

     Dynamical RAM for          rho,v,vnew:       8.90 MB

     Dynamical RAM for               rhoin:       2.97 MB

     Dynamical RAM for            rho*nmix:      13.73 MB

     Dynamical RAM for           G-vectors:       3.37 MB

     Dynamical RAM for          h,s,v(r/c):       3.03 MB

     Dynamical RAM for          <psi|beta>:       0.53 MB

     Dynamical RAM for                 psi:      13.80 MB

     Dynamical RAM for                hpsi:      13.80 MB

     Dynamical RAM for                spsi:      13.80 MB

     Dynamical RAM for      wfcinit/wfcrot:      25.71 MB

     Dynamical RAM for           addusdens:     488.41 MB

     Dynamical RAM for          addusforce:     511.33 MB

     Dynamical RAM for         addusstress:     499.57 MB

     Estimated static dynamical RAM per process >      57.36 MB

     Estimated max dynamical RAM per process >     582.42 MB

     Check: negative core charge=   -0.000009

     Initial potential from superposition of free atoms

     starting charge     275.9703, renormalised to     304.0000
     Starting wfcs are  310 randomized atomic wfcs
     Checking if some PAW data can be deallocated... 

     total cpu time spent up to now is       19.6 secs

     Self-consistent Calculation

     iteration #  1     ecut=    30.00 Ry     beta= 0.70
     Davidson diagonalization with overlap

---- Real-time Memory Report at c_bands before calling an iterative solver
           800 MiB given to the printing process from OS
             0 MiB allocation reported by mallinfo(arena+hblkhd)
        139467 MiB available memory on the node where the printing process lives
------------------
     ethr =  1.00E-02,  avg # of iterations =  4.0

     total cpu time spent up to now is       30.3 secs

     total energy              =   -5973.35442881 Ry
     estimated scf accuracy    <    1105.96777942 Ry

     iteration #  2     ecut=    30.00 Ry     beta= 0.70
     Davidson diagonalization with overlap

---- Real-time Memory Report at c_bands before calling an iterative solver
          1142 MiB given to the printing process from OS
             0 MiB allocation reported by mallinfo(arena+hblkhd)
        139377 MiB available memory on the node where the printing process lives
------------------
     ethr =  1.00E-02,  avg # of iterations = 14.0

     total cpu time spent up to now is       46.4 secs

     total energy              =   -5937.65067879 Ry
     estimated scf accuracy    <   10801.09088865 Ry

     iteration #  3     ecut=    30.00 Ry     beta= 0.70
     Davidson diagonalization with overlap

---- Real-time Memory Report at c_bands before calling an iterative solver
          1145 MiB given to the printing process from OS
             0 MiB allocation reported by mallinfo(arena+hblkhd)
        139385 MiB available memory on the node where the printing process lives
------------------
     ethr =  1.00E-02,  avg # of iterations = 10.0

     total cpu time spent up to now is       54.0 secs

     total energy              =   -6873.88728513 Ry
     estimated scf accuracy    <    2351.29155091 Ry

     iteration #  4     ecut=    30.00 Ry     beta= 0.70
     Davidson diagonalization with overlap

---- Real-time Memory Report at c_bands before calling an iterative solver
          1147 MiB given to the printing process from OS
             0 MiB allocation reported by mallinfo(arena+hblkhd)
        139374 MiB available memory on the node where the printing process lives
------------------
     ethr =  1.00E-02,  avg # of iterations =  8.0

     total cpu time spent up to now is       58.3 secs

     total energy              =   -6934.12177721 Ry
     estimated scf accuracy    <     614.70045647 Ry

     iteration #  5     ecut=    30.00 Ry     beta= 0.70
     Davidson diagonalization with overlap

---- Real-time Memory Report at c_bands before calling an iterative solver
          1147 MiB given to the printing process from OS
             0 MiB allocation reported by mallinfo(arena+hblkhd)
        139375 MiB available memory on the node where the printing process lives
------------------
     ethr =  1.00E-02,  avg # of iterations =  4.0

     total cpu time spent up to now is       61.7 secs

     total energy              =   -6898.43022435 Ry
     estimated scf accuracy    <     462.92376085 Ry

     iteration #  6     ecut=    30.00 Ry     beta= 0.70
     Davidson diagonalization with overlap

---- Real-time Memory Report at c_bands before calling an iterative solver
          1147 MiB given to the printing process from OS
             0 MiB allocation reported by mallinfo(arena+hblkhd)
        139376 MiB available memory on the node where the printing process lives
------------------
     ethr =  1.00E-02,  avg # of iterations =  4.0

     total cpu time spent up to now is       65.0 secs

     total energy              =   -6872.30607751 Ry
     estimated scf accuracy    <     301.53289013 Ry

     iteration #  7     ecut=    30.00 Ry     beta= 0.70
     Davidson diagonalization with overlap

---- Real-time Memory Report at c_bands before calling an iterative solver
          1147 MiB given to the printing process from OS
             0 MiB allocation reported by mallinfo(arena+hblkhd)
        139372 MiB available memory on the node where the printing process lives
------------------
     ethr =  1.00E-02,  avg # of iterations =  4.0

     total cpu time spent up to now is       68.1 secs

     total energy              =   -6828.10467292 Ry
     estimated scf accuracy    <     221.14059875 Ry

     iteration #  8     ecut=    30.00 Ry     beta= 0.70
     Davidson diagonalization with overlap

---- Real-time Memory Report at c_bands before calling an iterative solver
          1147 MiB given to the printing process from OS
             0 MiB allocation reported by mallinfo(arena+hblkhd)
        139374 MiB available memory on the node where the printing process lives
------------------
     ethr =  1.00E-02,  avg # of iterations =  4.0

     total cpu time spent up to now is       71.4 secs

     total energy              =   -6840.69142900 Ry
     estimated scf accuracy    <     303.13624358 Ry

     iteration #  9     ecut=    30.00 Ry     beta= 0.70
     Davidson diagonalization with overlap

---- Real-time Memory Report at c_bands before calling an iterative solver
          1147 MiB given to the printing process from OS
             0 MiB allocation reported by mallinfo(arena+hblkhd)
        139354 MiB available memory on the node where the printing process lives
------------------
     ethr =  1.00E-02,  avg # of iterations =  1.0

     total cpu time spent up to now is       74.4 secs

     total energy              =   -6839.31512899 Ry
     estimated scf accuracy    <      45.52486433 Ry

     iteration # 10     ecut=    30.00 Ry     beta= 0.70
     Davidson diagonalization with overlap

---- Real-time Memory Report at c_bands before calling an iterative solver
          1147 MiB given to the printing process from OS
             0 MiB allocation reported by mallinfo(arena+hblkhd)
        139354 MiB available memory on the node where the printing process lives
------------------
     ethr =  1.00E-02,  avg # of iterations =  1.0

     total cpu time spent up to now is       77.3 secs

     total energy              =   -6822.01440787 Ry
     estimated scf accuracy    <      31.24733340 Ry

     iteration # 11     ecut=    30.00 Ry     beta= 0.70
     Davidson diagonalization with overlap

---- Real-time Memory Report at c_bands before calling an iterative solver
          1147 MiB given to the printing process from OS
             0 MiB allocation reported by mallinfo(arena+hblkhd)
        139355 MiB available memory on the node where the printing process lives
------------------
     ethr =  1.00E-02,  avg # of iterations =  6.0

     total cpu time spent up to now is       81.0 secs

     total energy              =   -6769.87336382 Ry
     estimated scf accuracy    <    1223.89525907 Ry

     iteration # 12     ecut=    30.00 Ry     beta= 0.70
     Davidson diagonalization with overlap

---- Real-time Memory Report at c_bands before calling an iterative solver
          1147 MiB given to the printing process from OS
             0 MiB allocation reported by mallinfo(arena+hblkhd)
        139356 MiB available memory on the node where the printing process lives
------------------
     ethr =  1.00E-02,  avg # of iterations =  9.0

     total cpu time spent up to now is       85.3 secs

     total energy              =   -6838.62436945 Ry
     estimated scf accuracy    <      25.95686316 Ry

     iteration # 13     ecut=    30.00 Ry     beta= 0.70
     Davidson diagonalization with overlap

---- Real-time Memory Report at c_bands before calling an iterative solver
          1147 MiB given to the printing process from OS
             0 MiB allocation reported by mallinfo(arena+hblkhd)
        139358 MiB available memory on the node where the printing process lives
------------------
     ethr =  8.54E-03,  avg # of iterations =  1.0

     total cpu time spent up to now is       88.3 secs

     total energy              =   -6837.43931358 Ry
     estimated scf accuracy    <      22.42710750 Ry

     iteration # 14     ecut=    30.00 Ry     beta= 0.70
     Davidson diagonalization with overlap

---- Real-time Memory Report at c_bands before calling an iterative solver
          1147 MiB given to the printing process from OS
             0 MiB allocation reported by mallinfo(arena+hblkhd)
        139358 MiB available memory on the node where the printing process lives
------------------
     ethr =  7.38E-03,  avg # of iterations =  2.0

     total cpu time spent up to now is       91.2 secs

     total energy              =   -6837.68701722 Ry
     estimated scf accuracy    <      33.04555574 Ry

     iteration # 15     ecut=    30.00 Ry     beta= 0.70
     Davidson diagonalization with overlap

---- Real-time Memory Report at c_bands before calling an iterative solver
          1147 MiB given to the printing process from OS
             0 MiB allocation reported by mallinfo(arena+hblkhd)
        139359 MiB available memory on the node where the printing process lives
------------------
     ethr =  7.38E-03,  avg # of iterations =  3.0

     total cpu time spent up to now is       94.3 secs

     total energy              =   -6836.67220181 Ry
     estimated scf accuracy    <      29.29403614 Ry

     iteration # 16     ecut=    30.00 Ry     beta= 0.70
     Davidson diagonalization with overlap

---- Real-time Memory Report at c_bands before calling an iterative solver
          1147 MiB given to the printing process from OS
             0 MiB allocation reported by mallinfo(arena+hblkhd)
        139359 MiB available memory on the node where the printing process lives
------------------
     ethr =  7.38E-03,  avg # of iterations =  1.0

     total cpu time spent up to now is       97.2 secs

     total energy              =   -6834.09964438 Ry
     estimated scf accuracy    <      89.73678912 Ry

     iteration # 17     ecut=    30.00 Ry     beta= 0.70
     Davidson diagonalization with overlap

---- Real-time Memory Report at c_bands before calling an iterative solver
          1147 MiB given to the printing process from OS
             0 MiB allocation reported by mallinfo(arena+hblkhd)
        139378 MiB available memory on the node where the printing process lives
------------------
     ethr =  7.38E-03,  avg # of iterations =  2.0

     total cpu time spent up to now is      100.2 secs

     total energy              =   -6836.68133796 Ry
     estimated scf accuracy    <      15.94472694 Ry

     iteration # 18     ecut=    30.00 Ry     beta= 0.70
     Davidson diagonalization with overlap

---- Real-time Memory Report at c_bands before calling an iterative solver
          1147 MiB given to the printing process from OS
             0 MiB allocation reported by mallinfo(arena+hblkhd)
        139372 MiB available memory on the node where the printing process lives
------------------
     ethr =  5.24E-03,  avg # of iterations =  2.0

     total cpu time spent up to now is      103.1 secs

     total energy              =   -6832.60109165 Ry
     estimated scf accuracy    <     342.06120611 Ry

     iteration # 19     ecut=    30.00 Ry     beta= 0.70
     Davidson diagonalization with overlap

---- Real-time Memory Report at c_bands before calling an iterative solver
          1147 MiB given to the printing process from OS
             0 MiB allocation reported by mallinfo(arena+hblkhd)
        139373 MiB available memory on the node where the printing process lives
------------------
     ethr =  5.24E-03,  avg # of iterations =  7.0

     total cpu time spent up to now is      106.6 secs

     total energy              =   -6834.61141626 Ry
     estimated scf accuracy    <     446.73817966 Ry

     iteration # 20     ecut=    30.00 Ry     beta= 0.70
     Davidson diagonalization with overlap

---- Real-time Memory Report at c_bands before calling an iterative solver
          1147 MiB given to the printing process from OS
             0 MiB allocation reported by mallinfo(arena+hblkhd)
        139374 MiB available memory on the node where the printing process lives
------------------
     ethr =  5.24E-03,  avg # of iterations =  1.0

     total cpu time spent up to now is      109.5 secs

     total energy              =   -6833.59126607 Ry
     estimated scf accuracy    <     115.99465000 Ry

     iteration # 21     ecut=    30.00 Ry     beta= 0.70
     Davidson diagonalization with overlap

---- Real-time Memory Report at c_bands before calling an iterative solver
          1147 MiB given to the printing process from OS
             0 MiB allocation reported by mallinfo(arena+hblkhd)
        139373 MiB available memory on the node where the printing process lives
------------------
     ethr =  5.24E-03,  avg # of iterations =  6.0

     total cpu time spent up to now is      113.0 secs

     total energy              =   -6817.66774687 Ry
     estimated scf accuracy    <    1055.95129851 Ry

     iteration # 22     ecut=    30.00 Ry     beta= 0.70
     Davidson diagonalization with overlap

---- Real-time Memory Report at c_bands before calling an iterative solver
          1147 MiB given to the printing process from OS
             0 MiB allocation reported by mallinfo(arena+hblkhd)
        139375 MiB available memory on the node where the printing process lives
------------------
     ethr =  5.24E-03,  avg # of iterations =  6.0

     total cpu time spent up to now is      116.6 secs

     total energy              =   -6833.99236894 Ry
     estimated scf accuracy    <      65.70184379 Ry

     iteration # 23     ecut=    30.00 Ry     beta= 0.70
     Davidson diagonalization with overlap

---- Real-time Memory Report at c_bands before calling an iterative solver
          1147 MiB given to the printing process from OS
             0 MiB allocation reported by mallinfo(arena+hblkhd)
        139375 MiB available memory on the node where the printing process lives
------------------
     ethr =  5.24E-03,  avg # of iterations =  3.0

     total cpu time spent up to now is      119.6 secs

     total energy              =   -6833.81764648 Ry
     estimated scf accuracy    <      74.73158858 Ry

     iteration # 24     ecut=    30.00 Ry     beta= 0.70
     Davidson diagonalization with overlap

---- Real-time Memory Report at c_bands before calling an iterative solver
          1147 MiB given to the printing process from OS
             0 MiB allocation reported by mallinfo(arena+hblkhd)
        139375 MiB available memory on the node where the printing process lives
------------------
     ethr =  5.24E-03,  avg # of iterations =  3.0

     total cpu time spent up to now is      122.6 secs

     total energy              =   -6835.08478397 Ry
     estimated scf accuracy    <      16.39679451 Ry

     iteration # 25     ecut=    30.00 Ry     beta= 0.70
     Davidson diagonalization with overlap

---- Real-time Memory Report at c_bands before calling an iterative solver
          1147 MiB given to the printing process from OS
             0 MiB allocation reported by mallinfo(arena+hblkhd)
        139371 MiB available memory on the node where the printing process lives
------------------
     ethr =  5.24E-03,  avg # of iterations =  4.0

     total cpu time spent up to now is      125.6 secs

     total energy              =   -6833.45085795 Ry
     estimated scf accuracy    <      61.81907492 Ry

     iteration # 26     ecut=    30.00 Ry     beta= 0.70
     Davidson diagonalization with overlap

---- Real-time Memory Report at c_bands before calling an iterative solver
          1147 MiB given to the printing process from OS
             0 MiB allocation reported by mallinfo(arena+hblkhd)
        139373 MiB available memory on the node where the printing process lives
------------------
     ethr =  5.24E-03,  avg # of iterations =  7.0

     total cpu time spent up to now is      129.2 secs

     total energy              =   -6829.35793461 Ry
     estimated scf accuracy    <     413.92027012 Ry

     iteration # 27     ecut=    30.00 Ry     beta= 0.70
     Davidson diagonalization with overlap

---- Real-time Memory Report at c_bands before calling an iterative solver
          1149 MiB given to the printing process from OS
             0 MiB allocation reported by mallinfo(arena+hblkhd)
        139373 MiB available memory on the node where the printing process lives
------------------
     ethr =  5.24E-03,  avg # of iterations =  5.0

     total cpu time spent up to now is      132.7 secs

     total energy              =   -6829.41489301 Ry
     estimated scf accuracy    <     261.11301734 Ry

     iteration # 28     ecut=    30.00 Ry     beta= 0.70
     Davidson diagonalization with overlap

---- Real-time Memory Report at c_bands before calling an iterative solver
          1149 MiB given to the printing process from OS
             0 MiB allocation reported by mallinfo(arena+hblkhd)
        139376 MiB available memory on the node where the printing process lives
------------------
     ethr =  5.24E-03,  avg # of iterations =  6.0

     total cpu time spent up to now is      136.3 secs

     total energy              =   -6829.75202502 Ry
     estimated scf accuracy    <     688.38789510 Ry

     iteration # 29     ecut=    30.00 Ry     beta= 0.70
     Davidson diagonalization with overlap

---- Real-time Memory Report at c_bands before calling an iterative solver
          1149 MiB given to the printing process from OS
             0 MiB allocation reported by mallinfo(arena+hblkhd)
        139377 MiB available memory on the node where the printing process lives
------------------
     ethr =  5.24E-03,  avg # of iterations = 10.0

     total cpu time spent up to now is      140.8 secs

     total energy              =   -6830.45962911 Ry
     estimated scf accuracy    <     676.79177684 Ry

     iteration # 30     ecut=    30.00 Ry     beta= 0.70
     Davidson diagonalization with overlap

---- Real-time Memory Report at c_bands before calling an iterative solver
          1149 MiB given to the printing process from OS
             0 MiB allocation reported by mallinfo(arena+hblkhd)
        139363 MiB available memory on the node where the printing process lives
------------------
     ethr =  5.24E-03,  avg # of iterations =  6.0

     total cpu time spent up to now is      144.3 secs

     total energy              =   -6830.58738944 Ry
     estimated scf accuracy    <     330.92578883 Ry

     iteration # 31     ecut=    30.00 Ry     beta= 0.70
     Davidson diagonalization with overlap

---- Real-time Memory Report at c_bands before calling an iterative solver
          1149 MiB given to the printing process from OS
             0 MiB allocation reported by mallinfo(arena+hblkhd)
        139380 MiB available memory on the node where the printing process lives
------------------
     ethr =  5.24E-03,  avg # of iterations =  3.0

     total cpu time spent up to now is      147.5 secs

     total energy              =   -6834.48772822 Ry
     estimated scf accuracy    <     134.52970346 Ry

     iteration # 32     ecut=    30.00 Ry     beta= 0.70
     Davidson diagonalization with overlap

---- Real-time Memory Report at c_bands before calling an iterative solver
          1149 MiB given to the printing process from OS
             0 MiB allocation reported by mallinfo(arena+hblkhd)
        139382 MiB available memory on the node where the printing process lives
------------------
     ethr =  5.24E-03,  avg # of iterations =  2.0

     total cpu time spent up to now is      150.5 secs

     total energy              =   -6836.28100203 Ry
     estimated scf accuracy    <      34.68142857 Ry

     iteration # 33     ecut=    30.00 Ry     beta= 0.70
     Davidson diagonalization with overlap

---- Real-time Memory Report at c_bands before calling an iterative solver
          1149 MiB given to the printing process from OS
             0 MiB allocation reported by mallinfo(arena+hblkhd)
        139385 MiB available memory on the node where the printing process lives
------------------
     ethr =  5.24E-03,  avg # of iterations =  3.0

     total cpu time spent up to now is      153.5 secs

     total energy              =   -6829.13865936 Ry
     estimated scf accuracy    <     190.64342060 Ry

     iteration # 34     ecut=    30.00 Ry     beta= 0.70
     Davidson diagonalization with overlap

---- Real-time Memory Report at c_bands before calling an iterative solver
          1149 MiB given to the printing process from OS
             0 MiB allocation reported by mallinfo(arena+hblkhd)
        139384 MiB available memory on the node where the printing process lives
------------------
     ethr =  5.24E-03,  avg # of iterations =  5.0

     total cpu time spent up to now is      157.0 secs

     total energy              =   -6817.81895344 Ry
     estimated scf accuracy    <     640.43363490 Ry

     iteration # 35     ecut=    30.00 Ry     beta= 0.70
     Davidson diagonalization with overlap

---- Real-time Memory Report at c_bands before calling an iterative solver
          1149 MiB given to the printing process from OS
             0 MiB allocation reported by mallinfo(arena+hblkhd)
        139385 MiB available memory on the node where the printing process lives
------------------
     ethr =  5.24E-03,  avg # of iterations =  7.0

     total cpu time spent up to now is      161.0 secs

     total energy              =   -6823.19196175 Ry
     estimated scf accuracy    <     395.17628775 Ry

     iteration # 36     ecut=    30.00 Ry     beta= 0.70
     Davidson diagonalization with overlap

---- Real-time Memory Report at c_bands before calling an iterative solver
          1149 MiB given to the printing process from OS
             0 MiB allocation reported by mallinfo(arena+hblkhd)
        139386 MiB available memory on the node where the printing process lives
------------------
     ethr =  5.24E-03,  avg # of iterations =  7.0

     total cpu time spent up to now is      164.6 secs

     total energy              =   -6825.77348765 Ry
     estimated scf accuracy    <     576.12380593 Ry

     iteration # 37     ecut=    30.00 Ry     beta= 0.70
     Davidson diagonalization with overlap

---- Real-time Memory Report at c_bands before calling an iterative solver
          1149 MiB given to the printing process from OS
             0 MiB allocation reported by mallinfo(arena+hblkhd)
        139387 MiB available memory on the node where the printing process lives
------------------
     ethr =  5.24E-03,  avg # of iterations =  5.0

     total cpu time spent up to now is      168.4 secs

     total energy              =   -6827.95037037 Ry
     estimated scf accuracy    <     331.22322193 Ry

     iteration # 38     ecut=    30.00 Ry     beta= 0.70
     Davidson diagonalization with overlap

---- Real-time Memory Report at c_bands before calling an iterative solver
          1149 MiB given to the printing process from OS
             0 MiB allocation reported by mallinfo(arena+hblkhd)
        139387 MiB available memory on the node where the printing process lives
------------------
     ethr =  5.24E-03,  avg # of iterations =  2.0

     total cpu time spent up to now is      171.5 secs

     total energy              =   -6837.23385394 Ry
     estimated scf accuracy    <      28.84392851 Ry

     iteration # 39     ecut=    30.00 Ry     beta= 0.70
     Davidson diagonalization with overlap

---- Real-time Memory Report at c_bands before calling an iterative solver
          1149 MiB given to the printing process from OS
             0 MiB allocation reported by mallinfo(arena+hblkhd)
        139388 MiB available memory on the node where the printing process lives
------------------
     ethr =  5.24E-03,  avg # of iterations =  5.0

     total cpu time spent up to now is      174.7 secs

     total energy              =   -6830.79798974 Ry
     estimated scf accuracy    <     530.79889778 Ry

     iteration # 40     ecut=    30.00 Ry     beta= 0.70
     Davidson diagonalization with overlap

---- Real-time Memory Report at c_bands before calling an iterative solver
          1149 MiB given to the printing process from OS
             0 MiB allocation reported by mallinfo(arena+hblkhd)
        139388 MiB available memory on the node where the printing process lives
------------------
     ethr =  5.24E-03,  avg # of iterations =  3.0

     total cpu time spent up to now is      177.6 secs

     total energy              =   -6836.14200155 Ry
     estimated scf accuracy    <      18.88672762 Ry

     iteration # 41     ecut=    30.00 Ry     beta= 0.70
     Davidson diagonalization with overlap

---- Real-time Memory Report at c_bands before calling an iterative solver
          1149 MiB given to the printing process from OS
             0 MiB allocation reported by mallinfo(arena+hblkhd)
        139386 MiB available memory on the node where the printing process lives
------------------
     ethr =  5.24E-03,  avg # of iterations =  5.0

     total cpu time spent up to now is      180.8 secs

     total energy              =   -6833.38522002 Ry
     estimated scf accuracy    <     127.80023035 Ry

     iteration # 42     ecut=    30.00 Ry     beta= 0.70
     Davidson diagonalization with overlap

---- Real-time Memory Report at c_bands before calling an iterative solver
          1149 MiB given to the printing process from OS
             0 MiB allocation reported by mallinfo(arena+hblkhd)
        139386 MiB available memory on the node where the printing process lives
------------------
     ethr =  5.24E-03,  avg # of iterations =  5.0

     total cpu time spent up to now is      184.0 secs

     total energy              =   -6828.77877649 Ry
     estimated scf accuracy    <     163.35071466 Ry

     iteration # 43     ecut=    30.00 Ry     beta= 0.70
     Davidson diagonalization with overlap

---- Real-time Memory Report at c_bands before calling an iterative solver
          1149 MiB given to the printing process from OS
             0 MiB allocation reported by mallinfo(arena+hblkhd)
        139384 MiB available memory on the node where the printing process lives
------------------
     ethr =  5.24E-03,  avg # of iterations =  9.0

     total cpu time spent up to now is      187.6 secs

     total energy              =   -6830.62902586 Ry
     estimated scf accuracy    <     276.62557026 Ry

     iteration # 44     ecut=    30.00 Ry     beta= 0.70
     Davidson diagonalization with overlap

---- Real-time Memory Report at c_bands before calling an iterative solver
          1149 MiB given to the printing process from OS
             0 MiB allocation reported by mallinfo(arena+hblkhd)
        139385 MiB available memory on the node where the printing process lives
------------------
     ethr =  5.24E-03,  avg # of iterations =  6.0

     total cpu time spent up to now is      191.2 secs

     total energy              =   -6825.22882774 Ry
     estimated scf accuracy    <     734.66303934 Ry

     iteration # 45     ecut=    30.00 Ry     beta= 0.70
     Davidson diagonalization with overlap

---- Real-time Memory Report at c_bands before calling an iterative solver
          1149 MiB given to the printing process from OS
             0 MiB allocation reported by mallinfo(arena+hblkhd)
        139386 MiB available memory on the node where the printing process lives
------------------
     ethr =  5.24E-03,  avg # of iterations =  6.0

     total cpu time spent up to now is      195.8 secs

     total energy              =   -6826.51929226 Ry
     estimated scf accuracy    <     718.62027398 Ry

     iteration # 46     ecut=    30.00 Ry     beta= 0.70
     Davidson diagonalization with overlap

---- Real-time Memory Report at c_bands before calling an iterative solver
          1149 MiB given to the printing process from OS
             0 MiB allocation reported by mallinfo(arena+hblkhd)
        139362 MiB available memory on the node where the printing process lives
------------------
     ethr =  5.24E-03,  avg # of iterations =  7.0

     total cpu time spent up to now is      199.4 secs

     total energy              =   -6834.72101761 Ry
     estimated scf accuracy    <     289.95895529 Ry

     iteration # 47     ecut=    30.00 Ry     beta= 0.70
     Davidson diagonalization with overlap

---- Real-time Memory Report at c_bands before calling an iterative solver
          1149 MiB given to the printing process from OS
             0 MiB allocation reported by mallinfo(arena+hblkhd)
        139365 MiB available memory on the node where the printing process lives
------------------
     ethr =  5.24E-03,  avg # of iterations =  1.0

     total cpu time spent up to now is      202.3 secs

     total energy              =   -6836.15374815 Ry
     estimated scf accuracy    <      40.04217819 Ry

     iteration # 48     ecut=    30.00 Ry     beta= 0.70
     Davidson diagonalization with overlap

---- Real-time Memory Report at c_bands before calling an iterative solver
          1149 MiB given to the printing process from OS
             0 MiB allocation reported by mallinfo(arena+hblkhd)
        139365 MiB available memory on the node where the printing process lives
------------------
     ethr =  5.24E-03,  avg # of iterations =  2.0

     total cpu time spent up to now is      205.3 secs

     total energy              =   -6836.03226374 Ry
     estimated scf accuracy    <      32.00562577 Ry

     iteration # 49     ecut=    30.00 Ry     beta= 0.70
     Davidson diagonalization with overlap

---- Real-time Memory Report at c_bands before calling an iterative solver
          1149 MiB given to the printing process from OS
             0 MiB allocation reported by mallinfo(arena+hblkhd)
        139366 MiB available memory on the node where the printing process lives
------------------
     ethr =  5.24E-03,  avg # of iterations =  7.0

     total cpu time spent up to now is      208.4 secs

     total energy              =   -6828.68223837 Ry
     estimated scf accuracy    <     365.35191704 Ry

     iteration # 50     ecut=    30.00 Ry     beta= 0.70
     Davidson diagonalization with overlap

---- Real-time Memory Report at c_bands before calling an iterative solver
          1149 MiB given to the printing process from OS
             0 MiB allocation reported by mallinfo(arena+hblkhd)
        139366 MiB available memory on the node where the printing process lives
------------------
     ethr =  5.24E-03,  avg # of iterations =  5.0

     total cpu time spent up to now is      211.8 secs

     total energy              =   -6831.45621445 Ry
     estimated scf accuracy    <     154.13342634 Ry

     iteration # 51     ecut=    30.00 Ry     beta= 0.70
     Davidson diagonalization with overlap

---- Real-time Memory Report at c_bands before calling an iterative solver
          1149 MiB given to the printing process from OS
             0 MiB allocation reported by mallinfo(arena+hblkhd)
        139367 MiB available memory on the node where the printing process lives
------------------
     ethr =  5.24E-03,  avg # of iterations =  3.0

     total cpu time spent up to now is      215.0 secs

     total energy              =   -6831.05156333 Ry
     estimated scf accuracy    <     186.71161389 Ry

     iteration # 52     ecut=    30.00 Ry     beta= 0.70
     Davidson diagonalization with overlap

---- Real-time Memory Report at c_bands before calling an iterative solver
          1149 MiB given to the printing process from OS
             0 MiB allocation reported by mallinfo(arena+hblkhd)
        139364 MiB available memory on the node where the printing process lives
------------------
     ethr =  5.24E-03,  avg # of iterations =  7.0

     total cpu time spent up to now is      218.8 secs

     total energy              =   -6823.97922885 Ry
     estimated scf accuracy    <     402.37903211 Ry

     iteration # 53     ecut=    30.00 Ry     beta= 0.70
     Davidson diagonalization with overlap

---- Real-time Memory Report at c_bands before calling an iterative solver
          1149 MiB given to the printing process from OS
             0 MiB allocation reported by mallinfo(arena+hblkhd)
        139365 MiB available memory on the node where the printing process lives
------------------
     ethr =  5.24E-03,  avg # of iterations =  5.0

     total cpu time spent up to now is      222.5 secs

     total energy              =   -6830.93197353 Ry
     estimated scf accuracy    <     274.57959989 Ry

     iteration # 54     ecut=    30.00 Ry     beta= 0.70
     Davidson diagonalization with overlap

---- Real-time Memory Report at c_bands before calling an iterative solver
          1149 MiB given to the printing process from OS
             0 MiB allocation reported by mallinfo(arena+hblkhd)
        139366 MiB available memory on the node where the printing process lives
------------------
     ethr =  5.24E-03,  avg # of iterations =  3.0

     total cpu time spent up to now is      225.6 secs

     total energy              =   -6833.60466587 Ry
     estimated scf accuracy    <     111.34431852 Ry

     iteration # 55     ecut=    30.00 Ry     beta= 0.70
     Davidson diagonalization with overlap

---- Real-time Memory Report at c_bands before calling an iterative solver
          1149 MiB given to the printing process from OS
             0 MiB allocation reported by mallinfo(arena+hblkhd)
        139366 MiB available memory on the node where the printing process lives
------------------
     ethr =  5.24E-03,  avg # of iterations =  5.0

     total cpu time spent up to now is      229.8 secs

     total energy              =   -6833.77789340 Ry
     estimated scf accuracy    <     104.98766307 Ry

     iteration # 56     ecut=    30.00 Ry     beta= 0.70
     Davidson diagonalization with overlap

---- Real-time Memory Report at c_bands before calling an iterative solver
          1149 MiB given to the printing process from OS
             0 MiB allocation reported by mallinfo(arena+hblkhd)
        139354 MiB available memory on the node where the printing process lives
------------------
     ethr =  5.24E-03,  avg # of iterations =  5.0

     total cpu time spent up to now is      233.9 secs

     total energy              =   -6831.22140256 Ry
     estimated scf accuracy    <     159.52114230 Ry

     iteration # 57     ecut=    30.00 Ry     beta= 0.70
     Davidson diagonalization with overlap

---- Real-time Memory Report at c_bands before calling an iterative solver
          1149 MiB given to the printing process from OS
             0 MiB allocation reported by mallinfo(arena+hblkhd)
        139356 MiB available memory on the node where the printing process lives
------------------
     ethr =  5.24E-03,  avg # of iterations =  5.0

     total cpu time spent up to now is      237.5 secs

     total energy              =   -6824.27727353 Ry
     estimated scf accuracy    <     489.84289049 Ry

     iteration # 58     ecut=    30.00 Ry     beta= 0.70
     Davidson diagonalization with overlap

---- Real-time Memory Report at c_bands before calling an iterative solver
          1149 MiB given to the printing process from OS
             0 MiB allocation reported by mallinfo(arena+hblkhd)
        139358 MiB available memory on the node where the printing process lives
------------------
     ethr =  5.24E-03,  avg # of iterations =  9.0

     total cpu time spent up to now is      241.6 secs

     total energy              =   -6823.98019941 Ry
     estimated scf accuracy    <     572.97456775 Ry

     iteration # 59     ecut=    30.00 Ry     beta= 0.70
     Davidson diagonalization with overlap

---- Real-time Memory Report at c_bands before calling an iterative solver
          1149 MiB given to the printing process from OS
             0 MiB allocation reported by mallinfo(arena+hblkhd)
        139383 MiB available memory on the node where the printing process lives
------------------
     ethr =  5.24E-03,  avg # of iterations = 10.0

     total cpu time spent up to now is      245.9 secs

     total energy              =   -6836.01251651 Ry
     estimated scf accuracy    <      82.19873617 Ry

     iteration # 60     ecut=    30.00 Ry     beta= 0.70
     Davidson diagonalization with overlap

---- Real-time Memory Report at c_bands before calling an iterative solver
          1149 MiB given to the printing process from OS
             0 MiB allocation reported by mallinfo(arena+hblkhd)
        139382 MiB available memory on the node where the printing process lives
------------------
     ethr =  5.24E-03,  avg # of iterations =  8.0

     total cpu time spent up to now is      249.3 secs

     total energy              =   -6832.93257588 Ry
     estimated scf accuracy    <     158.48998536 Ry

     iteration # 61     ecut=    30.00 Ry     beta= 0.70
     Davidson diagonalization with overlap

---- Real-time Memory Report at c_bands before calling an iterative solver
          1149 MiB given to the printing process from OS
             0 MiB allocation reported by mallinfo(arena+hblkhd)
        139383 MiB available memory on the node where the printing process lives
------------------
     ethr =  5.24E-03,  avg # of iterations =  6.0

     total cpu time spent up to now is      256.3 secs

     total energy              =   -6825.35217646 Ry
     estimated scf accuracy    <     428.83766980 Ry

     iteration # 62     ecut=    30.00 Ry     beta= 0.70
     Davidson diagonalization with overlap

---- Real-time Memory Report at c_bands before calling an iterative solver
          1149 MiB given to the printing process from OS
             0 MiB allocation reported by mallinfo(arena+hblkhd)
        139385 MiB available memory on the node where the printing process lives
------------------
     ethr =  5.24E-03,  avg # of iterations =  6.0

     total cpu time spent up to now is      259.9 secs

     total energy              =   -6824.69377022 Ry
     estimated scf accuracy    <     387.93055394 Ry

     iteration # 63     ecut=    30.00 Ry     beta= 0.70
     Davidson diagonalization with overlap

---- Real-time Memory Report at c_bands before calling an iterative solver
          1149 MiB given to the printing process from OS
             0 MiB allocation reported by mallinfo(arena+hblkhd)
        139385 MiB available memory on the node where the printing process lives
------------------
     ethr =  5.24E-03,  avg # of iterations =  6.0

     total cpu time spent up to now is      263.5 secs

     total energy              =   -6828.75273427 Ry
     estimated scf accuracy    <     312.44297928 Ry

     iteration # 64     ecut=    30.00 Ry     beta= 0.70
     Davidson diagonalization with overlap

---- Real-time Memory Report at c_bands before calling an iterative solver
          1149 MiB given to the printing process from OS
             0 MiB allocation reported by mallinfo(arena+hblkhd)
        139386 MiB available memory on the node where the printing process lives
------------------
     ethr =  5.24E-03,  avg # of iterations =  5.0

     total cpu time spent up to now is      267.1 secs

     total energy              =   -6816.94852432 Ry
     estimated scf accuracy    <     637.93581537 Ry

     iteration # 65     ecut=    30.00 Ry     beta= 0.70
     Davidson diagonalization with overlap

---- Real-time Memory Report at c_bands before calling an iterative solver
          1149 MiB given to the printing process from OS
             0 MiB allocation reported by mallinfo(arena+hblkhd)
        139387 MiB available memory on the node where the printing process lives
------------------
     ethr =  5.24E-03,  avg # of iterations =  7.0

     total cpu time spent up to now is      271.4 secs

     total energy              =   -6822.33283005 Ry
     estimated scf accuracy    <     207.78918219 Ry

     iteration # 66     ecut=    30.00 Ry     beta= 0.70
     Davidson diagonalization with overlap

---- Real-time Memory Report at c_bands before calling an iterative solver
          1149 MiB given to the printing process from OS
             0 MiB allocation reported by mallinfo(arena+hblkhd)
        139373 MiB available memory on the node where the printing process lives
------------------
     ethr =  5.24E-03,  avg # of iterations =  6.0

     total cpu time spent up to now is      275.3 secs

     total energy              =   -6823.37384263 Ry
     estimated scf accuracy    <     719.98257620 Ry

     iteration # 67     ecut=    30.00 Ry     beta= 0.70
     Davidson diagonalization with overlap

---- Real-time Memory Report at c_bands before calling an iterative solver
          1149 MiB given to the printing process from OS
             0 MiB allocation reported by mallinfo(arena+hblkhd)
        139373 MiB available memory on the node where the printing process lives
------------------
     ethr =  5.24E-03,  avg # of iterations =  6.0

     total cpu time spent up to now is      279.6 secs

     total energy              =   -6829.40961148 Ry
     estimated scf accuracy    <     328.41946076 Ry

     iteration # 68     ecut=    30.00 Ry     beta= 0.70
     Davidson diagonalization with overlap

---- Real-time Memory Report at c_bands before calling an iterative solver
          1149 MiB given to the printing process from OS
             0 MiB allocation reported by mallinfo(arena+hblkhd)
        139374 MiB available memory on the node where the printing process lives
------------------
     ethr =  5.24E-03,  avg # of iterations =  5.0

     total cpu time spent up to now is      283.1 secs

     total energy              =   -6822.03978158 Ry
     estimated scf accuracy    <     681.29005104 Ry

     iteration # 69     ecut=    30.00 Ry     beta= 0.70
     Davidson diagonalization with overlap

---- Real-time Memory Report at c_bands before calling an iterative solver
          1149 MiB given to the printing process from OS
             0 MiB allocation reported by mallinfo(arena+hblkhd)
        139375 MiB available memory on the node where the printing process lives
------------------
     ethr =  5.24E-03,  avg # of iterations =  7.0

     total cpu time spent up to now is      286.9 secs

     total energy              =   -6832.35487139 Ry
     estimated scf accuracy    <     163.22047696 Ry

     iteration # 70     ecut=    30.00 Ry     beta= 0.70
     Davidson diagonalization with overlap

---- Real-time Memory Report at c_bands before calling an iterative solver
          1149 MiB given to the printing process from OS
             0 MiB allocation reported by mallinfo(arena+hblkhd)
        139376 MiB available memory on the node where the printing process lives
------------------
     ethr =  5.24E-03,  avg # of iterations =  6.0

     total cpu time spent up to now is      290.7 secs

     total energy              =   -6824.67761242 Ry
     estimated scf accuracy    <     450.12352216 Ry

     iteration # 71     ecut=    30.00 Ry     beta= 0.70
     Davidson diagonalization with overlap

---- Real-time Memory Report at c_bands before calling an iterative solver
          1149 MiB given to the printing process from OS
             0 MiB allocation reported by mallinfo(arena+hblkhd)
        139376 MiB available memory on the node where the printing process lives
------------------
     ethr =  5.24E-03,  avg # of iterations =  7.0

     total cpu time spent up to now is      294.5 secs

     total energy              =   -6823.62481428 Ry
     estimated scf accuracy    <     409.87482600 Ry

     iteration # 72     ecut=    30.00 Ry     beta= 0.70
     Davidson diagonalization with overlap

---- Real-time Memory Report at c_bands before calling an iterative solver
          1149 MiB given to the printing process from OS
             0 MiB allocation reported by mallinfo(arena+hblkhd)
        139376 MiB available memory on the node where the printing process lives
------------------
     ethr =  5.24E-03,  avg # of iterations =  6.0

     total cpu time spent up to now is      298.3 secs

     total energy              =   -6818.82821549 Ry
     estimated scf accuracy    <     315.75254677 Ry

     iteration # 73     ecut=    30.00 Ry     beta= 0.70
     Davidson diagonalization with overlap

---- Real-time Memory Report at c_bands before calling an iterative solver
          1149 MiB given to the printing process from OS
             0 MiB allocation reported by mallinfo(arena+hblkhd)
        139376 MiB available memory on the node where the printing process lives
------------------
     ethr =  5.24E-03,  avg # of iterations =  6.0

     total cpu time spent up to now is      302.4 secs

     total energy              =   -6811.60042546 Ry
     estimated scf accuracy    <     835.59953743 Ry

     iteration # 74     ecut=    30.00 Ry     beta= 0.70
     Davidson diagonalization with overlap

---- Real-time Memory Report at c_bands before calling an iterative solver
          1149 MiB given to the printing process from OS
             0 MiB allocation reported by mallinfo(arena+hblkhd)
        139372 MiB available memory on the node where the printing process lives
------------------
     ethr =  5.24E-03,  avg # of iterations =  5.0

     total cpu time spent up to now is      306.1 secs

     total energy              =   -6824.43003528 Ry
     estimated scf accuracy    <     491.12414471 Ry

     iteration # 75     ecut=    30.00 Ry     beta= 0.70
     Davidson diagonalization with overlap

---- Real-time Memory Report at c_bands before calling an iterative solver
          1149 MiB given to the printing process from OS
             0 MiB allocation reported by mallinfo(arena+hblkhd)
        139374 MiB available memory on the node where the printing process lives
------------------
     ethr =  5.24E-03,  avg # of iterations =  7.0

     total cpu time spent up to now is      309.9 secs

     total energy              =   -6826.14716343 Ry
     estimated scf accuracy    <     243.61172892 Ry

     iteration # 76     ecut=    30.00 Ry     beta= 0.70
     Davidson diagonalization with overlap

---- Real-time Memory Report at c_bands before calling an iterative solver
          1149 MiB given to the printing process from OS
             0 MiB allocation reported by mallinfo(arena+hblkhd)
        139373 MiB available memory on the node where the printing process lives
------------------
     ethr =  5.24E-03,  avg # of iterations =  6.0

     total cpu time spent up to now is      314.1 secs

     total energy              =   -6826.22712770 Ry
     estimated scf accuracy    <     603.94567870 Ry

     iteration # 77     ecut=    30.00 Ry     beta= 0.70
     Davidson diagonalization with overlap

---- Real-time Memory Report at c_bands before calling an iterative solver
          1149 MiB given to the printing process from OS
             0 MiB allocation reported by mallinfo(arena+hblkhd)
        139373 MiB available memory on the node where the printing process lives
------------------
     ethr =  5.24E-03,  avg # of iterations =  5.0

     total cpu time spent up to now is      317.6 secs

     total energy              =   -6823.87770492 Ry
     estimated scf accuracy    <     366.15764762 Ry

     iteration # 78     ecut=    30.00 Ry     beta= 0.70
     Davidson diagonalization with overlap

---- Real-time Memory Report at c_bands before calling an iterative solver
          1149 MiB given to the printing process from OS
             0 MiB allocation reported by mallinfo(arena+hblkhd)
        139368 MiB available memory on the node where the printing process lives
------------------
     ethr =  5.24E-03,  avg # of iterations =  6.0

     total cpu time spent up to now is      322.9 secs

     total energy              =   -6817.52787220 Ry
     estimated scf accuracy    <     792.67062744 Ry

     iteration # 79     ecut=    30.00 Ry     beta= 0.70
     Davidson diagonalization with overlap

---- Real-time Memory Report at c_bands before calling an iterative solver
          1149 MiB given to the printing process from OS
             0 MiB allocation reported by mallinfo(arena+hblkhd)
        139374 MiB available memory on the node where the printing process lives
------------------
     ethr =  5.24E-03,  avg # of iterations =  6.0

     total cpu time spent up to now is      326.8 secs

     total energy              =   -6837.30131131 Ry
     estimated scf accuracy    <     195.28327449 Ry

     iteration # 80     ecut=    30.00 Ry     beta= 0.70
     Davidson diagonalization with overlap

---- Real-time Memory Report at c_bands before calling an iterative solver
          1149 MiB given to the printing process from OS
             0 MiB allocation reported by mallinfo(arena+hblkhd)
        139375 MiB available memory on the node where the printing process lives
------------------
     ethr =  5.24E-03,  avg # of iterations =  5.0

     total cpu time spent up to now is      330.5 secs

     total energy              =   -6831.36430615 Ry
     estimated scf accuracy    <     213.13812424 Ry

     iteration # 81     ecut=    30.00 Ry     beta= 0.70
     Davidson diagonalization with overlap

---- Real-time Memory Report at c_bands before calling an iterative solver
          1149 MiB given to the printing process from OS
             0 MiB allocation reported by mallinfo(arena+hblkhd)
        139377 MiB available memory on the node where the printing process lives
------------------
     ethr =  5.24E-03,  avg # of iterations =  4.0

     total cpu time spent up to now is      334.0 secs

     total energy              =   -6819.55573488 Ry
     estimated scf accuracy    <     394.47275387 Ry

     iteration # 82     ecut=    30.00 Ry     beta= 0.70
     Davidson diagonalization with overlap

---- Real-time Memory Report at c_bands before calling an iterative solver
          1149 MiB given to the printing process from OS
             0 MiB allocation reported by mallinfo(arena+hblkhd)
        139380 MiB available memory on the node where the printing process lives
------------------
     ethr =  5.24E-03,  avg # of iterations =  5.0

     total cpu time spent up to now is      337.6 secs

     total energy              =   -6811.16929085 Ry
     estimated scf accuracy    <     496.01913914 Ry

     iteration # 83     ecut=    30.00 Ry     beta= 0.70
     Davidson diagonalization with overlap

---- Real-time Memory Report at c_bands before calling an iterative solver
          1149 MiB given to the printing process from OS
             0 MiB allocation reported by mallinfo(arena+hblkhd)
        139381 MiB available memory on the node where the printing process lives
------------------
     ethr =  5.24E-03,  avg # of iterations =  6.0

     total cpu time spent up to now is      341.4 secs

     total energy              =   -6819.46636346 Ry
     estimated scf accuracy    <     673.81934176 Ry

     iteration # 84     ecut=    30.00 Ry     beta= 0.70
     Davidson diagonalization with overlap

---- Real-time Memory Report at c_bands before calling an iterative solver
          1149 MiB given to the printing process from OS
             0 MiB allocation reported by mallinfo(arena+hblkhd)
        139382 MiB available memory on the node where the printing process lives
------------------
     ethr =  5.24E-03,  avg # of iterations =  6.0

     total cpu time spent up to now is      345.3 secs

     total energy              =   -6820.64320952 Ry
     estimated scf accuracy    <     678.47923643 Ry

     iteration # 85     ecut=    30.00 Ry     beta= 0.70
     Davidson diagonalization with overlap

---- Real-time Memory Report at c_bands before calling an iterative solver
          1149 MiB given to the printing process from OS
             0 MiB allocation reported by mallinfo(arena+hblkhd)
        139383 MiB available memory on the node where the printing process lives
------------------
     ethr =  5.24E-03,  avg # of iterations =  8.0

     total cpu time spent up to now is      349.5 secs

     total energy              =   -6828.55668306 Ry
     estimated scf accuracy    <     232.45550896 Ry

     iteration # 86     ecut=    30.00 Ry     beta= 0.70
     Davidson diagonalization with overlap

---- Real-time Memory Report at c_bands before calling an iterative solver
          1151 MiB given to the printing process from OS
             0 MiB allocation reported by mallinfo(arena+hblkhd)
        139382 MiB available memory on the node where the printing process lives
------------------
     ethr =  5.24E-03,  avg # of iterations =  6.0

     total cpu time spent up to now is      353.3 secs

     total energy              =   -6819.97713762 Ry
     estimated scf accuracy    <     807.13805166 Ry

     iteration # 87     ecut=    30.00 Ry     beta= 0.70
     Davidson diagonalization with overlap

---- Real-time Memory Report at c_bands before calling an iterative solver
          1151 MiB given to the printing process from OS
             0 MiB allocation reported by mallinfo(arena+hblkhd)
        139382 MiB available memory on the node where the printing process lives
------------------
     ethr =  5.24E-03,  avg # of iterations =  5.0

     total cpu time spent up to now is      356.9 secs

     total energy              =   -6821.52427442 Ry
     estimated scf accuracy    <     405.51684647 Ry

     iteration # 88     ecut=    30.00 Ry     beta= 0.70
     Davidson diagonalization with overlap

---- Real-time Memory Report at c_bands before calling an iterative solver
          1151 MiB given to the printing process from OS
             0 MiB allocation reported by mallinfo(arena+hblkhd)
        139383 MiB available memory on the node where the printing process lives
------------------
     ethr =  5.24E-03,  avg # of iterations =  7.0

     total cpu time spent up to now is      360.7 secs

     total energy              =   -6821.79589555 Ry
     estimated scf accuracy    <     744.54219148 Ry

     iteration # 89     ecut=    30.00 Ry     beta= 0.70
     Davidson diagonalization with overlap

---- Real-time Memory Report at c_bands before calling an iterative solver
          1151 MiB given to the printing process from OS
             0 MiB allocation reported by mallinfo(arena+hblkhd)
        139385 MiB available memory on the node where the printing process lives
------------------
     ethr =  5.24E-03,  avg # of iterations =  6.0

     total cpu time spent up to now is      364.5 secs

     total energy              =   -6836.03652597 Ry
     estimated scf accuracy    <     187.29441446 Ry

     iteration # 90     ecut=    30.00 Ry     beta= 0.70
     Davidson diagonalization with overlap

---- Real-time Memory Report at c_bands before calling an iterative solver
          1151 MiB given to the printing process from OS
             0 MiB allocation reported by mallinfo(arena+hblkhd)
        139383 MiB available memory on the node where the printing process lives
------------------
     ethr =  5.24E-03,  avg # of iterations =  6.0

     total cpu time spent up to now is      368.4 secs

     total energy              =   -6825.72499883 Ry
     estimated scf accuracy    <     360.49798147 Ry

     iteration # 91     ecut=    30.00 Ry     beta= 0.70
     Davidson diagonalization with overlap

---- Real-time Memory Report at c_bands before calling an iterative solver
          1151 MiB given to the printing process from OS
             0 MiB allocation reported by mallinfo(arena+hblkhd)
        139359 MiB available memory on the node where the printing process lives
------------------
     ethr =  5.24E-03,  avg # of iterations =  6.0

     total cpu time spent up to now is      372.2 secs

     total energy              =   -6817.77070342 Ry
     estimated scf accuracy    <     425.91377851 Ry

     iteration # 92     ecut=    30.00 Ry     beta= 0.70
     Davidson diagonalization with overlap

---- Real-time Memory Report at c_bands before calling an iterative solver
          1151 MiB given to the printing process from OS
             0 MiB allocation reported by mallinfo(arena+hblkhd)
        139359 MiB available memory on the node where the printing process lives
------------------
     ethr =  5.24E-03,  avg # of iterations =  6.0

     total cpu time spent up to now is      375.9 secs

     total energy              =   -6810.79836779 Ry
     estimated scf accuracy    <     559.59424044 Ry

     iteration # 93     ecut=    30.00 Ry     beta= 0.70
     Davidson diagonalization with overlap

---- Real-time Memory Report at c_bands before calling an iterative solver
          1151 MiB given to the printing process from OS
             0 MiB allocation reported by mallinfo(arena+hblkhd)
        139359 MiB available memory on the node where the printing process lives
------------------
     ethr =  5.24E-03,  avg # of iterations =  7.0

     total cpu time spent up to now is      379.9 secs

     total energy              =   -6823.47424572 Ry
     estimated scf accuracy    <     583.70181518 Ry

     iteration # 94     ecut=    30.00 Ry     beta= 0.70
     Davidson diagonalization with overlap

---- Real-time Memory Report at c_bands before calling an iterative solver
          1151 MiB given to the printing process from OS
             0 MiB allocation reported by mallinfo(arena+hblkhd)
        139360 MiB available memory on the node where the printing process lives
------------------
     ethr =  5.24E-03,  avg # of iterations =  5.0

     total cpu time spent up to now is      383.5 secs

     total energy              =   -6821.60463354 Ry
     estimated scf accuracy    <     615.00131421 Ry

     iteration # 95     ecut=    30.00 Ry     beta= 0.70
     Davidson diagonalization with overlap

---- Real-time Memory Report at c_bands before calling an iterative solver
          1151 MiB given to the printing process from OS
             0 MiB allocation reported by mallinfo(arena+hblkhd)
        139361 MiB available memory on the node where the printing process lives
------------------
     ethr =  5.24E-03,  avg # of iterations =  6.0

     total cpu time spent up to now is      387.3 secs

     total energy              =   -6827.05449705 Ry
     estimated scf accuracy    <     236.39910658 Ry

     iteration # 96     ecut=    30.00 Ry     beta= 0.70
     Davidson diagonalization with overlap

---- Real-time Memory Report at c_bands before calling an iterative solver
          1151 MiB given to the printing process from OS
             0 MiB allocation reported by mallinfo(arena+hblkhd)
        139359 MiB available memory on the node where the printing process lives
------------------
     ethr =  5.24E-03,  avg # of iterations =  6.0

     total cpu time spent up to now is      391.1 secs

     total energy              =   -6815.40788831 Ry
     estimated scf accuracy    <     951.14645212 Ry

     iteration # 97     ecut=    30.00 Ry     beta= 0.70
     Davidson diagonalization with overlap

---- Real-time Memory Report at c_bands before calling an iterative solver
          1151 MiB given to the printing process from OS
             0 MiB allocation reported by mallinfo(arena+hblkhd)
        139360 MiB available memory on the node where the printing process lives
------------------
     ethr =  5.24E-03,  avg # of iterations =  6.0

     total cpu time spent up to now is      395.1 secs

     total energy              =   -6818.72755306 Ry
     estimated scf accuracy    <     469.80861002 Ry

     iteration # 98     ecut=    30.00 Ry     beta= 0.70
     Davidson diagonalization with overlap

---- Real-time Memory Report at c_bands before calling an iterative solver
          1151 MiB given to the printing process from OS
             0 MiB allocation reported by mallinfo(arena+hblkhd)
        139361 MiB available memory on the node where the printing process lives
------------------
     ethr =  5.24E-03,  avg # of iterations =  8.0

     total cpu time spent up to now is      399.2 secs

     total energy              =   -6819.17045098 Ry
     estimated scf accuracy    <     763.05747170 Ry

     iteration # 99     ecut=    30.00 Ry     beta= 0.70
     Davidson diagonalization with overlap

---- Real-time Memory Report at c_bands before calling an iterative solver
          1151 MiB given to the printing process from OS
             0 MiB allocation reported by mallinfo(arena+hblkhd)
        139360 MiB available memory on the node where the printing process lives
------------------
     ethr =  5.24E-03,  avg # of iterations = 10.0

     total cpu time spent up to now is      403.4 secs

     total energy              =   -6837.04736844 Ry
     estimated scf accuracy    <     226.60631581 Ry

     iteration #100     ecut=    30.00 Ry     beta= 0.70
     Davidson diagonalization with overlap

---- Real-time Memory Report at c_bands before calling an iterative solver
          1151 MiB given to the printing process from OS
             0 MiB allocation reported by mallinfo(arena+hblkhd)
        139360 MiB available memory on the node where the printing process lives
------------------
     ethr =  5.24E-03,  avg # of iterations =  6.0

     total cpu time spent up to now is      407.3 secs

     total energy              =   -6828.90236380 Ry
     estimated scf accuracy    <     305.06933035 Ry

     End of self-consistent calculation

     convergence NOT achieved after 100 iterations: stopping

     Writing config to output data dir new_calculations/myprefix.save/
     Message from routine punch:
     wavefunctions written to file
 
     init_run     :    430.61s CPU     19.17s WALL (       1 calls)
     electrons    :  11488.23s CPU    387.87s WALL (       1 calls)

     Called by init_run:
     wfcinit      :    189.71s CPU      7.04s WALL (       1 calls)
     wfcinit:atom :      0.14s CPU      0.01s WALL (       1 calls)
     wfcinit:wfcr :    188.68s CPU      6.99s WALL (       1 calls)
     potinit      :     93.80s CPU      3.77s WALL (       1 calls)
     hinit0       :    132.03s CPU      7.70s WALL (       1 calls)

     Called by electrons:
     c_bands      :   5760.45s CPU    185.83s WALL (     100 calls)
     sum_band     :   1311.26s CPU     54.68s WALL (     100 calls)
     v_of_rho     :    112.22s CPU      3.81s WALL (     101 calls)
     v_h          :      8.73s CPU      0.29s WALL (     101 calls)
     v_xc         :    103.22s CPU      3.51s WALL (     101 calls)
     newd         :   1114.13s CPU     37.80s WALL (     101 calls)
     PAW_pot      :   3161.71s CPU    105.10s WALL (     101 calls)
     mix_rho      :     35.18s CPU      1.16s WALL (     100 calls)

     Called by c_bands:
     init_us_2    :      4.71s CPU      0.16s WALL (     201 calls)
     init_us_2:cp :      4.39s CPU      0.15s WALL (     201 calls)
     regterg      :   5721.58s CPU    184.55s WALL (     100 calls)

     Called by sum_band:
     sum_band:wei :      0.43s CPU      0.01s WALL (     100 calls)
     sum_band:loo :    700.71s CPU     22.40s WALL (     100 calls)
     sum_band:buf :      0.08s CPU      0.00s WALL (     100 calls)
     sum_band:ini :      2.32s CPU      0.08s WALL (     100 calls)
     sum_band:cal :      4.76s CPU      0.15s WALL (     100 calls)
     sum_band:bec :      1.61s CPU      0.05s WALL (     100 calls)
     addusdens    :    589.78s CPU     31.59s WALL (     100 calls)
     addusd:skk   :      5.32s CPU      0.32s WALL (     200 calls)
     addusd:dgemm :     42.18s CPU     13.29s WALL (     200 calls)
     addusd:qvan2 :    493.64s CPU     15.99s WALL (     200 calls)

     Called by *egterg:
     rdiaghg      :    660.49s CPU     21.91s WALL (     643 calls)
     regterg:over :     19.49s CPU      0.63s WALL (     543 calls)
     regterg:upda :     23.95s CPU      0.78s WALL (     543 calls)
     regterg:last :     63.51s CPU      2.11s WALL (     283 calls)
     h_psi        :   5053.75s CPU    163.14s WALL (     644 calls)
     s_psi        :      8.74s CPU      0.28s WALL (     644 calls)
     g_psi        :      1.22s CPU      0.04s WALL (     543 calls)

     Called by h_psi:
     h_psi:calbec :     17.27s CPU      0.57s WALL (     644 calls)
     vloc_psi     :   5016.62s CPU    161.93s WALL (     644 calls)
     add_vuspsi   :     12.75s CPU      0.42s WALL (     644 calls)

     General routines
     calbec       :     20.83s CPU      0.68s WALL (     744 calls)
     fft          :    131.16s CPU      5.71s WALL (    1111 calls)
     ffts         :     64.41s CPU      2.59s WALL (     201 calls)
     fftw         :   4939.72s CPU    158.79s WALL (   66708 calls)
     interpolate  :     70.96s CPU      2.81s WALL (     101 calls)
     davcio       :      2.48s CPU      0.30s WALL (      19 calls)
 
     Parallel routines

     PAW routines
     PAW_pot      :   3161.71s CPU    105.10s WALL (     101 calls)
     PAW_symme    :     10.93s CPU      0.36s WALL (     201 calls)
 
     PWSCF        :      3h18m CPU   6m47.78s WALL

 
   This run was terminated on:   0:11: 0  21May2023            

=------------------------------------------------------------------------------=
   JOB DONE.
=------------------------------------------------------------------------------=
