
     Program PWSCF v.7.0 starts on 21May2023 at  0:28:23 

     This program is part of the open-source Quantum ESPRESSO suite
     for quantum simulation of materials; please cite
         "P. Giannozzi et al., J. Phys.:Condens. Matter 21 395502 (2009);
         "P. Giannozzi et al., J. Phys.:Condens. Matter 29 465901 (2017);
         "P. Giannozzi et al., J. Chem. Phys. 152 154105 (2020);
          URL http://www.quantum-espresso.org", 
     in publications or presentations arising from this work. More details at
     http://www.quantum-espresso.org/quote

     Parallel version (MPI & OpenMP), running on      32 processor cores
     Number of MPI processes:                 1
     Threads/MPI process:                    32

     MPI processes distributed on     1 nodes
     139808 MiB available memory on the printing compute node when the environment starts
 
     Reading input from espresso_1845.pwi
Warning: card &CELL ignored
Warning: card / ignored

     Current dimensions of program PWSCF are:
     Max number of different atomic species (ntypx) = 10
     Max number of k-points (npk) =  40000
     Max angular momentum in pseudopotentials (lmaxx) =  4
     file Mg.pbe-n-kjpaw_psl.0.3.0.UPF: wavefunction(s)  3S renormalized

     gamma-point specific algorithms are used
     Message from routine setup:
     using ibrav=0 with symmetry is DISCOURAGED, use correct ibrav instead

     Subspace diagonalization in iterative solution of the eigenvalue problem:
     a serial algorithm will be used

 
     G-vector sticks info
     --------------------
     sticks:   dense  smooth     PW     G-vecs:    dense   smooth      PW
     Sum        3319    1663    421                81895    28797    3577
 
     Using Slab Decomposition
 


     bravais-lattice index     =            0
     lattice parameter (alat)  =      14.1750  a.u.
     unit-cell volume          =    1302.0369 (a.u.)^3
     number of atoms/cell      =            9
     number of atomic types    =            3
     number of electrons       =        96.00
     number of Kohn-Sham states=           58
     kinetic-energy cutoff     =      30.0000  Ry
     charge density cutoff     =     240.0000  Ry
     scf convergence threshold =      1.0E-06
     mixing beta               =       0.7000
     number of iterations used =            8  plain     mixing
     Exchange-correlation= SLA  PW   PBE  PBE
                           (   1   4   3   4   0   0   0)

     celldm(1)=  14.175049  celldm(2)=   0.000000  celldm(3)=   0.000000
     celldm(4)=   0.000000  celldm(5)=   0.000000  celldm(6)=   0.000000

     crystal axes: (cart. coord. in units of alat)
               a(1) = (   1.000000   0.000000   0.000000 )  
               a(2) = (  -0.500000   0.866025   0.000000 )  
               a(3) = (   0.000000   0.000000   0.527860 )  

     reciprocal axes: (cart. coord. in units 2 pi/alat)
               b(1) = (  1.000000  0.577350  0.000000 )  
               b(2) = (  0.000000  1.154700  0.000000 )  
               b(3) = (  0.000000  0.000000  1.894441 )  


     PseudoPot. # 1 for Y  read from file:
     /home/pragov/projects/rrg-bengioy-ad/pragov/crystal_structure_design/SSSP/Y_pbe_v1.uspp.F.UPF
     MD5 check sum: 2cf71db95cafeb975fc457bd7f14888e
     Pseudo is Ultrasoft + core correction, Zval = 11.0
     Generated by new atomic code, or converted to UPF format
     Using radial grid of  885 points,  6 beta functions with: 
                l(1) =   0
                l(2) =   0
                l(3) =   1
                l(4) =   1
                l(5) =   2
                l(6) =   2
     Q(r) pseudized with  6 coefficients,  rinner =    1.200   1.200   1.200
                                                       1.200   1.200

     PseudoPot. # 2 for Mg read from file:
     /home/pragov/projects/rrg-bengioy-ad/pragov/crystal_structure_design/SSSP/Mg.pbe-n-kjpaw_psl.0.3.0.UPF
     MD5 check sum: 24ecedc7f3e3cbe212e682f4413594e4
     Pseudo is Projector augmented-wave + core cor, Zval =  2.0
     Generated using "atomic" code by A. Dal Corso  v.5.0.99 svn rev. 10869
     Shape of augmentation charge: PSQ
     Using radial grid of 1129 points,  4 beta functions with: 
                l(1) =   0
                l(2) =   0
                l(3) =   1
                l(4) =   1
     Q(r) pseudized with 0 coefficients 


     PseudoPot. # 3 for Cu read from file:
     /home/pragov/projects/rrg-bengioy-ad/pragov/crystal_structure_design/SSSP/Cu_pbe_v1.2.uspp.F.UPF
     MD5 check sum: 6e991ff952a84172a2a52a1c1e996048
     Pseudo is Ultrasoft + core correction, Zval = 19.0
     Generated by new atomic code, or converted to UPF format
     Using radial grid of  867 points,  6 beta functions with: 
                l(1) =   0
                l(2) =   0
                l(3) =   1
                l(4) =   1
                l(5) =   2
                l(6) =   2
     Q(r) pseudized with  8 coefficients,  rinner =    1.150   1.150   1.150
                                                       1.150   1.150

     atomic species   valence    mass     pseudopotential
        Y             11.00    88.90584     Y ( 1.00)
        Mg             2.00    24.30500     Mg( 1.00)
        Cu            19.00    63.54600     Cu( 1.00)

     12 Sym. Ops. (no inversion) found


                                    s                        frac. trans.

      isym =  1     identity                                     

 cryst.   s( 1) = (     1          0          0      )
                  (     0          1          0      )
                  (     0          0          1      )

 cart.    s( 1) = (  1.0000000 -0.0000000  0.0000000 )
                  (  0.0000000  1.0000000  0.0000000 )
                  (  0.0000000  0.0000000  1.0000000 )


      isym =  2     180 deg rotation - cart. axis [1,0,0]        

 cryst.   s( 2) = (     1          0          0      )
                  (    -1         -1          0      )
                  (     0          0         -1      )

 cart.    s( 2) = (  1.0000000 -0.0000003  0.0000000 )
                  (  0.0000000 -1.0000000  0.0000000 )
                  (  0.0000000  0.0000000 -1.0000000 )


      isym =  3     120 deg rotation - cryst. axis [0,0,1]       

 cryst.   s( 3) = (     0          1          0      )
                  (    -1         -1          0      )
                  (     0          0          1      )

 cart.    s( 3) = ( -0.4999999 -0.8660253  0.0000000 )
                  (  0.8660255 -0.5000001  0.0000000 )
                  (  0.0000000  0.0000000  1.0000000 )


      isym =  4     120 deg rotation - cryst. axis [0,0,-1]      

 cryst.   s( 4) = (    -1         -1          0      )
                  (     1          0          0      )
                  (     0          0          1      )

 cart.    s( 4) = ( -0.5000001  0.8660253  0.0000000 )
                  ( -0.8660255 -0.4999999  0.0000000 )
                  (  0.0000000  0.0000000  1.0000000 )


      isym =  5     180 deg rotation - cryst. axis [0,1,0]       

 cryst.   s( 5) = (    -1         -1          0      )
                  (     0          1          0      )
                  (     0          0         -1      )

 cart.    s( 5) = ( -0.5000001 -0.8660251  0.0000000 )
                  ( -0.8660255  0.5000001  0.0000000 )
                  (  0.0000000  0.0000000 -1.0000000 )


      isym =  6     180 deg rotation - cryst. axis [1,1,0]       

 cryst.   s( 6) = (     0          1          0      )
                  (     1          0          0      )
                  (     0          0         -1      )

 cart.    s( 6) = ( -0.4999999  0.8660255  0.0000000 )
                  (  0.8660255  0.4999999  0.0000000 )
                  (  0.0000000  0.0000000 -1.0000000 )


      isym =  7     inv. 180 deg rotation - cart. axis [0,0,1]   

 cryst.   s( 7) = (     1          0          0      )
                  (     0          1          0      )
                  (     0          0         -1      )

 cart.    s( 7) = (  1.0000000 -0.0000000  0.0000000 )
                  (  0.0000000  1.0000000  0.0000000 )
                  (  0.0000000  0.0000000 -1.0000000 )


      isym =  8     inv. 180 deg rotation - cart. axis [0,1,0]   

 cryst.   s( 8) = (     1          0          0      )
                  (    -1         -1          0      )
                  (     0          0          1      )

 cart.    s( 8) = (  1.0000000 -0.0000003  0.0000000 )
                  (  0.0000000 -1.0000000  0.0000000 )
                  (  0.0000000  0.0000000  1.0000000 )


      isym =  9     inv.  60 deg rotation - cryst. axis [0,0,1]  

 cryst.   s( 9) = (    -1         -1          0      )
                  (     1          0          0      )
                  (     0          0         -1      )

 cart.    s( 9) = ( -0.5000001  0.8660253  0.0000000 )
                  ( -0.8660255 -0.4999999  0.0000000 )
                  (  0.0000000  0.0000000 -1.0000000 )


      isym = 10     inv.  60 deg rotation - cryst. axis [0,0,-1] 

 cryst.   s(10) = (     0          1          0      )
                  (    -1         -1          0      )
                  (     0          0         -1      )

 cart.    s(10) = ( -0.4999999 -0.8660253  0.0000000 )
                  (  0.8660255 -0.5000001  0.0000000 )
                  (  0.0000000  0.0000000 -1.0000000 )


      isym = 11     inv. 180 deg rotation - cryst. axis [1,-1,0] 

 cryst.   s(11) = (     0          1          0      )
                  (     1          0          0      )
                  (     0          0          1      )

 cart.    s(11) = ( -0.4999999  0.8660255  0.0000000 )
                  (  0.8660255  0.4999999  0.0000000 )
                  (  0.0000000  0.0000000  1.0000000 )


      isym = 12     inv. 180 deg rotation - cryst. axis [2,1,0]  

 cryst.   s(12) = (    -1         -1          0      )
                  (     0          1          0      )
                  (     0          0          1      )

 cart.    s(12) = ( -0.5000001 -0.8660251  0.0000000 )
                  ( -0.8660255  0.5000001  0.0000000 )
                  (  0.0000000  0.0000000  1.0000000 )


   Cartesian axes

     site n.     atom                  positions (alat units)
         1           Y   tau(   1) = (   0.7068461   0.5077577   0.0000000  )
         2           Y   tau(   2) = (   0.5863080   0.0000000   0.0000000  )
         3           Y   tau(   3) = (   0.2068461   0.3582678   0.0000000  )
         4           Mg  tau(   4) = (   0.8783345   0.2107308   0.2639301  )
         5           Mg  tau(   5) = (   0.3783346   0.6552946   0.2639301  )
         6           Mg  tau(   6) = (   0.2433310   0.0000000   0.2639301  )
         7           Cu  tau(   7) = (  -0.0000004   0.5773506   0.2639301  )
         8           Cu  tau(   8) = (   0.0000000   0.0000000   0.0000000  )
         9           Cu  tau(   9) = (   0.5000005   0.2886749   0.2639301  )

   Crystallographic axes

     site n.     atom                  positions (cryst. coord.)
         1           Y   tau(   1) = (  1.0000000  0.5863080  0.0000000  )
         2           Y   tau(   2) = (  0.5863080  0.0000000  0.0000000  )
         3           Y   tau(   3) = (  0.4136920  0.4136920  0.0000000  )
         4           Mg  tau(   4) = (  1.0000000  0.2433310  0.5000000  )
         5           Mg  tau(   5) = (  0.7566690  0.7566690  0.5000000  )
         6           Mg  tau(   6) = (  0.2433310  0.0000000  0.5000000  )
         7           Cu  tau(   7) = (  0.3333330  0.6666670  0.5000000  )
         8           Cu  tau(   8) = (  0.0000000  0.0000000  0.0000000  )
         9           Cu  tau(   9) = (  0.6666670  0.3333330  0.5000000  )

     number of k points=     1  Methfessel-Paxton smearing, width (Ry)=  0.0010
                       cart. coord. in units 2pi/alat
        k(    1) = (   0.0000000   0.0000000   0.0000000), wk =   2.0000000

                       cryst. coord.
        k(    1) = (   0.0000000   0.0000000   0.0000000), wk =   2.0000000

     Dense  grid:    40948 G-vectors     FFT dimensions: (  72,  72,  40)

     Smooth grid:    14399 G-vectors     FFT dimensions: (  50,  50,  27)

     Dynamical RAM for                 wfc:       1.60 MB

     Dynamical RAM for     wfc (w. buffer):       1.60 MB

     Dynamical RAM for           str. fact:       1.87 MB

     Dynamical RAM for           local pot:       0.00 MB

     Dynamical RAM for          nlocal pot:       3.64 MB

     Dynamical RAM for                qrad:       3.73 MB

     Dynamical RAM for          rho,v,vnew:       6.62 MB

     Dynamical RAM for               rhoin:       2.21 MB

     Dynamical RAM for            rho*nmix:      10.00 MB

     Dynamical RAM for           G-vectors:       2.45 MB

     Dynamical RAM for          h,s,v(r/c):       0.31 MB

     Dynamical RAM for          <psi|beta>:       0.06 MB

     Dynamical RAM for                 psi:       3.20 MB

     Dynamical RAM for                hpsi:       3.20 MB

     Dynamical RAM for                spsi:       3.20 MB

     Dynamical RAM for      wfcinit/wfcrot:       5.15 MB

     Dynamical RAM for           addusdens:     118.09 MB

     Dynamical RAM for          addusforce:     120.91 MB

     Dynamical RAM for         addusstress:     125.59 MB

     Estimated static dynamical RAM per process >      32.53 MB

     Estimated max dynamical RAM per process >     168.12 MB

     Check: negative core charge=   -0.000003

     Initial potential from superposition of free atoms

     starting charge      92.9838, renormalised to      96.0000

     negative rho (up, down):  1.315E-01 0.000E+00
     Starting wfcs are   90 randomized atomic wfcs
     Checking if some PAW data can be deallocated... 

     total cpu time spent up to now is        8.0 secs

     Self-consistent Calculation

     iteration #  1     ecut=    30.00 Ry     beta= 0.70
     Davidson diagonalization with overlap

---- Real-time Memory Report at c_bands before calling an iterative solver
           498 MiB given to the printing process from OS
             0 MiB allocation reported by mallinfo(arena+hblkhd)
        139488 MiB available memory on the node where the printing process lives
------------------
     ethr =  1.00E-02,  avg # of iterations =  2.0

     negative rho (up, down):  1.262E-01 0.000E+00

     total cpu time spent up to now is       12.4 secs

     total energy              =   -1573.90697454 Ry
     estimated scf accuracy    <       1.76582101 Ry

     iteration #  2     ecut=    30.00 Ry     beta= 0.70
     Davidson diagonalization with overlap

---- Real-time Memory Report at c_bands before calling an iterative solver
           728 MiB given to the printing process from OS
             0 MiB allocation reported by mallinfo(arena+hblkhd)
        139375 MiB available memory on the node where the printing process lives
------------------
     ethr =  1.84E-03,  avg # of iterations =  4.0

     negative rho (up, down):  1.270E-01 0.000E+00

     total cpu time spent up to now is       14.9 secs

     total energy              =   -1573.77277985 Ry
     estimated scf accuracy    <       6.03502203 Ry

     iteration #  3     ecut=    30.00 Ry     beta= 0.70
     Davidson diagonalization with overlap

---- Real-time Memory Report at c_bands before calling an iterative solver
           742 MiB given to the printing process from OS
             0 MiB allocation reported by mallinfo(arena+hblkhd)
        139354 MiB available memory on the node where the printing process lives
------------------
     ethr =  1.84E-03,  avg # of iterations =  3.0

     negative rho (up, down):  1.280E-01 0.000E+00

     total cpu time spent up to now is       15.9 secs

     total energy              =   -1574.71002203 Ry
     estimated scf accuracy    <       0.20614115 Ry

     iteration #  4     ecut=    30.00 Ry     beta= 0.70
     Davidson diagonalization with overlap

---- Real-time Memory Report at c_bands before calling an iterative solver
           743 MiB given to the printing process from OS
             0 MiB allocation reported by mallinfo(arena+hblkhd)
        139353 MiB available memory on the node where the printing process lives
------------------
     ethr =  2.15E-04,  avg # of iterations =  4.0

     negative rho (up, down):  1.282E-01 0.000E+00

     total cpu time spent up to now is       16.9 secs

     total energy              =   -1574.72151788 Ry
     estimated scf accuracy    <       0.67735426 Ry

     iteration #  5     ecut=    30.00 Ry     beta= 0.70
     Davidson diagonalization with overlap

---- Real-time Memory Report at c_bands before calling an iterative solver
           743 MiB given to the printing process from OS
             0 MiB allocation reported by mallinfo(arena+hblkhd)
        139353 MiB available memory on the node where the printing process lives
------------------
     ethr =  2.15E-04,  avg # of iterations =  3.0

     negative rho (up, down):  1.282E-01 0.000E+00

     total cpu time spent up to now is       17.8 secs

     total energy              =   -1574.77551208 Ry
     estimated scf accuracy    <       0.05522087 Ry

     iteration #  6     ecut=    30.00 Ry     beta= 0.70
     Davidson diagonalization with overlap

---- Real-time Memory Report at c_bands before calling an iterative solver
           745 MiB given to the printing process from OS
             0 MiB allocation reported by mallinfo(arena+hblkhd)
        139351 MiB available memory on the node where the printing process lives
------------------
     ethr =  5.75E-05,  avg # of iterations =  2.0

     negative rho (up, down):  1.284E-01 0.000E+00

     total cpu time spent up to now is       18.6 secs

     total energy              =   -1574.77641268 Ry
     estimated scf accuracy    <       0.08794819 Ry

     iteration #  7     ecut=    30.00 Ry     beta= 0.70
     Davidson diagonalization with overlap

---- Real-time Memory Report at c_bands before calling an iterative solver
           745 MiB given to the printing process from OS
             0 MiB allocation reported by mallinfo(arena+hblkhd)
        139360 MiB available memory on the node where the printing process lives
------------------
     ethr =  5.75E-05,  avg # of iterations =  2.0

     negative rho (up, down):  1.284E-01 0.000E+00

     total cpu time spent up to now is       19.5 secs

     total energy              =   -1574.78152240 Ry
     estimated scf accuracy    <       0.01677257 Ry

     iteration #  8     ecut=    30.00 Ry     beta= 0.70
     Davidson diagonalization with overlap

---- Real-time Memory Report at c_bands before calling an iterative solver
           745 MiB given to the printing process from OS
             0 MiB allocation reported by mallinfo(arena+hblkhd)
        139360 MiB available memory on the node where the printing process lives
------------------
     ethr =  1.75E-05,  avg # of iterations =  2.0

     negative rho (up, down):  1.284E-01 0.000E+00

     total cpu time spent up to now is       20.3 secs

     total energy              =   -1574.78143445 Ry
     estimated scf accuracy    <       0.04650267 Ry

     iteration #  9     ecut=    30.00 Ry     beta= 0.70
     Davidson diagonalization with overlap

---- Real-time Memory Report at c_bands before calling an iterative solver
           745 MiB given to the printing process from OS
             0 MiB allocation reported by mallinfo(arena+hblkhd)
        139361 MiB available memory on the node where the printing process lives
------------------
     ethr =  1.75E-05,  avg # of iterations =  1.0

     negative rho (up, down):  1.283E-01 0.000E+00

     total cpu time spent up to now is       21.2 secs

     total energy              =   -1574.78306794 Ry
     estimated scf accuracy    <       0.00474062 Ry

     iteration # 10     ecut=    30.00 Ry     beta= 0.70
     Davidson diagonalization with overlap

---- Real-time Memory Report at c_bands before calling an iterative solver
           745 MiB given to the printing process from OS
             0 MiB allocation reported by mallinfo(arena+hblkhd)
        139361 MiB available memory on the node where the printing process lives
------------------
     ethr =  4.94E-06,  avg # of iterations =  6.0

     negative rho (up, down):  1.283E-01 0.000E+00

     total cpu time spent up to now is       22.1 secs

     total energy              =   -1574.78326571 Ry
     estimated scf accuracy    <       0.00356431 Ry

     iteration # 11     ecut=    30.00 Ry     beta= 0.70
     Davidson diagonalization with overlap

---- Real-time Memory Report at c_bands before calling an iterative solver
           746 MiB given to the printing process from OS
             0 MiB allocation reported by mallinfo(arena+hblkhd)
        139360 MiB available memory on the node where the printing process lives
------------------
     ethr =  3.71E-06,  avg # of iterations =  1.0

     negative rho (up, down):  1.284E-01 0.000E+00

     total cpu time spent up to now is       22.9 secs

     total energy              =   -1574.78325185 Ry
     estimated scf accuracy    <       0.00152950 Ry

     iteration # 12     ecut=    30.00 Ry     beta= 0.70
     Davidson diagonalization with overlap

---- Real-time Memory Report at c_bands before calling an iterative solver
           746 MiB given to the printing process from OS
             0 MiB allocation reported by mallinfo(arena+hblkhd)
        139361 MiB available memory on the node where the printing process lives
------------------
     ethr =  1.59E-06,  avg # of iterations =  2.0

     negative rho (up, down):  1.283E-01 0.000E+00

     total cpu time spent up to now is       24.2 secs

     total energy              =   -1574.78329952 Ry
     estimated scf accuracy    <       0.00018252 Ry

     iteration # 13     ecut=    30.00 Ry     beta= 0.70
     Davidson diagonalization with overlap

---- Real-time Memory Report at c_bands before calling an iterative solver
           746 MiB given to the printing process from OS
             0 MiB allocation reported by mallinfo(arena+hblkhd)
        139374 MiB available memory on the node where the printing process lives
------------------
     ethr =  1.90E-07,  avg # of iterations =  6.0

     negative rho (up, down):  1.284E-01 0.000E+00

     total cpu time spent up to now is       25.2 secs

     total energy              =   -1574.78338091 Ry
     estimated scf accuracy    <       0.00005784 Ry

     iteration # 14     ecut=    30.00 Ry     beta= 0.70
     Davidson diagonalization with overlap

---- Real-time Memory Report at c_bands before calling an iterative solver
           746 MiB given to the printing process from OS
             0 MiB allocation reported by mallinfo(arena+hblkhd)
        139374 MiB available memory on the node where the printing process lives
------------------
     ethr =  6.03E-08,  avg # of iterations =  2.0

     negative rho (up, down):  1.284E-01 0.000E+00

     total cpu time spent up to now is       26.0 secs

     total energy              =   -1574.78338257 Ry
     estimated scf accuracy    <       0.00002266 Ry

     iteration # 15     ecut=    30.00 Ry     beta= 0.70
     Davidson diagonalization with overlap

---- Real-time Memory Report at c_bands before calling an iterative solver
           746 MiB given to the printing process from OS
             0 MiB allocation reported by mallinfo(arena+hblkhd)
        139374 MiB available memory on the node where the printing process lives
------------------
     ethr =  2.36E-08,  avg # of iterations =  2.0

     negative rho (up, down):  1.284E-01 0.000E+00

     total cpu time spent up to now is       26.9 secs

     total energy              =   -1574.78338415 Ry
     estimated scf accuracy    <       0.00000591 Ry

     iteration # 16     ecut=    30.00 Ry     beta= 0.70
     Davidson diagonalization with overlap

---- Real-time Memory Report at c_bands before calling an iterative solver
           746 MiB given to the printing process from OS
             0 MiB allocation reported by mallinfo(arena+hblkhd)
        139375 MiB available memory on the node where the printing process lives
------------------
     ethr =  6.15E-09,  avg # of iterations =  2.0

     negative rho (up, down):  1.284E-01 0.000E+00

     total cpu time spent up to now is       27.7 secs

     total energy              =   -1574.78338449 Ry
     estimated scf accuracy    <       0.00000770 Ry

     iteration # 17     ecut=    30.00 Ry     beta= 0.70
     Davidson diagonalization with overlap

---- Real-time Memory Report at c_bands before calling an iterative solver
           746 MiB given to the printing process from OS
             0 MiB allocation reported by mallinfo(arena+hblkhd)
        139375 MiB available memory on the node where the printing process lives
------------------
     ethr =  6.15E-09,  avg # of iterations =  1.0

     negative rho (up, down):  1.284E-01 0.000E+00

     total cpu time spent up to now is       28.5 secs

     total energy              =   -1574.78338451 Ry
     estimated scf accuracy    <       0.00000167 Ry

     iteration # 18     ecut=    30.00 Ry     beta= 0.70
     Davidson diagonalization with overlap

---- Real-time Memory Report at c_bands before calling an iterative solver
           746 MiB given to the printing process from OS
             0 MiB allocation reported by mallinfo(arena+hblkhd)
        139376 MiB available memory on the node where the printing process lives
------------------
     ethr =  1.74E-09,  avg # of iterations =  2.0

     negative rho (up, down):  1.284E-01 0.000E+00

     total cpu time spent up to now is       29.4 secs

     total energy              =   -1574.78338442 Ry
     estimated scf accuracy    <       0.00000494 Ry

     iteration # 19     ecut=    30.00 Ry     beta= 0.70
     Davidson diagonalization with overlap

---- Real-time Memory Report at c_bands before calling an iterative solver
           746 MiB given to the printing process from OS
             0 MiB allocation reported by mallinfo(arena+hblkhd)
        139377 MiB available memory on the node where the printing process lives
------------------
     ethr =  1.74E-09,  avg # of iterations =  1.0

     negative rho (up, down):  1.284E-01 0.000E+00

     total cpu time spent up to now is       30.2 secs

     End of self-consistent calculation

          k = 0.0000 0.0000 0.0000 (  1789 PWs)   bands (ev):

  -104.2469-103.4992-103.4987 -61.7546 -61.5460 -61.5459 -60.9078 -60.9065
   -60.8398 -60.8397 -60.8391 -60.8391 -33.1528 -33.1415 -33.1414 -13.2924
   -13.2924 -13.2429 -13.2336 -13.0845 -13.0817 -13.0816 -13.0660 -13.0660
     2.2555   4.5577   5.4341   5.4341   5.5545   5.5817   5.5817   5.9427
     5.9427   5.9870   6.0202   6.2988   6.2988   6.2995   6.2995   6.4763
     6.4763   6.6195   7.0035   7.0035   7.1282   7.1282   9.8590   9.9944
     9.9944  10.3096  10.5745  10.5745  10.9503  11.2032  11.3487  11.3487
    12.0374  12.3636

     occupation numbers 
     1.0000   1.0000   1.0000   1.0000   1.0000   1.0000   1.0000   1.0000
     1.0000   1.0000   1.0000   1.0000   1.0000   1.0000   1.0000   1.0000
     1.0000   1.0000   1.0000   1.0000   1.0000   1.0000   1.0000   1.0000
     1.0000   1.0000   1.0000   1.0000   1.0000   1.0000   1.0000   1.0000
     1.0000   1.0000   1.0000   1.0000   1.0000   1.0000   1.0000   1.0000
     1.0000   1.0000   1.0000   1.0000   1.0000   1.0000   1.0000   0.5006
     0.4994  -0.0000  -0.0000  -0.0000  -0.0000  -0.0000  -0.0000  -0.0000
    -0.0000  -0.0000

     the Fermi energy is     9.9944 ev

!    total energy              =   -1574.78338457 Ry
     estimated scf accuracy    <       0.00000009 Ry
     smearing contrib. (-TS)   =      -0.00056419 Ry
     internal energy E=F+TS    =   -1574.78282038 Ry

     The total energy is F=E-TS. E is the sum of the following terms:
     one-electron contribution =   -1279.20759290 Ry
     hartree contribution      =     670.04622979 Ry
     xc contribution           =    -187.03298824 Ry
     ewald contribution        =    -684.67552649 Ry
     one-center paw contrib.   =     -93.91294254 Ry
      -> PAW hartree energy AE =       2.77566673 Ry
      -> PAW hartree energy PS =      -2.76914416 Ry
      -> PAW xc energy AE      =     -98.06289793 Ry
      -> PAW xc energy PS      =       4.14343282 Ry
      -> total E_H with PAW    =     670.05275236 Ry
      -> total E_XC with PAW   =    -280.95245335 Ry

     convergence has been achieved in  19 iterations

 %%%%%%%%%%%%%%%%%%%%%%%%%%%%%%%%%%%%%%%%%%%%%%%%%%%%%%%%%%%%%%%%%%%%%%%%%%%%%%
     Error in routine write_rhog (1):
     error opening file new_calculations/myprefix.save/charge-density
 %%%%%%%%%%%%%%%%%%%%%%%%%%%%%%%%%%%%%%%%%%%%%%%%%%%%%%%%%%%%%%%%%%%%%%%%%%%%%%

     stopping ...
