
     Program PWSCF v.7.0 starts on 21May2023 at 11:55:38 

     This program is part of the open-source Quantum ESPRESSO suite
     for quantum simulation of materials; please cite
         "P. Giannozzi et al., J. Phys.:Condens. Matter 21 395502 (2009);
         "P. Giannozzi et al., J. Phys.:Condens. Matter 29 465901 (2017);
         "P. Giannozzi et al., J. Chem. Phys. 152 154105 (2020);
          URL http://www.quantum-espresso.org", 
     in publications or presentations arising from this work. More details at
     http://www.quantum-espresso.org/quote

     Parallel version (MPI & OpenMP), running on      32 processor cores
     Number of MPI processes:                 1
     Threads/MPI process:                    32

     MPI processes distributed on     1 nodes
     60968 MiB available memory on the printing compute node when the environment starts
 
     Reading input from espresso_23628.pwi
Warning: card &CELL ignored
Warning: card / ignored

     Current dimensions of program PWSCF are:
     Max number of different atomic species (ntypx) = 10
     Max number of k-points (npk) =  40000
     Max angular momentum in pseudopotentials (lmaxx) =  4
     file Al.pbe-n-kjpaw_psl.1.0.0.UPF: wavefunction(s)  3S 3P renormalized

     gamma-point specific algorithms are used

     Subspace diagonalization in iterative solution of the eigenvalue problem:
     a serial algorithm will be used

 
     G-vector sticks info
     --------------------
     sticks:   dense  smooth     PW     G-vecs:    dense   smooth      PW
     Sum        3123    1565    393                98333    34735    4363
 
     Using Slab Decomposition
 


     bravais-lattice index     =            0
     lattice parameter (alat)  =      17.3427  a.u.
     unit-cell volume          =    1566.4512 (a.u.)^3
     number of atoms/cell      =           15
     number of atomic types    =            2
     number of electrons       =        81.00
     number of Kohn-Sham states=           49
     kinetic-energy cutoff     =      30.0000  Ry
     charge density cutoff     =     240.0000  Ry
     scf convergence threshold =      1.0E-06
     mixing beta               =       0.7000
     number of iterations used =            8  plain     mixing
     Exchange-correlation= PBE
                           (   1   4   3   4   0   0   0)

     celldm(1)=  17.342695  celldm(2)=   0.000000  celldm(3)=   0.000000
     celldm(4)=   0.000000  celldm(5)=   0.000000  celldm(6)=   0.000000

     crystal axes: (cart. coord. in units of alat)
               a(1) = (   1.000000   0.000000   0.000000 )  
               a(2) = (  -0.839443   0.543448   0.000000 )  
               a(3) = (   0.031082   0.105204   0.552598 )  

     reciprocal axes: (cart. coord. in units 2 pi/alat)
               b(1) = (  1.000000  1.544660 -0.350321 )  
               b(2) = (  0.000000  1.840102 -0.350321 )  
               b(3) = (  0.000000  0.000000  1.809635 )  


     PseudoPot. # 1 for Al read from file:
     /home/pragov/projects/rrg-bengioy-ad/pragov/crystal_structure_design/SSSP/Al.pbe-n-kjpaw_psl.1.0.0.UPF
     MD5 check sum: cfc449ca30b5f3223ec38ddd88ac046d
     Pseudo is Projector augmented-wave + core cor, Zval =  3.0
     Generated using "atomic" code by A. Dal Corso  v.5.1
     Shape of augmentation charge: PSQ
     Using radial grid of 1135 points,  6 beta functions with: 
                l(1) =   0
                l(2) =   0
                l(3) =   1
                l(4) =   1
                l(5) =   2
                l(6) =   2
     Q(r) pseudized with 0 coefficients 


     PseudoPot. # 2 for Tc read from file:
     /home/pragov/projects/rrg-bengioy-ad/pragov/crystal_structure_design/SSSP/Tc_ONCV_PBE-1.0.oncvpsp.upf
     MD5 check sum: 1c2b1e6c8b361b656073c0c20ed4f60a
     Pseudo is Norm-conserving, Zval = 15.0
     Generated using ONCVPSP code by D. R. Hamann
     Using radial grid of 1492 points,  6 beta functions with: 
                l(1) =   0
                l(2) =   0
                l(3) =   1
                l(4) =   1
                l(5) =   2
                l(6) =   2

     atomic species   valence    mass     pseudopotential
        Al             3.00    26.98154     Al( 1.00)
        Tc            15.00    97.90721     Tc( 1.00)

     No symmetry found


                                    s                        frac. trans.

      isym =  1     identity                                     

 cryst.   s( 1) = (     1          0          0      )
                  (     0          1          0      )
                  (     0          0          1      )

 cart.    s( 1) = (  1.0000000 -0.0000000  0.0000000 )
                  (  0.0000000  1.0000000 -0.0000000 )
                  (  0.0000000  0.0000000  1.0000000 )


   Cartesian axes

     site n.     atom                  positions (alat units)
         1           Al  tau(   1) = (   0.1525582   0.5163731   0.2797514  )
         2           Al  tau(   2) = (   0.0858734   0.2906610   0.0806455  )
         3           Al  tau(   3) = (  -0.0651319   0.2975649   0.3761907  )
         4           Al  tau(   4) = (   0.2163856   0.2143929   0.3761907  )
         5           Al  tau(   5) = (  -0.1847050   0.1863445   0.1179028  )
         6           Al  tau(   6) = (   0.2563179   0.0560479   0.1179028  )
         7           Al  tau(   7) = (   0.3860570   0.4614175   0.4478007  )
         8           Al  tau(   8) = (  -0.0733162   0.5971356   0.4478007  )
         9           Al  tau(   9) = (  -0.3598269   0.3604706   0.3273754  )
        10           Al  tau(  10) = (   0.4979512   0.1070471   0.3273754  )
        11           Al  tau(  11) = (  -0.3782483   0.4037027   0.0396207  )
        12           Al  tau(  12) = (   0.5369093   0.1333269   0.0396207  )
        13           Tc  tau(  13) = (   0.0329458   0.1115138   0.5485525  )
        14           Tc  tau(  14) = (   0.3687288   0.3242966   0.1834364  )
        15           Tc  tau(  15) = (  -0.1332882   0.4726134   0.1834364  )

   Crystallographic axes

     site n.     atom                  positions (cryst. coord.)
         1           Al  tau(   1) = (  0.8521760  0.8521760  0.5062480  )
         2           Al  tau(   2) = (  0.5065940  0.5065940  0.1459390  )
         3           Al  tau(   3) = (  0.2627170  0.4157620  0.6807680  )
         4           Al  tau(   4) = (  0.4157620  0.2627170  0.6807680  )
         5           Al  tau(   5) = (  0.0618300  0.3015890  0.2133610  )
         6           Al  tau(   6) = (  0.3015890  0.0618300  0.2133610  )
         7           Al  tau(   7) = (  0.9419160  0.6921810  0.8103560  )
         8           Al  tau(   8) = (  0.6921810  0.9419160  0.8103560  )
         9           Al  tau(   9) = (  0.0822910  0.5486160  0.5924300  )
        10           Al  tau(  10) = (  0.5486160  0.0822910  0.5924300  )
        11           Al  tau(  11) = (  0.2314550  0.7289740  0.0716990  )
        12           Al  tau(  12) = (  0.7289740  0.2314550  0.0716990  )
        13           Tc  tau(  13) = (  0.0130270  0.0130270  0.9926800  )
        14           Tc  tau(  14) = (  0.8053950  0.5324770  0.3319530  )
        15           Tc  tau(  15) = (  0.5324770  0.8053950  0.3319530  )

     number of k points=     1  Methfessel-Paxton smearing, width (Ry)=  0.0010
                       cart. coord. in units 2pi/alat
        k(    1) = (   0.0000000   0.0000000   0.0000000), wk =   2.0000000

                       cryst. coord.
        k(    1) = (   0.0000000   0.0000000   0.0000000), wk =   2.0000000

     Dense  grid:    49167 G-vectors     FFT dimensions: (  90,  90,  50)

     Smooth grid:    17368 G-vectors     FFT dimensions: (  64,  64,  36)

     Dynamical RAM for                 wfc:       1.62 MB

     Dynamical RAM for     wfc (w. buffer):       1.62 MB

     Dynamical RAM for           str. fact:       1.50 MB

     Dynamical RAM for           local pot:       0.00 MB

     Dynamical RAM for          nlocal pot:       8.95 MB

     Dynamical RAM for                qrad:       2.49 MB

     Dynamical RAM for          rho,v,vnew:      11.52 MB

     Dynamical RAM for               rhoin:       3.84 MB

     Dynamical RAM for            rho*nmix:      12.00 MB

     Dynamical RAM for           G-vectors:       2.95 MB

     Dynamical RAM for          h,s,v(r/c):       0.22 MB

     Dynamical RAM for          <psi|beta>:       0.10 MB

     Dynamical RAM for                 psi:       3.25 MB

     Dynamical RAM for                hpsi:       3.25 MB

     Dynamical RAM for                spsi:       3.25 MB

     Dynamical RAM for      wfcinit/wfcrot:       5.31 MB

     Dynamical RAM for           addusdens:     148.55 MB

     Dynamical RAM for          addusforce:     165.47 MB

     Dynamical RAM for         addusstress:     150.80 MB

     Estimated static dynamical RAM per process >      50.57 MB

     Estimated max dynamical RAM per process >     228.05 MB

     Initial potential from superposition of free atoms

     starting charge      80.9704, renormalised to      81.0000
     Starting wfcs are   78 randomized atomic wfcs
     Checking if some PAW data can be deallocated... 

     total cpu time spent up to now is       13.6 secs

     Self-consistent Calculation

     iteration #  1     ecut=    30.00 Ry     beta= 0.70
     Davidson diagonalization with overlap

---- Real-time Memory Report at c_bands before calling an iterative solver
           467 MiB given to the printing process from OS
             0 MiB allocation reported by mallinfo(arena+hblkhd)
         60743 MiB available memory on the node where the printing process lives
------------------
     ethr =  1.00E-02,  avg # of iterations =  2.0

     total cpu time spent up to now is       18.1 secs

     total energy              =    -957.35634372 Ry
     estimated scf accuracy    <       1.30205941 Ry

     iteration #  2     ecut=    30.00 Ry     beta= 0.70
     Davidson diagonalization with overlap

---- Real-time Memory Report at c_bands before calling an iterative solver
           507 MiB given to the printing process from OS
             0 MiB allocation reported by mallinfo(arena+hblkhd)
         60748 MiB available memory on the node where the printing process lives
------------------
     ethr =  1.61E-03,  avg # of iterations =  8.0

     total cpu time spent up to now is       23.4 secs

     total energy              =    -956.51167806 Ry
     estimated scf accuracy    <      14.25921036 Ry

     iteration #  3     ecut=    30.00 Ry     beta= 0.70
     Davidson diagonalization with overlap

---- Real-time Memory Report at c_bands before calling an iterative solver
           510 MiB given to the printing process from OS
             0 MiB allocation reported by mallinfo(arena+hblkhd)
         60721 MiB available memory on the node where the printing process lives
------------------
     ethr =  1.61E-03,  avg # of iterations =  6.0

     total cpu time spent up to now is       25.2 secs

     total energy              =    -957.94732856 Ry
     estimated scf accuracy    <       1.28925881 Ry

     iteration #  4     ecut=    30.00 Ry     beta= 0.70
     Davidson diagonalization with overlap

---- Real-time Memory Report at c_bands before calling an iterative solver
           511 MiB given to the printing process from OS
             0 MiB allocation reported by mallinfo(arena+hblkhd)
         60720 MiB available memory on the node where the printing process lives
------------------
     ethr =  1.59E-03,  avg # of iterations =  2.0

     total cpu time spent up to now is       26.7 secs

     total energy              =    -958.09668766 Ry
     estimated scf accuracy    <       0.23759199 Ry

     iteration #  5     ecut=    30.00 Ry     beta= 0.70
     Davidson diagonalization with overlap

---- Real-time Memory Report at c_bands before calling an iterative solver
           511 MiB given to the printing process from OS
             0 MiB allocation reported by mallinfo(arena+hblkhd)
         60722 MiB available memory on the node where the printing process lives
------------------
     ethr =  2.93E-04,  avg # of iterations =  2.0

     total cpu time spent up to now is       28.2 secs

     total energy              =    -958.12359248 Ry
     estimated scf accuracy    <       0.19239389 Ry

     iteration #  6     ecut=    30.00 Ry     beta= 0.70
     Davidson diagonalization with overlap

---- Real-time Memory Report at c_bands before calling an iterative solver
           511 MiB given to the printing process from OS
             0 MiB allocation reported by mallinfo(arena+hblkhd)
         60722 MiB available memory on the node where the printing process lives
------------------
     ethr =  2.38E-04,  avg # of iterations =  2.0

     total cpu time spent up to now is       29.7 secs

     total energy              =    -958.14397108 Ry
     estimated scf accuracy    <       0.01031809 Ry

     iteration #  7     ecut=    30.00 Ry     beta= 0.70
     Davidson diagonalization with overlap

---- Real-time Memory Report at c_bands before calling an iterative solver
           512 MiB given to the printing process from OS
             0 MiB allocation reported by mallinfo(arena+hblkhd)
         60721 MiB available memory on the node where the printing process lives
------------------
     ethr =  1.27E-05,  avg # of iterations = 20.0

     total cpu time spent up to now is       31.5 secs

     total energy              =    -958.14475424 Ry
     estimated scf accuracy    <       0.03181807 Ry

     iteration #  8     ecut=    30.00 Ry     beta= 0.70
     Davidson diagonalization with overlap

---- Real-time Memory Report at c_bands before calling an iterative solver
           512 MiB given to the printing process from OS
             0 MiB allocation reported by mallinfo(arena+hblkhd)
         60698 MiB available memory on the node where the printing process lives
------------------
     ethr =  1.27E-05,  avg # of iterations =  2.0

     total cpu time spent up to now is       32.9 secs

     total energy              =    -958.14705246 Ry
     estimated scf accuracy    <       0.00177396 Ry

     iteration #  9     ecut=    30.00 Ry     beta= 0.70
     Davidson diagonalization with overlap

---- Real-time Memory Report at c_bands before calling an iterative solver
           512 MiB given to the printing process from OS
             0 MiB allocation reported by mallinfo(arena+hblkhd)
         60732 MiB available memory on the node where the printing process lives
------------------
     ethr =  2.19E-06,  avg # of iterations =  2.0

     total cpu time spent up to now is       34.4 secs

     total energy              =    -958.14725444 Ry
     estimated scf accuracy    <       0.00005779 Ry

     iteration # 10     ecut=    30.00 Ry     beta= 0.70
     Davidson diagonalization with overlap

---- Real-time Memory Report at c_bands before calling an iterative solver
           512 MiB given to the printing process from OS
             0 MiB allocation reported by mallinfo(arena+hblkhd)
         60729 MiB available memory on the node where the printing process lives
------------------
     ethr =  7.13E-08,  avg # of iterations =  5.0

     total cpu time spent up to now is       36.0 secs

     total energy              =    -958.14727807 Ry
     estimated scf accuracy    <       0.00006996 Ry

     iteration # 11     ecut=    30.00 Ry     beta= 0.70
     Davidson diagonalization with overlap

---- Real-time Memory Report at c_bands before calling an iterative solver
           512 MiB given to the printing process from OS
             0 MiB allocation reported by mallinfo(arena+hblkhd)
         60702 MiB available memory on the node where the printing process lives
------------------
     ethr =  7.13E-08,  avg # of iterations =  1.0

     total cpu time spent up to now is       37.5 secs

     total energy              =    -958.14728063 Ry
     estimated scf accuracy    <       0.00000698 Ry

     iteration # 12     ecut=    30.00 Ry     beta= 0.70
     Davidson diagonalization with overlap

---- Real-time Memory Report at c_bands before calling an iterative solver
           512 MiB given to the printing process from OS
             0 MiB allocation reported by mallinfo(arena+hblkhd)
         60715 MiB available memory on the node where the printing process lives
------------------
     ethr =  8.62E-09,  avg # of iterations =  4.0

     total cpu time spent up to now is       40.5 secs

     total energy              =    -958.14728228 Ry
     estimated scf accuracy    <       0.00000263 Ry

     iteration # 13     ecut=    30.00 Ry     beta= 0.70
     Davidson diagonalization with overlap

---- Real-time Memory Report at c_bands before calling an iterative solver
           512 MiB given to the printing process from OS
             0 MiB allocation reported by mallinfo(arena+hblkhd)
         60713 MiB available memory on the node where the printing process lives
------------------
     ethr =  3.25E-09,  avg # of iterations =  2.0

     total cpu time spent up to now is       42.7 secs

     total energy              =    -958.14728250 Ry
     estimated scf accuracy    <       0.00000131 Ry

     iteration # 14     ecut=    30.00 Ry     beta= 0.70
     Davidson diagonalization with overlap

---- Real-time Memory Report at c_bands before calling an iterative solver
           512 MiB given to the printing process from OS
             0 MiB allocation reported by mallinfo(arena+hblkhd)
         60717 MiB available memory on the node where the printing process lives
------------------
     ethr =  1.62E-09,  avg # of iterations =  1.0

     total cpu time spent up to now is       44.2 secs

     End of self-consistent calculation

          k = 0.0000 0.0000 0.0000 (  2182 PWs)   bands (ev):

   -56.2561 -56.2560 -56.1232 -28.4401 -28.4401 -28.3072 -28.3056 -28.2363
   -28.2099 -28.2034 -28.1910 -28.1536   0.1459   1.9889   2.2192   4.9844
     5.1388   5.4273   5.5766   6.0022   6.0558   6.5303   6.8672   7.0738
     7.0806   7.1910   7.3194   7.5506   7.7406   7.7460   8.0690   8.1764
     8.4606   8.5426   8.7791   9.0294   9.2463   9.3137   9.6061   9.8356
    10.2540  10.8210  11.3407  11.5812  11.7768  12.0278  12.4083  12.6962
    13.2854

     occupation numbers 
     1.0000   1.0000   1.0000   1.0000   1.0000   1.0000   1.0000   1.0000
     1.0000   1.0000   1.0000   1.0000   1.0000   1.0000   1.0000   1.0000
     1.0000   1.0000   1.0000   1.0000   1.0000   1.0000   1.0000   1.0000
     1.0000   1.0000   1.0000   1.0000   1.0000   1.0000   1.0000   1.0000
     1.0000   1.0000   1.0000   1.0000   1.0000   1.0000   1.0000   1.0000
     0.5000  -0.0000  -0.0000  -0.0000  -0.0000  -0.0000  -0.0000  -0.0000
    -0.0000

     the Fermi energy is    10.2540 ev

!    total energy              =    -958.14728250 Ry
     estimated scf accuracy    <       0.00000010 Ry
     smearing contrib. (-TS)   =      -0.00028209 Ry
     internal energy E=F+TS    =    -958.14700041 Ry

     The total energy is F=E-TS. E is the sum of the following terms:
     one-electron contribution =    -271.68965982 Ry
     hartree contribution      =     168.54772390 Ry
     xc contribution           =     -84.47287488 Ry
     ewald contribution        =    -354.25989974 Ry
     one-center paw contrib.   =    -416.27228987 Ry
      -> PAW hartree energy AE =      18.71247236 Ry
      -> PAW hartree energy PS =     -18.64983656 Ry
      -> PAW xc energy AE      =    -440.04060106 Ry
      -> PAW xc energy PS      =      23.70567538 Ry
      -> total E_H with PAW    =     168.61035970 Ry
      -> total E_XC with PAW   =    -500.80780055 Ry

     convergence has been achieved in  14 iterations

     Forces acting on atoms (cartesian axes, Ry/au):

     atom    1 type  1   force =     0.00126489    0.00426489    0.02061405
     atom    2 type  1   force =    -0.00447062   -0.01513462   -0.00724059
     atom    3 type  1   force =    -0.01116308   -0.00655885    0.00814355
     atom    4 type  1   force =     0.00580916   -0.01157785    0.00814657
     atom    5 type  1   force =     0.00437359   -0.00090029   -0.00077457
     atom    6 type  1   force =    -0.00416354    0.00161851   -0.00077654
     atom    7 type  1   force =    -0.00049076    0.01697470   -0.01171674
     atom    8 type  1   force =     0.00963155    0.01398118   -0.01171532
     atom    9 type  1   force =    -0.00959437    0.01201076    0.01609359
     atom   10 type  1   force =     0.01456553    0.00487243    0.01609450
     atom   11 type  1   force =    -0.01670937   -0.00827692   -0.01722242
     atom   12 type  1   force =     0.00951098   -0.01602772   -0.01722324
     atom   13 type  2   force =     0.00141776    0.00463219   -0.02182756
     atom   14 type  2   force =    -0.01543072    0.00462803    0.00969697
     atom   15 type  2   force =     0.01544902   -0.00450643    0.00970775
     The non-local contrib.  to forces
     atom    1 type  1   force =     0.01446303    0.04894956    0.01936857
     atom    2 type  1   force =    -0.01649229   -0.05582958   -0.04510232
     atom    3 type  1   force =    -0.01122870    0.01089639    0.02050055
     atom    4 type  1   force =     0.01535425    0.00305007    0.02049124
     atom    5 type  1   force =    -0.04713460    0.05976081    0.05193583
     atom    6 type  1   force =     0.07205253    0.02455119    0.05194119
     atom    7 type  1   force =     0.05257063   -0.04467341   -0.00259306
     atom    8 type  1   force =    -0.06840391   -0.00892574   -0.00259344
     atom    9 type  1   force =     0.00058037    0.01910653    0.02806191
     atom   10 type  1   force =     0.00989677    0.01635656    0.02806297
     atom   11 type  1   force =    -0.01210427   -0.01871147   -0.03999876
     atom   12 type  1   force =    -0.00001352   -0.02228216   -0.03999904
     atom   13 type  2   force =    -0.01792019   -0.06058339   -0.05648934
     atom   14 type  2   force =     0.00369555    0.00930052    0.00952562
     atom   15 type  2   force =     0.00195636    0.00981773    0.00952722
     The ionic contribution  to forces
     atom    1 type  1   force =     0.10212780    0.34567823    1.50162846
     atom    2 type  1   force =    -0.45477585   -1.53930774   -0.14725854
     atom    3 type  1   force =    -1.06129085    0.21651867    0.27590264
     atom    4 type  1   force =     1.00855952   -0.39500164    0.27590264
     atom    5 type  1   force =    -1.59180389    1.48095390   -0.03388193
     atom    6 type  1   force =     2.14104991    0.37811286   -0.03388193
     atom    7 type  1   force =     2.10165742   -0.56277853   -0.91920089
     atom    8 type  1   force =    -2.07006192    0.66972174   -0.91920089
     atom    9 type  1   force =    -0.26976928   -0.36931074    1.54246565
     atom   10 type  1   force =     0.02575457   -0.45662084    1.54246565
     atom   11 type  1   force =    -0.08831338   -0.02783029   -1.61327291
     atom   12 type  1   force =     0.05900969   -0.07135568   -1.61327291
     atom   13 type  2   force =     0.84410506    2.85709424   -3.87328156
     atom   14 type  2   force =     6.55065342   -3.30851047    2.00744327
     atom   15 type  2   force =    -7.29690223    0.78263629    2.00744327
     The local contribution  to forces
     atom    1 type  1   force =    -0.11371671   -0.38509993   -1.49778303
     atom    2 type  1   force =     0.46494617    1.57357058    0.18051192
     atom    3 type  1   force =     1.05997132   -0.23281220   -0.28595367
     atom    4 type  1   force =    -1.01625676    0.38057799   -0.28594143
     atom    5 type  1   force =     1.63809896   -1.53488731   -0.01348621
     atom    6 type  1   force =    -2.20922743   -0.39823533   -0.01349218
     atom    7 type  1   force =    -2.14863031    0.61953750    0.90941802
     atom    8 type  1   force =     2.14032603   -0.64761178    0.90942416
     atom    9 type  1   force =     0.25950082    0.36368835   -1.55122271
     atom   10 type  1   force =    -0.02028670    0.44634880   -1.55122529
     atom   11 type  1   force =     0.08251043    0.03631770    1.63145191
     atom   12 type  1   force =    -0.04961928    0.07534657    1.63145184
     atom   13 type  2   force =    -0.82443639   -2.79208477    3.90821977
     atom   14 type  2   force =    -6.56923512    3.30380844   -2.00720852
     atom   15 type  2   force =     7.30980830   -0.79667001   -2.00727965
     The core correction contribution to forces
     atom    1 type  1   force =    -0.00156425   -0.00529518   -0.00264123
     atom    2 type  1   force =     0.00190299    0.00644155    0.00463392
     atom    3 type  1   force =     0.00134800   -0.00114109   -0.00234044
     atom    4 type  1   force =    -0.00175227   -0.00022611   -0.00233936
     atom    5 type  1   force =     0.00512701   -0.00672688   -0.00532051
     atom    6 type  1   force =    -0.00796043   -0.00286081   -0.00532114
     atom    7 type  1   force =    -0.00601879    0.00485884    0.00065822
     atom    8 type  1   force =     0.00769257    0.00080721    0.00065821
     atom    9 type  1   force =     0.00003324   -0.00145461   -0.00326074
     atom   10 type  1   force =    -0.00081883   -0.00120307   -0.00326087
     atom   11 type  1   force =     0.00115328    0.00195850    0.00464626
     atom   12 type  1   force =     0.00009629    0.00227049    0.00464620
     atom   13 type  2   force =     0.00000000    0.00000000    0.00000000
     atom   14 type  2   force =     0.00000000    0.00000000    0.00000000
     atom   15 type  2   force =     0.00000000    0.00000000    0.00000000
     The Hubbard contrib.    to forces
     atom    1 type  1   force =     0.00000000    0.00000000    0.00000000
     atom    2 type  1   force =     0.00000000    0.00000000    0.00000000
     atom    3 type  1   force =     0.00000000    0.00000000    0.00000000
     atom    4 type  1   force =     0.00000000    0.00000000    0.00000000
     atom    5 type  1   force =     0.00000000    0.00000000    0.00000000
     atom    6 type  1   force =     0.00000000    0.00000000    0.00000000
     atom    7 type  1   force =     0.00000000    0.00000000    0.00000000
     atom    8 type  1   force =     0.00000000    0.00000000    0.00000000
     atom    9 type  1   force =     0.00000000    0.00000000    0.00000000
     atom   10 type  1   force =     0.00000000    0.00000000    0.00000000
     atom   11 type  1   force =     0.00000000    0.00000000    0.00000000
     atom   12 type  1   force =     0.00000000    0.00000000    0.00000000
     atom   13 type  2   force =     0.00000000    0.00000000    0.00000000
     atom   14 type  2   force =     0.00000000    0.00000000    0.00000000
     atom   15 type  2   force =     0.00000000    0.00000000    0.00000000
     The SCF correction term to forces
     atom    1 type  1   force =    -0.00004435    0.00002770    0.00003945
     atom    2 type  1   force =    -0.00005102   -0.00001394   -0.00002742
     atom    3 type  1   force =     0.00003776   -0.00002514    0.00003263
     atom    4 type  1   force =    -0.00009497    0.00001733    0.00003166
     atom    5 type  1   force =     0.00008672   -0.00000531   -0.00002358
     atom    6 type  1   force =    -0.00007751    0.00004609   -0.00002430
     atom    7 type  1   force =    -0.00006909    0.00002579   -0.00000086
     atom    8 type  1   force =     0.00007941   -0.00001475   -0.00000518
     atom    9 type  1   force =     0.00006110   -0.00002328    0.00004764
     atom   10 type  1   force =     0.00002033   -0.00001353    0.00005021
     atom   11 type  1   force =     0.00004518   -0.00001587   -0.00005075
     atom   12 type  1   force =     0.00003842   -0.00001145   -0.00005116
     atom   13 type  2   force =    -0.00033011    0.00020160   -0.00027826
     atom   14 type  2   force =    -0.00054395    0.00002503   -0.00006523
     atom   15 type  2   force =     0.00058720   -0.00029494    0.00001509

     Total force =     0.074778     Total SCF correction =     0.001014


     Computing stress (Cartesian axis) and pressure

          total   stress  (Ry/bohr**3)                   (kbar)     P=       -0.64
  -0.00066896   0.00034796   0.00009696          -98.41       51.19       14.26
   0.00034796   0.00040596   0.00032820           51.19       59.72       48.28
   0.00009696   0.00032820   0.00024992           14.26       48.28       36.76

     kinetic stress (kbar)  10771.04     10.20      1.55
                               10.20  10802.57      5.24
                                1.55      5.24  10807.39

     local   stress (kbar)  -6758.80    236.89    483.62
                              236.89  -6027.00   1636.92
                              483.62   1636.92  -5285.99

     nonloc. stress (kbar)   3285.76      5.15      2.46
                                5.15   3301.66      8.32
                                2.46      8.32   3268.55

     hartree stress (kbar)   5557.59    -82.54   -179.70
                              -82.54   5302.62   -608.22
                             -179.70   -608.22   4968.07

     exc-cor stress (kbar)  -1139.53     -0.15     -0.46
                               -0.15  -1140.01     -1.57
                               -0.46     -1.57  -1140.13

     corecor stress (kbar)  -1103.02     -0.17      0.20
                               -0.17  -1103.54      0.68
                                0.20      0.68  -1100.68

     ewald   stress (kbar) -10711.43   -118.20   -293.40
                             -118.20 -11076.58   -993.08
                             -293.40   -993.08 -11480.45

     hubbard stress (kbar)      0.00      0.00      0.00
                                0.00      0.00      0.00
                                0.00      0.00      0.00

     DFT-D   stress (kbar)      0.00      0.00      0.00
                                0.00      0.00      0.00
                                0.00      0.00      0.00

     XDM     stress (kbar)      0.00      0.00      0.00
                                0.00      0.00      0.00
                                0.00      0.00      0.00

     dft-nl  stress (kbar)      0.00      0.00      0.00
                                0.00      0.00      0.00
                                0.00      0.00      0.00

     TS-vdW  stress (kbar)      0.00      0.00      0.00
                                0.00      0.00      0.00
                                0.00      0.00      0.00


                                0.00      0.00      0.00
                                0.00      0.00      0.00


                                0.00      0.00      0.00


     Writing all to output data dir new_calculations/myprefix.save/
 
     init_run     :    337.01s CPU     13.42s WALL (       1 calls)
     electrons    :    922.57s CPU     30.68s WALL (       1 calls)
     forces       :     10.80s CPU      0.37s WALL (       1 calls)
     stress       :     19.15s CPU      0.64s WALL (       1 calls)

     Called by init_run:
     wfcinit      :     93.92s CPU      3.25s WALL (       1 calls)
     wfcinit:atom :      0.04s CPU      0.00s WALL (       1 calls)
     wfcinit:wfcr :     93.56s CPU      3.23s WALL (       1 calls)
     potinit      :     84.04s CPU      3.06s WALL (       1 calls)
     hinit0       :    153.97s CPU      6.88s WALL (       1 calls)

     Called by electrons:
     c_bands      :    440.94s CPU     14.42s WALL (      14 calls)
     sum_band     :    122.55s CPU      4.20s WALL (      14 calls)
     v_of_rho     :     24.58s CPU      0.84s WALL (      15 calls)
     v_h          :      1.49s CPU      0.05s WALL (      15 calls)
     v_xc         :     25.70s CPU      0.88s WALL (      17 calls)
     newd         :     25.65s CPU      0.92s WALL (      15 calls)
     PAW_pot      :    320.07s CPU     10.76s WALL (      15 calls)
     mix_rho      :      4.36s CPU      0.15s WALL (      14 calls)

     Called by c_bands:
     init_us_2    :      1.04s CPU      0.04s WALL (      29 calls)
     init_us_2:cp :      1.00s CPU      0.04s WALL (      29 calls)
     regterg      :    437.28s CPU     14.29s WALL (      14 calls)

     Called by sum_band:
     sum_band:wei :      0.04s CPU      0.00s WALL (      14 calls)
     sum_band:loo :     92.64s CPU      3.05s WALL (      14 calls)
     sum_band:buf :      0.01s CPU      0.00s WALL (      14 calls)
     sum_band:ini :      0.22s CPU      0.01s WALL (      14 calls)
     sum_band:cal :      0.59s CPU      0.02s WALL (      14 calls)
     sum_band:bec :      0.11s CPU      0.00s WALL (      14 calls)
     addusdens    :     27.00s CPU      1.05s WALL (      14 calls)
     addusd:skk   :      0.61s CPU      0.04s WALL (      14 calls)
     addusd:dgemm :      1.40s CPU      0.16s WALL (      14 calls)
     addusd:qvan2 :     16.65s CPU      0.55s WALL (      14 calls)

     Called by *egterg:
     rdiaghg      :      6.58s CPU      0.22s WALL (      73 calls)
     regterg:over :      2.42s CPU      0.08s WALL (      59 calls)
     regterg:upda :      0.62s CPU      0.02s WALL (      59 calls)
     regterg:last :      1.54s CPU      0.05s WALL (      30 calls)
     h_psi        :    515.24s CPU     17.00s WALL (      74 calls)
     s_psi        :      0.31s CPU      0.01s WALL (      74 calls)
     g_psi        :      0.10s CPU      0.00s WALL (      59 calls)

     Called by h_psi:
     h_psi:calbec :      3.36s CPU      0.12s WALL (      74 calls)
     vloc_psi     :    510.71s CPU     16.84s WALL (      74 calls)
     add_vuspsi   :      0.60s CPU      0.02s WALL (      74 calls)

     General routines
     calbec       :      5.10s CPU      0.18s WALL (      93 calls)
     fft          :    146.80s CPU      5.95s WALL (     183 calls)
     ffts         :     60.24s CPU      2.18s WALL (      29 calls)
     fftw         :    568.17s CPU     18.72s WALL (    2274 calls)
     interpolate  :     62.60s CPU      2.26s WALL (      15 calls)
 
     Parallel routines

     PAW routines
     PAW_pot      :    320.07s CPU     10.76s WALL (      15 calls)
 
     PWSCF        :  21m35.90s CPU     45.46s WALL

 
   This run was terminated on:  11:56:23  21May2023            

=------------------------------------------------------------------------------=
   JOB DONE.
=------------------------------------------------------------------------------=
