
     Program PWSCF v.7.0 starts on 20May2023 at  4:25:30 

     This program is part of the open-source Quantum ESPRESSO suite
     for quantum simulation of materials; please cite
         "P. Giannozzi et al., J. Phys.:Condens. Matter 21 395502 (2009);
         "P. Giannozzi et al., J. Phys.:Condens. Matter 29 465901 (2017);
         "P. Giannozzi et al., J. Chem. Phys. 152 154105 (2020);
          URL http://www.quantum-espresso.org", 
     in publications or presentations arising from this work. More details at
     http://www.quantum-espresso.org/quote

     Parallel version (MPI & OpenMP), running on      32 processor cores
     Number of MPI processes:                 1
     Threads/MPI process:                    32

     MPI processes distributed on     1 nodes
     161543 MiB available memory on the printing compute node when the environment starts
 
     Reading input from espresso_212.pwi
Warning: card &CELL ignored
Warning: card / ignored

     Current dimensions of program PWSCF are:
     Max number of different atomic species (ntypx) = 10
     Max number of k-points (npk) =  40000
     Max angular momentum in pseudopotentials (lmaxx) =  4
     file Mg.pbe-n-kjpaw_psl.0.3.0.UPF: wavefunction(s)  3S renormalized
     file O.pbe-n-kjpaw_psl.0.1.UPF: wavefunction(s)  2P renormalized

     gamma-point specific algorithms are used
     Message from routine setup:
     using ibrav=0 with symmetry is DISCOURAGED, use correct ibrav instead

     Subspace diagonalization in iterative solution of the eigenvalue problem:
     a serial algorithm will be used

 
     G-vector sticks info
     --------------------
     sticks:   dense  smooth     PW     G-vecs:    dense   smooth      PW
     Sum        2193    1093    277               108045    38193    4787
 
     Using Slab Decomposition
 


     bravais-lattice index     =            0
     lattice parameter (alat)  =      10.8046  a.u.
     unit-cell volume          =    1720.2311 (a.u.)^3
     number of atoms/cell      =           20
     number of atomic types    =            4
     number of electrons       =       150.00
     number of Kohn-Sham states=           90
     kinetic-energy cutoff     =      30.0000  Ry
     charge density cutoff     =     240.0000  Ry
     scf convergence threshold =      1.0E-06
     mixing beta               =       0.7000
     number of iterations used =            8  plain     mixing
     Exchange-correlation= SLA  PW   PBX  PBC
                           (   1   4   3   4   0   0   0)

     celldm(1)=  10.804581  celldm(2)=   0.000000  celldm(3)=   0.000000
     celldm(4)=   0.000000  celldm(5)=   0.000000  celldm(6)=   0.000000

     crystal axes: (cart. coord. in units of alat)
               a(1) = (   1.000000   0.000000   0.000000 )  
               a(2) = (   0.000000   0.979165   0.000000 )  
               a(3) = (   0.000000   0.977367   1.392859 )  

     reciprocal axes: (cart. coord. in units 2 pi/alat)
               b(1) = (  1.000000  0.000000  0.000000 )  
               b(2) = (  0.000000  1.021279 -0.716629 )  
               b(3) = (  0.000000  0.000000  0.717948 )  


     PseudoPot. # 1 for La read from file:
     /home/pragov/projects/rrg-bengioy-ad/pragov/crystal_structure_design/SSSP/La.GGA-PBE-paw-v1.0.UPF
     MD5 check sum: 436541e95c1ad8901025bd0b0ed42ae2
     Pseudo is Projector augmented-wave + core cor, Zval = 11.0
     Generated using ATOMPAW code
     Shape of augmentation charge: BESSEL
     Using radial grid of 1101 points,  8 beta functions with: 
                l(1) =   0
                l(2) =   0
                l(3) =   1
                l(4) =   1
                l(5) =   2
                l(6) =   2
                l(7) =   3
                l(8) =   3
     Q(r) pseudized with 0 coefficients 


     PseudoPot. # 2 for Mg read from file:
     /home/pragov/projects/rrg-bengioy-ad/pragov/crystal_structure_design/SSSP/Mg.pbe-n-kjpaw_psl.0.3.0.UPF
     MD5 check sum: 24ecedc7f3e3cbe212e682f4413594e4
     Pseudo is Projector augmented-wave + core cor, Zval =  2.0
     Generated using "atomic" code by A. Dal Corso  v.5.0.99 svn rev. 10869
     Shape of augmentation charge: PSQ
     Using radial grid of 1129 points,  4 beta functions with: 
                l(1) =   0
                l(2) =   0
                l(3) =   1
                l(4) =   1
     Q(r) pseudized with 0 coefficients 


     PseudoPot. # 3 for Ir read from file:
     /home/pragov/projects/rrg-bengioy-ad/pragov/crystal_structure_design/SSSP/Ir_pbe_v1.2.uspp.F.UPF
     MD5 check sum: 8836f839c3459d2b385c504ce6d91f2c
     Pseudo is Ultrasoft + core correction, Zval = 15.0
     Generated by new atomic code, or converted to UPF format
     Using radial grid of  983 points,  7 beta functions with: 
                l(1) =   0
                l(2) =   0
                l(3) =   1
                l(4) =   1
                l(5) =   1
                l(6) =   2
                l(7) =   2
     Q(r) pseudized with  8 coefficients,  rinner =    1.400   1.400   1.400
                                                       1.400   1.400

     PseudoPot. # 4 for O  read from file:
     /home/pragov/projects/rrg-bengioy-ad/pragov/crystal_structure_design/SSSP/O.pbe-n-kjpaw_psl.0.1.UPF
     MD5 check sum: 0234752ac141de4415c5fc33072bef88
     Pseudo is Projector augmented-wave + core cor, Zval =  6.0
     Generated using "atomic" code by A. Dal Corso  v.5.0.99 svn rev. 10869
     Shape of augmentation charge: BESSEL
     Using radial grid of 1095 points,  4 beta functions with: 
                l(1) =   0
                l(2) =   0
                l(3) =   1
                l(4) =   1
     Q(r) pseudized with 0 coefficients 


     atomic species   valence    mass     pseudopotential
        La            11.00   138.90547     La( 1.00)
        Mg             2.00    24.30500     Mg( 1.00)
        Ir            15.00   192.21700     Ir( 1.00)
        O              6.00    15.99900     O ( 1.00)

      4 Sym. Ops., with inversion, found ( 2 have fractional translation)


                                    s                        frac. trans.

      isym =  1     identity                                     

 cryst.   s( 1) = (     1          0          0      )
                  (     0          1          0      )
                  (     0          0          1      )

 cart.    s( 1) = (  1.0000000  0.0000000  0.0000000 )
                  (  0.0000000  1.0000000  0.0000000 )
                  (  0.0000000  0.0000000  1.0000000 )


      isym =  2     180 deg rotation - cart. axis [1,0,0]        

 cryst.   s( 2) = (     1          0          0      )    f =(  0.5000000 )
                  (     0         -1          0      )       ( -0.0000000 )
                  (     0          0         -1      )       ( -0.5000000 )

 cart.    s( 2) = (  1.0000000  0.0000000  0.0000000 )    f =(  0.5000000 )
                  (  0.0000000 -1.0000000 -0.0000000 )       ( -0.4886835 )
                  (  0.0000000  0.0000000 -1.0000000 )       ( -0.6964297 )


      isym =  3     inversion                                    

 cryst.   s( 3) = (    -1          0          0      )
                  (     0         -1          0      )
                  (     0          0         -1      )

 cart.    s( 3) = ( -1.0000000  0.0000000  0.0000000 )
                  (  0.0000000 -1.0000000 -0.0000000 )
                  (  0.0000000  0.0000000 -1.0000000 )


      isym =  4     inv. 180 deg rotation - cart. axis [1,0,0]   

 cryst.   s( 4) = (    -1          0          0      )    f =(  0.5000000 )
                  (     0          1          0      )       ( -0.0000000 )
                  (     0          0          1      )       ( -0.5000000 )

 cart.    s( 4) = ( -1.0000000  0.0000000  0.0000000 )    f =(  0.5000000 )
                  (  0.0000000  1.0000000  0.0000000 )       ( -0.4886835 )
                  (  0.0000000  0.0000000  1.0000000 )       ( -0.6964297 )


   Cartesian axes

     site n.     atom                  positions (alat units)
         1           La  tau(   1) = (   0.5485620   1.4566706   1.0457338  )
         2           La  tau(   2) = (   0.0485620   0.9885446   1.0435554  )
         3           La  tau(   3) = (   0.9514380   0.9679871   0.3493041  )
         4           La  tau(   4) = (   0.4514380   0.4998611   0.3471257  )
         5           Mg  tau(   5) = (   0.5000000   0.9782658   0.6964297  )
         6           Mg  tau(   6) = (   0.0000000   0.4895823   0.0000000  )
         7           Ir  tau(   7) = (   0.5000000   0.0000000   0.0000000  )
         8           Ir  tau(   8) = (   0.0000000   0.4886835   0.6964297  )
         9           O   tau(   9) = (   0.5229220   1.0641057   0.3455740  )
        10           O   tau(  10) = (   0.0229220   0.4037424   0.3508557  )
        11           O   tau(  11) = (   0.4770780   0.8924259   1.0472855  )
        12           O   tau(  12) = (   0.9770780   1.5527892   1.0420037  )
        13           O   tau(  13) = (   0.7942630   1.1820698   0.7619206  )
        14           O   tau(  14) = (   0.2942630   1.2631453   1.3273686  )
        15           O   tau(  15) = (   0.2057370   0.7744618   0.6309389  )
        16           O   tau(  16) = (   0.7057370   0.6933863   0.0654909  )
        17           O   tau(  17) = (   0.2109950   0.7811799   0.0657179  )
        18           O   tau(  18) = (   0.7109950   0.6866683   0.6307118  )
        19           O   tau(  19) = (   0.7890050   1.1753518   1.3271416  )
        20           O   tau(  20) = (   0.2890050   1.2698634   0.7621476  )

   Crystallographic axes

     site n.     atom                  positions (cryst. coord.)
         1           La  tau(   1) = (  0.5485620  0.7382630  0.7507820  )
         2           La  tau(   2) = (  0.0485620  0.2617370  0.7492180  )
         3           La  tau(   3) = (  0.9514380  0.7382630  0.2507820  )
         4           La  tau(   4) = (  0.4514380  0.2617370  0.2492180  )
         5           Mg  tau(   5) = (  0.5000000  0.5000000  0.5000000  )
         6           Mg  tau(   6) = (  0.0000000  0.5000000  0.0000000  )
         7           Ir  tau(   7) = (  0.5000000  0.0000000  0.0000000  )
         8           Ir  tau(   8) = (  0.0000000  0.0000000  0.5000000  )
         9           O   tau(   9) = (  0.5229220  0.8391000  0.2481040  )
        10           O   tau(  10) = (  0.0229220  0.1609000  0.2518960  )
        11           O   tau(  11) = (  0.4770780  0.1609000  0.7518960  )
        12           O   tau(  12) = (  0.9770780  0.8391000  0.7481040  )
        13           O   tau(  13) = (  0.7942630  0.6612080  0.5470190  )
        14           O   tau(  14) = (  0.2942630  0.3387920  0.9529810  )
        15           O   tau(  15) = (  0.2057370  0.3387920  0.4529810  )
        16           O   tau(  16) = (  0.7057370  0.6612080  0.0470190  )
        17           O   tau(  17) = (  0.2109950  0.7507070  0.0471820  )
        18           O   tau(  18) = (  0.7109950  0.2492930  0.4528180  )
        19           O   tau(  19) = (  0.7890050  0.2492930  0.9528180  )
        20           O   tau(  20) = (  0.2890050  0.7507070  0.5471820  )

     number of k points=     1  Methfessel-Paxton smearing, width (Ry)=  0.0010
                       cart. coord. in units 2pi/alat
        k(    1) = (   0.0000000   0.0000000   0.0000000), wk =   2.0000000

                       cryst. coord.
        k(    1) = (   0.0000000   0.0000000   0.0000000), wk =   2.0000000

     Dense  grid:    54023 G-vectors     FFT dimensions: (  54,  54,  96)

     Smooth grid:    19097 G-vectors     FFT dimensions: (  40,  40,  72)

     Dynamical RAM for                 wfc:       3.28 MB

     Dynamical RAM for     wfc (w. buffer):       3.28 MB

     Dynamical RAM for           str. fact:       3.30 MB

     Dynamical RAM for           local pot:       0.00 MB

     Dynamical RAM for          nlocal pot:      10.27 MB

     Dynamical RAM for                qrad:      11.94 MB

     Dynamical RAM for          rho,v,vnew:       8.88 MB

     Dynamical RAM for               rhoin:       2.96 MB

     Dynamical RAM for            rho*nmix:      13.19 MB

     Dynamical RAM for           G-vectors:       3.24 MB

     Dynamical RAM for          h,s,v(r/c):       0.74 MB

     Dynamical RAM for          <psi|beta>:       0.19 MB

     Dynamical RAM for                 psi:       6.56 MB

     Dynamical RAM for                hpsi:       6.56 MB

     Dynamical RAM for                spsi:       6.56 MB

     Dynamical RAM for      wfcinit/wfcrot:      16.14 MB

     Dynamical RAM for           addusdens:     467.39 MB

     Dynamical RAM for          addusforce:     486.08 MB

     Dynamical RAM for         addusstress:     479.76 MB

     Estimated static dynamical RAM per process >      58.67 MB

     Estimated max dynamical RAM per process >     557.94 MB

     Check: negative core charge=   -0.000008

     Initial potential from superposition of free atoms

     starting charge     148.9640, renormalised to     150.0000

     negative rho (up, down):  7.361E-01 0.000E+00
     Starting wfcs are  208 randomized atomic wfcs
     Checking if some PAW data can be deallocated... 

     total cpu time spent up to now is       10.4 secs

     Self-consistent Calculation

     iteration #  1     ecut=    30.00 Ry     beta= 0.70
     Davidson diagonalization with overlap

---- Real-time Memory Report at c_bands before calling an iterative solver
           769 MiB given to the printing process from OS
             0 MiB allocation reported by mallinfo(arena+hblkhd)
        161204 MiB available memory on the node where the printing process lives
------------------
     ethr =  1.00E-02,  avg # of iterations =  2.0

     negative rho (up, down):  5.659E-01 0.000E+00

     total cpu time spent up to now is       13.0 secs

     total energy              =   -2758.69713944 Ry
     estimated scf accuracy    <       9.79228939 Ry

     iteration #  2     ecut=    30.00 Ry     beta= 0.70
     Davidson diagonalization with overlap

---- Real-time Memory Report at c_bands before calling an iterative solver
           995 MiB given to the printing process from OS
             0 MiB allocation reported by mallinfo(arena+hblkhd)
        161153 MiB available memory on the node where the printing process lives
------------------
     ethr =  6.53E-03,  avg # of iterations = 12.0

     negative rho (up, down):  4.616E-01 0.000E+00

     total cpu time spent up to now is       16.3 secs

     total energy              =   -2756.70328359 Ry
     estimated scf accuracy    <      49.67445925 Ry

     iteration #  3     ecut=    30.00 Ry     beta= 0.70
     Davidson diagonalization with overlap

---- Real-time Memory Report at c_bands before calling an iterative solver
           998 MiB given to the printing process from OS
             0 MiB allocation reported by mallinfo(arena+hblkhd)
        161149 MiB available memory on the node where the printing process lives
------------------
     ethr =  6.53E-03,  avg # of iterations =  4.0

     negative rho (up, down):  5.012E-01 0.000E+00

     total cpu time spent up to now is       19.1 secs

     total energy              =   -2764.06480901 Ry
     estimated scf accuracy    <       1.80478181 Ry

     iteration #  4     ecut=    30.00 Ry     beta= 0.70
     Davidson diagonalization with overlap

---- Real-time Memory Report at c_bands before calling an iterative solver
           998 MiB given to the printing process from OS
             0 MiB allocation reported by mallinfo(arena+hblkhd)
        161184 MiB available memory on the node where the printing process lives
------------------
     ethr =  1.20E-03,  avg # of iterations =  5.0

     negative rho (up, down):  5.326E-01 0.000E+00

     total cpu time spent up to now is       21.9 secs

     total energy              =   -2764.42810059 Ry
     estimated scf accuracy    <       2.45292652 Ry

     iteration #  5     ecut=    30.00 Ry     beta= 0.70
     Davidson diagonalization with overlap

---- Real-time Memory Report at c_bands before calling an iterative solver
           998 MiB given to the printing process from OS
             0 MiB allocation reported by mallinfo(arena+hblkhd)
        161184 MiB available memory on the node where the printing process lives
------------------
     ethr =  1.20E-03,  avg # of iterations =  2.0

     negative rho (up, down):  5.663E-01 0.000E+00

     total cpu time spent up to now is       24.5 secs

     total energy              =   -2764.64342081 Ry
     estimated scf accuracy    <       0.27833700 Ry

     iteration #  6     ecut=    30.00 Ry     beta= 0.70
     Davidson diagonalization with overlap

---- Real-time Memory Report at c_bands before calling an iterative solver
           998 MiB given to the printing process from OS
             0 MiB allocation reported by mallinfo(arena+hblkhd)
        161187 MiB available memory on the node where the printing process lives
------------------
     ethr =  1.86E-04,  avg # of iterations =  4.0

     negative rho (up, down):  5.844E-01 0.000E+00

     total cpu time spent up to now is       27.2 secs

     total energy              =   -2764.67805696 Ry
     estimated scf accuracy    <       0.15927548 Ry

     iteration #  7     ecut=    30.00 Ry     beta= 0.70
     Davidson diagonalization with overlap

---- Real-time Memory Report at c_bands before calling an iterative solver
           998 MiB given to the printing process from OS
             0 MiB allocation reported by mallinfo(arena+hblkhd)
        161185 MiB available memory on the node where the printing process lives
------------------
     ethr =  1.06E-04,  avg # of iterations =  2.0

     negative rho (up, down):  6.148E-01 0.000E+00

     total cpu time spent up to now is       29.9 secs

     total energy              =   -2764.68440413 Ry
     estimated scf accuracy    <       0.19649989 Ry

     iteration #  8     ecut=    30.00 Ry     beta= 0.70
     Davidson diagonalization with overlap

---- Real-time Memory Report at c_bands before calling an iterative solver
           998 MiB given to the printing process from OS
             0 MiB allocation reported by mallinfo(arena+hblkhd)
        161186 MiB available memory on the node where the printing process lives
------------------
     ethr =  1.06E-04,  avg # of iterations =  2.0

     negative rho (up, down):  6.232E-01 0.000E+00

     total cpu time spent up to now is       33.2 secs

     total energy              =   -2764.69095169 Ry
     estimated scf accuracy    <       0.06795174 Ry

     iteration #  9     ecut=    30.00 Ry     beta= 0.70
     Davidson diagonalization with overlap

---- Real-time Memory Report at c_bands before calling an iterative solver
           998 MiB given to the printing process from OS
             0 MiB allocation reported by mallinfo(arena+hblkhd)
        161180 MiB available memory on the node where the printing process lives
------------------
     ethr =  4.53E-05,  avg # of iterations = 16.0

     negative rho (up, down):  6.296E-01 0.000E+00

     total cpu time spent up to now is       36.2 secs

     total energy              =   -2764.69615829 Ry
     estimated scf accuracy    <       0.02850260 Ry

     iteration # 10     ecut=    30.00 Ry     beta= 0.70
     Davidson diagonalization with overlap

---- Real-time Memory Report at c_bands before calling an iterative solver
           999 MiB given to the printing process from OS
             0 MiB allocation reported by mallinfo(arena+hblkhd)
        161183 MiB available memory on the node where the printing process lives
------------------
     ethr =  1.90E-05,  avg # of iterations =  2.0

     negative rho (up, down):  6.338E-01 0.000E+00

     total cpu time spent up to now is       38.9 secs

     total energy              =   -2764.69650569 Ry
     estimated scf accuracy    <       0.00623561 Ry

     iteration # 11     ecut=    30.00 Ry     beta= 0.70
     Davidson diagonalization with overlap

---- Real-time Memory Report at c_bands before calling an iterative solver
          1001 MiB given to the printing process from OS
             0 MiB allocation reported by mallinfo(arena+hblkhd)
        161187 MiB available memory on the node where the printing process lives
------------------
     ethr =  4.16E-06,  avg # of iterations = 10.0

     negative rho (up, down):  6.364E-01 0.000E+00

     total cpu time spent up to now is       42.0 secs

     total energy              =   -2764.69712028 Ry
     estimated scf accuracy    <       0.00227134 Ry

     iteration # 12     ecut=    30.00 Ry     beta= 0.70
     Davidson diagonalization with overlap

---- Real-time Memory Report at c_bands before calling an iterative solver
          1001 MiB given to the printing process from OS
             0 MiB allocation reported by mallinfo(arena+hblkhd)
        161164 MiB available memory on the node where the printing process lives
------------------
     c_bands:  1 eigenvalues not converged
     ethr =  1.51E-06,  avg # of iterations = 20.0

     negative rho (up, down):  6.368E-01 0.000E+00

     total cpu time spent up to now is       45.0 secs

     total energy              =   -2764.69739167 Ry
     estimated scf accuracy    <       0.00034249 Ry

     iteration # 13     ecut=    30.00 Ry     beta= 0.70
     Davidson diagonalization with overlap

---- Real-time Memory Report at c_bands before calling an iterative solver
          1001 MiB given to the printing process from OS
             0 MiB allocation reported by mallinfo(arena+hblkhd)
        161168 MiB available memory on the node where the printing process lives
------------------
     ethr =  2.28E-07,  avg # of iterations =  5.0

     negative rho (up, down):  6.372E-01 0.000E+00

     total cpu time spent up to now is       48.0 secs

     total energy              =   -2764.69754439 Ry
     estimated scf accuracy    <       0.00040228 Ry

     iteration # 14     ecut=    30.00 Ry     beta= 0.70
     Davidson diagonalization with overlap

---- Real-time Memory Report at c_bands before calling an iterative solver
          1001 MiB given to the printing process from OS
             0 MiB allocation reported by mallinfo(arena+hblkhd)
        161170 MiB available memory on the node where the printing process lives
------------------
     ethr =  2.28E-07,  avg # of iterations =  2.0

     negative rho (up, down):  6.372E-01 0.000E+00

     total cpu time spent up to now is       50.6 secs

     total energy              =   -2764.69756406 Ry
     estimated scf accuracy    <       0.00003290 Ry

     iteration # 15     ecut=    30.00 Ry     beta= 0.70
     Davidson diagonalization with overlap

---- Real-time Memory Report at c_bands before calling an iterative solver
          1001 MiB given to the printing process from OS
             0 MiB allocation reported by mallinfo(arena+hblkhd)
        161173 MiB available memory on the node where the printing process lives
------------------
     ethr =  2.19E-08,  avg # of iterations =  9.0

     negative rho (up, down):  6.372E-01 0.000E+00

     total cpu time spent up to now is       53.6 secs

     total energy              =   -2764.69758321 Ry
     estimated scf accuracy    <       0.00000630 Ry

     iteration # 16     ecut=    30.00 Ry     beta= 0.70
     Davidson diagonalization with overlap

---- Real-time Memory Report at c_bands before calling an iterative solver
          1001 MiB given to the printing process from OS
             0 MiB allocation reported by mallinfo(arena+hblkhd)
        161179 MiB available memory on the node where the printing process lives
------------------
     ethr =  4.20E-09,  avg # of iterations =  3.0

     negative rho (up, down):  6.372E-01 0.000E+00

     total cpu time spent up to now is       56.3 secs

     total energy              =   -2764.69758346 Ry
     estimated scf accuracy    <       0.00002682 Ry

     iteration # 17     ecut=    30.00 Ry     beta= 0.70
     Davidson diagonalization with overlap

---- Real-time Memory Report at c_bands before calling an iterative solver
          1001 MiB given to the printing process from OS
             0 MiB allocation reported by mallinfo(arena+hblkhd)
        161180 MiB available memory on the node where the printing process lives
------------------
     ethr =  4.20E-09,  avg # of iterations =  2.0

     negative rho (up, down):  6.372E-01 0.000E+00

     total cpu time spent up to now is       58.9 secs

     total energy              =   -2764.69758476 Ry
     estimated scf accuracy    <       0.00000257 Ry

     iteration # 18     ecut=    30.00 Ry     beta= 0.70
     Davidson diagonalization with overlap

---- Real-time Memory Report at c_bands before calling an iterative solver
          1001 MiB given to the printing process from OS
             0 MiB allocation reported by mallinfo(arena+hblkhd)
        161168 MiB available memory on the node where the printing process lives
------------------
     ethr =  1.72E-09,  avg # of iterations =  2.0

     negative rho (up, down):  6.372E-01 0.000E+00

     total cpu time spent up to now is       61.6 secs

     End of self-consistent calculation

          k = 0.0000 0.0000 0.0000 (  2394 PWs)   bands (ev):

   -37.7781 -37.7779 -37.6712 -37.6710 -37.2482 -37.2480 -19.4494 -19.3975
   -19.3388 -19.3016  -7.2395  -6.7056  -6.6814  -6.6282  -6.6086  -6.4613
    -6.0977  -6.0611  -6.0458  -5.9939  -5.8415  -5.7848  -3.2442  -3.2220
    -3.2089  -3.1902  -2.9824  -2.9441  -2.8208  -2.6675  -2.6513  -2.3393
    -2.1647  -2.0930   5.2147   5.2201   6.1362   6.3265   6.4113   6.4651
     6.6195   7.0175   7.0230   7.1970   7.2628   7.3248   7.3892   7.4149
     7.4245   7.7305   7.7745   8.2209   8.2514   8.3834   9.0038   9.0153
     9.0228   9.1206   9.2441   9.3315   9.4566   9.4670   9.4928   9.5610
     9.6668   9.7760   9.9627  10.1049  10.1454  10.1630  11.2995  11.6269
    11.6888  11.8247  11.8787  11.9738  14.5036  15.0777  15.1267  15.2336
    15.4218  15.4662  15.4841  15.5085  15.5426  15.5465  15.5853  15.6127
    15.6326  15.6435

     occupation numbers 
     1.0000   1.0000   1.0000   1.0000   1.0000   1.0000   1.0000   1.0000
     1.0000   1.0000   1.0000   1.0000   1.0000   1.0000   1.0000   1.0000
     1.0000   1.0000   1.0000   1.0000   1.0000   1.0000   1.0000   1.0000
     1.0000   1.0000   1.0000   1.0000   1.0000   1.0000   1.0000   1.0000
     1.0000   1.0000   1.0000   1.0000   1.0000   1.0000   1.0000   1.0000
     1.0000   1.0000   1.0000   1.0000   1.0000   1.0000   1.0000   1.0000
     1.0000   1.0000   1.0000   1.0000   1.0000   1.0000   1.0000   1.0000
     1.0000   1.0000   1.0000   1.0000   1.0000   1.0000   1.0000   1.0000
     1.0000   1.0000   1.0000   1.0000   1.0000   1.0000   1.0000   1.0000
     1.0000   1.0000   1.0000  -0.0000  -0.0000  -0.0000  -0.0000  -0.0000
    -0.0000  -0.0000  -0.0000  -0.0000  -0.0000  -0.0000  -0.0000  -0.0000
    -0.0000  -0.0000

     the Fermi energy is    11.9262 ev

!    total energy              =   -2764.69758466 Ry
     estimated scf accuracy    <       0.00000070 Ry
     smearing contrib. (-TS)   =       0.00000007 Ry
     internal energy E=F+TS    =   -2764.69758472 Ry

     The total energy is F=E-TS. E is the sum of the following terms:
     one-electron contribution =    -201.71341305 Ry
     hartree contribution      =     210.06323988 Ry
     xc contribution           =    -229.21971562 Ry
     ewald contribution        =    -774.57205595 Ry
     one-center paw contrib.   =   -1769.25563997 Ry
      -> PAW hartree energy AE =     496.54597891 Ry
      -> PAW hartree energy PS =    -495.47025950 Ry
      -> PAW xc energy AE      =   -1892.80304482 Ry
      -> PAW xc energy PS      =     122.47168545 Ry
      -> total E_H with PAW    =     211.13895928 Ry
      -> total E_XC with PAW   =   -1999.55107500 Ry

     convergence has been achieved in  18 iterations

     negative rho (up, down):  6.372E-01 0.000E+00

     Forces acting on atoms (cartesian axes, Ry/au):

     atom    1 type  1   force =     0.01608049   -0.01202299   -0.00252625
     atom    2 type  1   force =     0.01608049    0.01202299    0.00252625
     atom    3 type  1   force =    -0.01608049   -0.01202299   -0.00252625
     atom    4 type  1   force =    -0.01608049    0.01202299    0.00252625
     atom    5 type  2   force =     0.00000000    0.00000000    0.00000000
     atom    6 type  2   force =     0.00000000   -0.00000000    0.00000000
     atom    7 type  3   force =     0.00000000    0.00000000    0.00000000
     atom    8 type  3   force =     0.00000000    0.00000000   -0.00000000
     atom    9 type  4   force =     0.01273866    0.01697890   -0.01951949
     atom   10 type  4   force =     0.01273866   -0.01697890    0.01951949
     atom   11 type  4   force =    -0.01273866   -0.01697890    0.01951949
     atom   12 type  4   force =    -0.01273866    0.01697890   -0.01951949
     atom   13 type  4   force =    -0.00719682    0.00058081    0.01717135
     atom   14 type  4   force =    -0.00719682   -0.00058081   -0.01717135
     atom   15 type  4   force =     0.00719682   -0.00058081   -0.01717135
     atom   16 type  4   force =     0.00719682    0.00058081    0.01717135
     atom   17 type  4   force =     0.00266518    0.01179421    0.01572770
     atom   18 type  4   force =     0.00266518   -0.01179421   -0.01572770
     atom   19 type  4   force =    -0.00266518   -0.01179421   -0.01572770
     atom   20 type  4   force =    -0.00266518    0.01179421    0.01572770
     The non-local contrib.  to forces
     atom    1 type  1   force =    -0.01906170    0.00995491    0.00227280
     atom    2 type  1   force =    -0.01906170   -0.00995491   -0.00227280
     atom    3 type  1   force =     0.01906170    0.00995491    0.00227280
     atom    4 type  1   force =     0.01906170   -0.00995491   -0.00227280
     atom    5 type  2   force =     0.00000000    0.00000000   -0.00000000
     atom    6 type  2   force =     0.00000000    0.00000000   -0.00000000
     atom    7 type  3   force =     0.00000000    0.00000000    0.00000000
     atom    8 type  3   force =     0.00000000    0.00000000    0.00000000
     atom    9 type  4   force =    -0.03753620   -0.19804283   -0.55665122
     atom   10 type  4   force =    -0.03753620    0.19804283    0.55665122
     atom   11 type  4   force =     0.03753620    0.19804283    0.55665122
     atom   12 type  4   force =     0.03753620   -0.19804283   -0.55665122
     atom   13 type  4   force =     0.30022443    0.45962705   -0.06844658
     atom   14 type  4   force =     0.30022443   -0.45962705    0.06844658
     atom   15 type  4   force =    -0.30022443   -0.45962705    0.06844658
     atom   16 type  4   force =    -0.30022443    0.45962705   -0.06844658
     atom   17 type  4   force =     0.44007511    0.27589932   -0.10577278
     atom   18 type  4   force =     0.44007511   -0.27589932    0.10577278
     atom   19 type  4   force =    -0.44007511   -0.27589932    0.10577278
     atom   20 type  4   force =    -0.44007511    0.27589932   -0.10577278
     The ionic contribution  to forces
     atom    1 type  1   force =    -1.37221772    0.80193144   -0.12134416
     atom    2 type  1   force =    -1.37221772   -0.80193144    0.12134416
     atom    3 type  1   force =     1.37221772    0.80193144   -0.12134416
     atom    4 type  1   force =     1.37221772   -0.80193144    0.12134416
     atom    5 type  2   force =    -0.00000000    0.00000000    0.00000000
     atom    6 type  2   force =    -0.00000000    0.00000000   -0.00000000
     atom    7 type  3   force =    -0.00000000    0.00000000   -0.00000000
     atom    8 type  3   force =    -0.00000000   -0.00000000    0.00000000
     atom    9 type  4   force =    -0.78926326    1.05136216    7.94473000
     atom   10 type  4   force =    -0.78926326   -1.05136216   -7.94473000
     atom   11 type  4   force =     0.78926326   -1.05136216   -7.94473000
     atom   12 type  4   force =     0.78926326    1.05136216    7.94473000
     atom   13 type  4   force =    -5.41246711   -6.12267266    0.09819360
     atom   14 type  4   force =    -5.41246711    6.12267266   -0.09819360
     atom   15 type  4   force =     5.41246711    6.12267266   -0.09819360
     atom   16 type  4   force =     5.41246711   -6.12267266    0.09819360
     atom   17 type  4   force =    -6.03789432   -4.75248823    0.14371523
     atom   18 type  4   force =    -6.03789432    4.75248823   -0.14371523
     atom   19 type  4   force =     6.03789432    4.75248823   -0.14371523
     atom   20 type  4   force =     6.03789432   -4.75248823    0.14371523
     The local contribution  to forces
     atom    1 type  1   force =     1.40710450   -0.82371829    0.11692055
     atom    2 type  1   force =     1.40769514    0.82377450   -0.11620189
     atom    3 type  1   force =    -1.40756595   -0.82390531    0.11623617
     atom    4 type  1   force =    -1.40719096    0.82376944   -0.11693918
     atom    5 type  2   force =    -0.00000707   -0.00000207    0.00006105
     atom    6 type  2   force =     0.00002559    0.00000207   -0.00006516
     atom    7 type  3   force =    -0.00019593    0.00008447   -0.00055264
     atom    8 type  3   force =     0.00002234    0.00002110    0.00048123
     atom    9 type  4   force =     0.83849306   -0.83914522   -7.41447686
     atom   10 type  4   force =     0.83871701    0.83897491    7.41400159
     atom   11 type  4   force =    -0.83850567    0.83924487    7.41457296
     atom   12 type  4   force =    -0.83861369   -0.83914692   -7.41404521
     atom   13 type  4   force =     5.10838480    5.66921052   -0.01366766
     atom   14 type  4   force =     5.10864856   -5.66948445    0.01369485
     atom   15 type  4   force =    -5.10836489   -5.66911790    0.01394729
     atom   16 type  4   force =    -5.10859142    5.66940356   -0.01393292
     atom   17 type  4   force =     5.60612030    4.49162005   -0.02424650
     atom   18 type  4   force =     5.60581680   -4.49153773    0.02393100
     atom   19 type  4   force =    -5.60613155   -4.49164444    0.02389851
     atom   20 type  4   force =    -5.60579628    4.49150149   -0.02360640
     The core correction contribution to forces
     atom    1 type  1   force =    -0.00002525   -0.00001227   -0.00000722
     atom    2 type  1   force =    -0.00002517    0.00001226    0.00000723
     atom    3 type  1   force =     0.00002516   -0.00001231   -0.00000722
     atom    4 type  1   force =     0.00002525    0.00001230    0.00000722
     atom    5 type  2   force =     0.00000072   -0.00000089   -0.00000025
     atom    6 type  2   force =    -0.00000033    0.00000034    0.00000079
     atom    7 type  3   force =    -0.00000212   -0.00000199   -0.00000466
     atom    8 type  3   force =     0.00000188    0.00000058    0.00000435
     atom    9 type  4   force =     0.00098221    0.00289397    0.00658419
     atom   10 type  4   force =     0.00098412   -0.00289536   -0.00658357
     atom   11 type  4   force =    -0.00098124   -0.00289265   -0.00658256
     atom   12 type  4   force =    -0.00098345    0.00289270    0.00658240
     atom   13 type  4   force =    -0.00332709   -0.00562705    0.00125240
     atom   14 type  4   force =    -0.00332768    0.00562684   -0.00125240
     atom   15 type  4   force =     0.00332736    0.00562839   -0.00125258
     atom   16 type  4   force =     0.00332825   -0.00562846    0.00125347
     atom   17 type  4   force =    -0.00542786   -0.00313230    0.00172649
     atom   18 type  4   force =    -0.00542742    0.00313063   -0.00172777
     atom   19 type  4   force =     0.00542781    0.00313204   -0.00172642
     atom   20 type  4   force =     0.00542824   -0.00313143    0.00172787
     The Hubbard contrib.    to forces
     atom    1 type  1   force =     0.00000000    0.00000000    0.00000000
     atom    2 type  1   force =     0.00000000    0.00000000    0.00000000
     atom    3 type  1   force =     0.00000000    0.00000000    0.00000000
     atom    4 type  1   force =     0.00000000    0.00000000    0.00000000
     atom    5 type  2   force =     0.00000000    0.00000000    0.00000000
     atom    6 type  2   force =     0.00000000    0.00000000    0.00000000
     atom    7 type  3   force =     0.00000000    0.00000000    0.00000000
     atom    8 type  3   force =     0.00000000    0.00000000    0.00000000
     atom    9 type  4   force =     0.00000000    0.00000000    0.00000000
     atom   10 type  4   force =     0.00000000    0.00000000    0.00000000
     atom   11 type  4   force =     0.00000000    0.00000000    0.00000000
     atom   12 type  4   force =     0.00000000    0.00000000    0.00000000
     atom   13 type  4   force =     0.00000000    0.00000000    0.00000000
     atom   14 type  4   force =     0.00000000    0.00000000    0.00000000
     atom   15 type  4   force =     0.00000000    0.00000000    0.00000000
     atom   16 type  4   force =     0.00000000    0.00000000    0.00000000
     atom   17 type  4   force =     0.00000000    0.00000000    0.00000000
     atom   18 type  4   force =     0.00000000    0.00000000    0.00000000
     atom   19 type  4   force =     0.00000000    0.00000000    0.00000000
     atom   20 type  4   force =     0.00000000    0.00000000    0.00000000
     The SCF correction term to forces
     atom    1 type  1   force =     0.00027950   -0.00014545   -0.00038662
     atom    2 type  1   force =    -0.00032252    0.00011155   -0.00036706
     atom    3 type  1   force =     0.00013159   -0.00002931    0.00034149
     atom    4 type  1   force =    -0.00015854    0.00013437    0.00041040
     atom    5 type  2   force =     0.00001362   -0.00000610   -0.00006059
     atom    6 type  2   force =    -0.00002418    0.00000294    0.00006638
     atom    7 type  3   force =     0.00023513   -0.00008651    0.00067565
     atom    8 type  3   force =    -0.00007553   -0.00000639   -0.00061556
     atom    9 type  4   force =     0.00002583   -0.00007162    0.00034948
     atom   10 type  4   force =    -0.00007741    0.00018297    0.00018307
     atom   11 type  4   force =     0.00006105    0.00001864   -0.00040430
     atom   12 type  4   force =    -0.00000468   -0.00015124   -0.00019989
     atom   13 type  4   force =     0.00003586    0.00009470   -0.00018377
     atom   14 type  4   force =    -0.00029347    0.00023282    0.00018152
     atom   15 type  4   force =    -0.00004004   -0.00014669   -0.00012503
     atom   16 type  4   force =     0.00027833   -0.00020855    0.00016941
     atom   17 type  4   force =    -0.00020948   -0.00014760    0.00028375
     atom   18 type  4   force =     0.00008931   -0.00001654   -0.00003921
     atom   19 type  4   force =     0.00020629    0.00016926    0.00008626
     atom   20 type  4   force =    -0.00011036    0.00005548   -0.00032185

     Total force =     0.089031     Total SCF correction =     0.001717


     Computing stress (Cartesian axis) and pressure


     negative rho (up, down):  6.372E-01 0.000E+00
          total   stress  (Ry/bohr**3)                   (kbar)     P=     -306.16
  -0.00174971   0.00000000   0.00000000         -257.39        0.00        0.00
   0.00000000  -0.00184665  -0.00004745            0.00     -271.65       -6.98
   0.00000000  -0.00004745  -0.00264733            0.00       -6.98     -389.44

     kinetic stress (kbar)  21278.59      0.00      0.00
                                0.00  21556.15    -62.46
                                0.00    -62.46  21077.63

     local   stress (kbar)  -6490.42      0.46     -0.13
                                0.46  -7402.93   1325.27
                               -0.13   1325.27  -6796.18

     nonloc. stress (kbar)   6423.67      0.00      0.00
                                0.00   6410.72      1.90
                                0.00      1.90   6438.80

     hartree stress (kbar)   5840.11     -0.17      0.09
                               -0.17   6085.50   -511.60
                                0.09   -511.60   6037.89

     exc-cor stress (kbar)   1369.02     -0.00      0.00
                               -0.00   1372.46     -1.04
                                0.00     -1.04   1369.50

     corecor stress (kbar)  -6413.51      0.01     -0.00
                                0.01  -6425.84      2.19
                               -0.00      2.19  -6412.32

     ewald   stress (kbar) -22264.84      0.00     -0.00
                                0.00 -21867.71   -761.24
                               -0.00   -761.24 -22104.76

     hubbard stress (kbar)      0.00      0.00      0.00
                                0.00      0.00      0.00
                                0.00      0.00      0.00

     DFT-D   stress (kbar)      0.00      0.00      0.00
                                0.00      0.00      0.00
                                0.00      0.00      0.00

     XDM     stress (kbar)      0.00      0.00      0.00
                                0.00      0.00      0.00
                                0.00      0.00      0.00

     dft-nl  stress (kbar)      0.00      0.00      0.00
                                0.00      0.00      0.00
                                0.00      0.00      0.00

     TS-vdW  stress (kbar)      0.00      0.00      0.00
                                0.00      0.00      0.00
                                0.00      0.00      0.00


                                0.00      0.00      0.00
                                0.00      0.00      0.00


                                0.00      0.00      0.00


     Writing all to output data dir new_calculations/myprefix.save/
 
     init_run     :    225.95s CPU      9.92s WALL (       1 calls)
     electrons    :   1480.40s CPU     51.27s WALL (       1 calls)
     forces       :     13.74s CPU      0.46s WALL (       1 calls)
     stress       :     50.70s CPU      1.67s WALL (       1 calls)

     Called by init_run:
     wfcinit      :     83.88s CPU      2.76s WALL (       1 calls)
     wfcinit:atom :      0.15s CPU      0.01s WALL (       1 calls)
     wfcinit:wfcr :     83.07s CPU      2.73s WALL (       1 calls)
     potinit      :     68.67s CPU      2.37s WALL (       1 calls)
     hinit0       :     62.50s CPU      4.39s WALL (       1 calls)

     Called by electrons:
     c_bands      :    456.34s CPU     14.55s WALL (      18 calls)
     sum_band     :    194.86s CPU      9.06s WALL (      18 calls)
     v_of_rho     :     22.63s CPU      0.77s WALL (      19 calls)
     v_h          :      1.61s CPU      0.05s WALL (      19 calls)
     v_xc         :     22.76s CPU      0.78s WALL (      21 calls)
     newd         :    151.69s CPU      5.15s WALL (      19 calls)
     PAW_pot      :    688.87s CPU     22.90s WALL (      19 calls)
     mix_rho      :      5.86s CPU      0.19s WALL (      18 calls)

     Called by c_bands:
     init_us_2    :      0.75s CPU      0.03s WALL (      37 calls)
     init_us_2:cp :      0.70s CPU      0.03s WALL (      37 calls)
     regterg      :    451.46s CPU     14.39s WALL (      18 calls)

     Called by sum_band:
     sum_band:wei :      0.05s CPU      0.00s WALL (      18 calls)
     sum_band:loo :     74.92s CPU      2.38s WALL (      18 calls)
     sum_band:buf :      0.01s CPU      0.00s WALL (      18 calls)
     sum_band:ini :      0.34s CPU      0.01s WALL (      18 calls)
     sum_band:cal :      0.37s CPU      0.01s WALL (      18 calls)
     sum_band:bec :      0.15s CPU      0.00s WALL (      18 calls)
     addusdens    :    116.78s CPU      6.57s WALL (      18 calls)
     addusd:skk   :      0.88s CPU      0.05s WALL (      72 calls)
     addusd:dgemm :     11.58s CPU      3.09s WALL (      72 calls)
     addusd:qvan2 :    100.65s CPU      3.25s WALL (      72 calls)

     Called by *egterg:
     rdiaghg      :     33.45s CPU      1.10s WALL (     122 calls)
     regterg:over :      0.98s CPU      0.03s WALL (     104 calls)
     regterg:upda :      1.74s CPU      0.06s WALL (     104 calls)
     regterg:last :      4.07s CPU      0.13s WALL (      41 calls)
     h_psi        :    485.13s CPU     15.49s WALL (     123 calls)
     s_psi        :      0.64s CPU      0.02s WALL (     123 calls)
     g_psi        :      0.13s CPU      0.00s WALL (     104 calls)

     Called by h_psi:
     h_psi:calbec :      1.64s CPU      0.05s WALL (     123 calls)
     vloc_psi     :    481.09s CPU     15.35s WALL (     123 calls)
     add_vuspsi   :      1.16s CPU      0.04s WALL (     123 calls)

     General routines
     calbec       :      1.87s CPU      0.06s WALL (     146 calls)
     fft          :     44.33s CPU      1.50s WALL (     227 calls)
     ffts         :     27.17s CPU      0.97s WALL (      37 calls)
     fftw         :    479.61s CPU     15.22s WALL (    5284 calls)
     interpolate  :     28.50s CPU      1.01s WALL (      19 calls)
 
     Parallel routines

     PAW routines
     PAW_pot      :    688.87s CPU     22.90s WALL (      19 calls)
     PAW_symme    :      0.79s CPU      0.03s WALL (      37 calls)
 
     PWSCF        :  29m38.71s CPU   1m 9.64s WALL

 
   This run was terminated on:   4:26:39  20May2023            

=------------------------------------------------------------------------------=
   JOB DONE.
=------------------------------------------------------------------------------=
