
     Program PWSCF v.7.0 starts on 21May2023 at  6: 2:32 

     This program is part of the open-source Quantum ESPRESSO suite
     for quantum simulation of materials; please cite
         "P. Giannozzi et al., J. Phys.:Condens. Matter 21 395502 (2009);
         "P. Giannozzi et al., J. Phys.:Condens. Matter 29 465901 (2017);
         "P. Giannozzi et al., J. Chem. Phys. 152 154105 (2020);
          URL http://www.quantum-espresso.org", 
     in publications or presentations arising from this work. More details at
     http://www.quantum-espresso.org/quote

     Parallel version (MPI & OpenMP), running on      32 processor cores
     Number of MPI processes:                 1
     Threads/MPI process:                    32

     MPI processes distributed on     1 nodes
     161190 MiB available memory on the printing compute node when the environment starts
 
     Reading input from espresso_25346.pwi
Warning: card &CELL ignored
Warning: card / ignored

     Current dimensions of program PWSCF are:
     Max number of different atomic species (ntypx) = 10
     Max number of k-points (npk) =  40000
     Max angular momentum in pseudopotentials (lmaxx) =  4
     file Fe.pbe-spn-kjpaw_psl.0.2.1.UPF: wavefunction(s)  3D renormalized

     gamma-point specific algorithms are used
     Message from routine setup:
     using ibrav=0 with symmetry is DISCOURAGED, use correct ibrav instead

     Subspace diagonalization in iterative solution of the eigenvalue problem:
     a serial algorithm will be used

 
     G-vector sticks info
     --------------------
     sticks:   dense  smooth     PW     G-vecs:    dense   smooth      PW
     Sum        2755    1385    343               108219    38289    4801
 
     Using Slab Decomposition
 


     bravais-lattice index     =            0
     lattice parameter (alat)  =      12.0958  a.u.
     unit-cell volume          =    1725.6103 (a.u.)^3
     number of atoms/cell      =           19
     number of atomic types    =            3
     number of electrons       =       300.00
     number of Kohn-Sham states=          180
     kinetic-energy cutoff     =      30.0000  Ry
     charge density cutoff     =     240.0000  Ry
     scf convergence threshold =      1.0E-06
     mixing beta               =       0.7000
     number of iterations used =            8  plain     mixing
     Exchange-correlation= SLA  PW   PBX  PBC
                           (   1   4   3   4   0   0   0)

     celldm(1)=  12.095771  celldm(2)=   0.000000  celldm(3)=   0.000000
     celldm(4)=   0.000000  celldm(5)=   0.000000  celldm(6)=   0.000000

     crystal axes: (cart. coord. in units of alat)
               a(1) = (   1.000000   0.000000   0.000000 )  
               a(2) = (   0.134223   0.990951   0.000000 )  
               a(3) = (   0.134223   0.117268   0.983988 )  

     reciprocal axes: (cart. coord. in units 2 pi/alat)
               b(1) = (  1.000000 -0.135448 -0.120265 )  
               b(2) = (  0.000000  1.009131 -0.120265 )  
               b(3) = (  0.000000  0.000000  1.016272 )  


     PseudoPot. # 1 for Sm read from file:
     /home/pragov/projects/rrg-bengioy-ad/pragov/crystal_structure_design/SSSP/Sm.GGA-PBE-paw-v1.0.UPF
     MD5 check sum: 886f70968969f895acf876f5617e0641
     Pseudo is Projector augmented-wave + core cor, Zval = 16.0
     Generated using ATOMPAW code
     Shape of augmentation charge: BESSEL
     Using radial grid of 1107 points,  8 beta functions with: 
                l(1) =   0
                l(2) =   0
                l(3) =   1
                l(4) =   1
                l(5) =   2
                l(6) =   2
                l(7) =   3
                l(8) =   3
     Q(r) pseudized with 0 coefficients 


     PseudoPot. # 2 for Cr read from file:
     /home/pragov/projects/rrg-bengioy-ad/pragov/crystal_structure_design/SSSP/cr_pbe_v1.5.uspp.F.UPF
     MD5 check sum: 0d52af634a40206e4dee301ad30da4bf
     Pseudo is Ultrasoft + core correction, Zval = 14.0
     Generated by new atomic code, or converted to UPF format
     Using radial grid of  857 points,  6 beta functions with: 
                l(1) =   0
                l(2) =   0
                l(3) =   1
                l(4) =   1
                l(5) =   2
                l(6) =   2
     Q(r) pseudized with  8 coefficients,  rinner =    0.950   0.950   0.950
                                                       0.950   0.950

     PseudoPot. # 3 for Fe read from file:
     /home/pragov/projects/rrg-bengioy-ad/pragov/crystal_structure_design/SSSP/Fe.pbe-spn-kjpaw_psl.0.2.1.UPF
     MD5 check sum: e86618425769142926afa95317d90200
     Pseudo is Projector augmented-wave + core cor, Zval = 16.0
     Generated using "atomic" code by A. Dal Corso  v.5.0.99 svn rev. 10869
     Shape of augmentation charge: PSQ
     Using radial grid of 1191 points,  6 beta functions with: 
                l(1) =   0
                l(2) =   0
                l(3) =   1
                l(4) =   1
                l(5) =   2
                l(6) =   2
     Q(r) pseudized with 0 coefficients 


     atomic species   valence    mass     pseudopotential
        Sm            16.00   150.36000     Sm( 1.00)
        Cr            14.00    51.99610     Cr( 1.00)
        Fe            16.00    55.84500     Fe( 1.00)

      2 Sym. Ops., with inversion, found


                                    s                        frac. trans.

      isym =  1     identity                                     

 cryst.   s( 1) = (     1          0          0      )
                  (     0          1          0      )
                  (     0          0          1      )

 cart.    s( 1) = (  1.0000000  0.0000000  0.0000000 )
                  (  0.0000000  1.0000000  0.0000000 )
                  (  0.0000000  0.0000000  1.0000000 )


      isym =  2     inversion                                    

 cryst.   s( 2) = (    -1          0          0      )
                  (     0         -1          0      )
                  (     0          0         -1      )

 cart.    s( 2) = ( -1.0000000 -0.0000000 -0.0000000 )
                  (  0.0000000 -1.0000000 -0.0000000 )
                  (  0.0000000  0.0000000 -1.0000000 )


   Cartesian axes

     site n.     atom                  positions (alat units)
         1           Sm  tau(   1) = (   0.8340232   0.7286720   0.6469879  )
         2           Sm  tau(   2) = (   0.4344223   0.3795474   0.3370002  )
         3           Cr  tau(   3) = (   0.1091713   0.0953811   0.0846889  )
         4           Cr  tau(   4) = (   1.1592742   1.0128383   0.8992992  )
         5           Fe  tau(   5) = (   0.4973552   0.4345308   0.8309976  )
         6           Fe  tau(   6) = (   0.9354047   0.3751977   0.3331380  )
         7           Fe  tau(   7) = (   0.0671114   0.0586341   0.4919940  )
         8           Fe  tau(   8) = (   0.0671113   0.4954756   0.0000000  )
         9           Fe  tau(   9) = (   0.5000000   0.0000000   0.0000000  )
        10           Fe  tau(  10) = (   0.7419170   0.2953966   0.0000000  )
        11           Fe  tau(  11) = (   0.3923058   0.0823113   0.6906671  )
        12           Fe  tau(  12) = (   0.1342227   0.7305116   0.2933209  )
        13           Fe  tau(  13) = (   0.3923057   0.6955546   0.0000000  )
        14           Fe  tau(  14) = (   0.7419170   0.0349570   0.2933209  )
        15           Fe  tau(  15) = (   1.1342228   0.3777079   0.6906671  )
        16           Fe  tau(  16) = (   0.3330409   0.7330218   0.6508501  )
        17           Fe  tau(  17) = (   0.7710904   0.6736886   0.1529905  )
        18           Fe  tau(  18) = (   0.7710905   0.2316391   0.6508501  )
        19           Fe  tau(  19) = (   0.4973551   0.8765803   0.3331380  )

   Crystallographic axes

     site n.     atom                  positions (cryst. coord.)
         1           Sm  tau(   1) = (  0.6575160  0.6575160  0.6575160  )
         2           Sm  tau(   2) = (  0.3424840  0.3424840  0.3424840  )
         3           Cr  tau(   3) = (  0.0860670  0.0860670  0.0860670  )
         4           Cr  tau(   4) = (  0.9139330  0.9139330  0.9139330  )
         5           Fe  tau(   5) = (  0.3385590  0.3385590  0.8445200  )
         6           Fe  tau(   6) = (  0.8445200  0.3385590  0.3385590  )
         7           Fe  tau(   7) = (  0.0000000 -0.0000000  0.5000000  )
         8           Fe  tau(   8) = (  0.0000000  0.5000000  0.0000000  )
         9           Fe  tau(   9) = (  0.5000000  0.0000000  0.0000000  )
        10           Fe  tau(  10) = (  0.7019060  0.2980940  0.0000000  )
        11           Fe  tau(  11) = (  0.2980940 -0.0000000  0.7019060  )
        12           Fe  tau(  12) = ( -0.0000000  0.7019060  0.2980940  )
        13           Fe  tau(  13) = (  0.2980940  0.7019060  0.0000000  )
        14           Fe  tau(  14) = (  0.7019060  0.0000000  0.2980940  )
        15           Fe  tau(  15) = (  1.0000000  0.2980940  0.7019060  )
        16           Fe  tau(  16) = (  0.1554800  0.6614410  0.6614410  )
        17           Fe  tau(  17) = (  0.6614410  0.6614410  0.1554800  )
        18           Fe  tau(  18) = (  0.6614410  0.1554800  0.6614410  )
        19           Fe  tau(  19) = (  0.3385590  0.8445200  0.3385590  )

     number of k points=     1  Methfessel-Paxton smearing, width (Ry)=  0.0010
                       cart. coord. in units 2pi/alat
        k(    1) = (   0.0000000   0.0000000   0.0000000), wk =   2.0000000

                       cryst. coord.
        k(    1) = (   0.0000000   0.0000000   0.0000000), wk =   2.0000000

     Dense  grid:    54110 G-vectors     FFT dimensions: (  60,  60,  60)

     Smooth grid:    19145 G-vectors     FFT dimensions: (  45,  45,  45)

     Dynamical RAM for                 wfc:       6.58 MB

     Dynamical RAM for     wfc (w. buffer):       6.58 MB

     Dynamical RAM for           str. fact:       2.48 MB

     Dynamical RAM for           local pot:       0.00 MB

     Dynamical RAM for          nlocal pot:      13.52 MB

     Dynamical RAM for                qrad:       8.96 MB

     Dynamical RAM for          rho,v,vnew:       7.42 MB

     Dynamical RAM for               rhoin:       2.47 MB

     Dynamical RAM for            rho*nmix:      13.21 MB

     Dynamical RAM for           G-vectors:       3.24 MB

     Dynamical RAM for          h,s,v(r/c):       2.97 MB

     Dynamical RAM for          <psi|beta>:       0.51 MB

     Dynamical RAM for                 psi:      13.15 MB

     Dynamical RAM for                hpsi:      13.15 MB

     Dynamical RAM for                spsi:      13.15 MB

     Dynamical RAM for      wfcinit/wfcrot:      22.17 MB

     Dynamical RAM for           addusdens:     470.62 MB

     Dynamical RAM for          addusforce:     494.33 MB

     Dynamical RAM for         addusstress:     480.53 MB

     Estimated static dynamical RAM per process >      56.20 MB

     Estimated max dynamical RAM per process >     563.75 MB

     Check: negative core charge=   -0.000267

     Initial potential from superposition of free atoms

     starting charge     297.9822, renormalised to     300.0000

     negative rho (up, down):  3.480E-03 0.000E+00
     Starting wfcs are  279 randomized atomic wfcs
     Checking if some PAW data can be deallocated... 

     total cpu time spent up to now is       24.4 secs

     Self-consistent Calculation

     iteration #  1     ecut=    30.00 Ry     beta= 0.70
     Davidson diagonalization with overlap

---- Real-time Memory Report at c_bands before calling an iterative solver
           775 MiB given to the printing process from OS
             0 MiB allocation reported by mallinfo(arena+hblkhd)
        160838 MiB available memory on the node where the printing process lives
------------------
     ethr =  1.00E-02,  avg # of iterations =  2.0

     total cpu time spent up to now is       37.3 secs

     total energy              =   -6391.61746488 Ry
     estimated scf accuracy    <     111.98245808 Ry

     iteration #  2     ecut=    30.00 Ry     beta= 0.70
     Davidson diagonalization with overlap

---- Real-time Memory Report at c_bands before calling an iterative solver
          1107 MiB given to the printing process from OS
             0 MiB allocation reported by mallinfo(arena+hblkhd)
        160760 MiB available memory on the node where the printing process lives
------------------
     ethr =  1.00E-02,  avg # of iterations =  8.0

     total cpu time spent up to now is       59.2 secs

     total energy              =   -6402.42254305 Ry
     estimated scf accuracy    <    2213.54745225 Ry

     iteration #  3     ecut=    30.00 Ry     beta= 0.70
     Davidson diagonalization with overlap

---- Real-time Memory Report at c_bands before calling an iterative solver
          1112 MiB given to the printing process from OS
             0 MiB allocation reported by mallinfo(arena+hblkhd)
        160723 MiB available memory on the node where the printing process lives
------------------
     ethr =  1.00E-02,  avg # of iterations =  7.0

     total cpu time spent up to now is       66.6 secs

     total energy              =   -6496.55536851 Ry
     estimated scf accuracy    <     324.61896239 Ry

     iteration #  4     ecut=    30.00 Ry     beta= 0.70
     Davidson diagonalization with overlap

---- Real-time Memory Report at c_bands before calling an iterative solver
          1116 MiB given to the printing process from OS
             0 MiB allocation reported by mallinfo(arena+hblkhd)
        160749 MiB available memory on the node where the printing process lives
------------------
     ethr =  1.00E-02,  avg # of iterations =  2.0

     negative rho (up, down):  1.098E-03 0.000E+00

     total cpu time spent up to now is       78.8 secs

     total energy              =   -6492.22946717 Ry
     estimated scf accuracy    <     312.13927701 Ry

     iteration #  5     ecut=    30.00 Ry     beta= 0.70
     Davidson diagonalization with overlap

---- Real-time Memory Report at c_bands before calling an iterative solver
          1116 MiB given to the printing process from OS
             0 MiB allocation reported by mallinfo(arena+hblkhd)
        160747 MiB available memory on the node where the printing process lives
------------------
     ethr =  1.00E-02,  avg # of iterations =  2.0

     negative rho (up, down):  1.160E-03 0.000E+00

     total cpu time spent up to now is       86.8 secs

     total energy              =   -6492.98913578 Ry
     estimated scf accuracy    <     113.54186007 Ry

     iteration #  6     ecut=    30.00 Ry     beta= 0.70
     Davidson diagonalization with overlap

---- Real-time Memory Report at c_bands before calling an iterative solver
          1117 MiB given to the printing process from OS
             0 MiB allocation reported by mallinfo(arena+hblkhd)
        160749 MiB available memory on the node where the printing process lives
------------------
     ethr =  1.00E-02,  avg # of iterations =  3.0

     total cpu time spent up to now is       90.6 secs

     total energy              =   -6502.53001752 Ry
     estimated scf accuracy    <     168.58242802 Ry

     iteration #  7     ecut=    30.00 Ry     beta= 0.70
     Davidson diagonalization with overlap

---- Real-time Memory Report at c_bands before calling an iterative solver
          1117 MiB given to the printing process from OS
             0 MiB allocation reported by mallinfo(arena+hblkhd)
        160789 MiB available memory on the node where the printing process lives
------------------
     ethr =  1.00E-02,  avg # of iterations =  1.0

     total cpu time spent up to now is       94.1 secs

     total energy              =   -6503.42606682 Ry
     estimated scf accuracy    <     196.47479592 Ry

     iteration #  8     ecut=    30.00 Ry     beta= 0.70
     Davidson diagonalization with overlap

---- Real-time Memory Report at c_bands before calling an iterative solver
          1117 MiB given to the printing process from OS
             0 MiB allocation reported by mallinfo(arena+hblkhd)
        160729 MiB available memory on the node where the printing process lives
------------------
     ethr =  1.00E-02,  avg # of iterations =  1.0

     total cpu time spent up to now is       97.9 secs

     total energy              =   -6503.57981420 Ry
     estimated scf accuracy    <     187.58975889 Ry

     iteration #  9     ecut=    30.00 Ry     beta= 0.70
     Davidson diagonalization with overlap

---- Real-time Memory Report at c_bands before calling an iterative solver
          1119 MiB given to the printing process from OS
             0 MiB allocation reported by mallinfo(arena+hblkhd)
        160727 MiB available memory on the node where the printing process lives
------------------
     ethr =  1.00E-02,  avg # of iterations =  1.0

     total cpu time spent up to now is      109.0 secs

     total energy              =   -6503.61797096 Ry
     estimated scf accuracy    <     188.04251611 Ry

     iteration # 10     ecut=    30.00 Ry     beta= 0.70
     Davidson diagonalization with overlap

---- Real-time Memory Report at c_bands before calling an iterative solver
          1119 MiB given to the printing process from OS
             0 MiB allocation reported by mallinfo(arena+hblkhd)
        160728 MiB available memory on the node where the printing process lives
------------------
     ethr =  1.00E-02,  avg # of iterations =  1.0

     negative rho (up, down):  9.121E-02 0.000E+00

     total cpu time spent up to now is      119.2 secs

     total energy              =   -6445.32939253 Ry
     estimated scf accuracy    <     188.10672333 Ry

     iteration # 11     ecut=    30.00 Ry     beta= 0.70
     Davidson diagonalization with overlap

---- Real-time Memory Report at c_bands before calling an iterative solver
          1121 MiB given to the printing process from OS
             0 MiB allocation reported by mallinfo(arena+hblkhd)
        160753 MiB available memory on the node where the printing process lives
------------------
     ethr =  1.00E-02,  avg # of iterations =  5.0

     negative rho (up, down):  2.554E-03 0.000E+00

     total cpu time spent up to now is      123.7 secs

     total energy              =   -6486.97824373 Ry
     estimated scf accuracy    <     405.61126085 Ry

     iteration # 12     ecut=    30.00 Ry     beta= 0.70
     Davidson diagonalization with overlap

---- Real-time Memory Report at c_bands before calling an iterative solver
          1121 MiB given to the printing process from OS
             0 MiB allocation reported by mallinfo(arena+hblkhd)
        160757 MiB available memory on the node where the printing process lives
------------------
     ethr =  1.00E-02,  avg # of iterations =  2.0

     negative rho (up, down):  1.452E-03 0.000E+00

     total cpu time spent up to now is      127.6 secs

     total energy              =   -6495.55687515 Ry
     estimated scf accuracy    <     134.25467855 Ry

     iteration # 13     ecut=    30.00 Ry     beta= 0.70
     Davidson diagonalization with overlap

---- Real-time Memory Report at c_bands before calling an iterative solver
          1121 MiB given to the printing process from OS
             0 MiB allocation reported by mallinfo(arena+hblkhd)
        160759 MiB available memory on the node where the printing process lives
------------------
     ethr =  1.00E-02,  avg # of iterations =  1.0

     negative rho (up, down):  1.606E-03 0.000E+00

     total cpu time spent up to now is      131.2 secs

     total energy              =   -6494.88348343 Ry
     estimated scf accuracy    <      87.69477346 Ry

     iteration # 14     ecut=    30.00 Ry     beta= 0.70
     Davidson diagonalization with overlap

---- Real-time Memory Report at c_bands before calling an iterative solver
          1121 MiB given to the printing process from OS
             0 MiB allocation reported by mallinfo(arena+hblkhd)
        160759 MiB available memory on the node where the printing process lives
------------------
     ethr =  1.00E-02,  avg # of iterations =  1.0

     negative rho (up, down):  2.121E-03 0.000E+00

     total cpu time spent up to now is      135.4 secs

     total energy              =   -6494.43891369 Ry
     estimated scf accuracy    <      82.20278516 Ry

     iteration # 15     ecut=    30.00 Ry     beta= 0.70
     Davidson diagonalization with overlap

---- Real-time Memory Report at c_bands before calling an iterative solver
          1121 MiB given to the printing process from OS
             0 MiB allocation reported by mallinfo(arena+hblkhd)
        160742 MiB available memory on the node where the printing process lives
------------------
     ethr =  1.00E-02,  avg # of iterations =  2.0

     negative rho (up, down):  2.897E-03 0.000E+00

     total cpu time spent up to now is      139.3 secs

     total energy              =   -6494.29605078 Ry
     estimated scf accuracy    <      90.63864712 Ry

     iteration # 16     ecut=    30.00 Ry     beta= 0.70
     Davidson diagonalization with overlap

---- Real-time Memory Report at c_bands before calling an iterative solver
          1122 MiB given to the printing process from OS
             0 MiB allocation reported by mallinfo(arena+hblkhd)
        160725 MiB available memory on the node where the printing process lives
------------------
     ethr =  1.00E-02,  avg # of iterations =  1.0

     negative rho (up, down):  2.754E-03 0.000E+00

     total cpu time spent up to now is      143.1 secs

     total energy              =   -6495.58300738 Ry
     estimated scf accuracy    <      58.71564614 Ry

     iteration # 17     ecut=    30.00 Ry     beta= 0.70
     Davidson diagonalization with overlap

---- Real-time Memory Report at c_bands before calling an iterative solver
          1122 MiB given to the printing process from OS
             0 MiB allocation reported by mallinfo(arena+hblkhd)
        160724 MiB available memory on the node where the printing process lives
------------------
     ethr =  1.00E-02,  avg # of iterations =  1.0

     negative rho (up, down):  2.344E-03 0.000E+00

     total cpu time spent up to now is      146.8 secs

     total energy              =   -6495.64804338 Ry
     estimated scf accuracy    <      47.20802301 Ry

     iteration # 18     ecut=    30.00 Ry     beta= 0.70
     Davidson diagonalization with overlap

---- Real-time Memory Report at c_bands before calling an iterative solver
          1122 MiB given to the printing process from OS
             0 MiB allocation reported by mallinfo(arena+hblkhd)
        160728 MiB available memory on the node where the printing process lives
------------------
     ethr =  1.00E-02,  avg # of iterations =  1.0

     negative rho (up, down):  2.338E-03 0.000E+00

     total cpu time spent up to now is      150.5 secs

     total energy              =   -6495.58338030 Ry
     estimated scf accuracy    <      48.65568348 Ry

     iteration # 19     ecut=    30.00 Ry     beta= 0.70
     Davidson diagonalization with overlap

---- Real-time Memory Report at c_bands before calling an iterative solver
          1122 MiB given to the printing process from OS
             0 MiB allocation reported by mallinfo(arena+hblkhd)
        160730 MiB available memory on the node where the printing process lives
------------------
     ethr =  1.00E-02,  avg # of iterations =  1.0

     negative rho (up, down):  3.844E-03 0.000E+00

     total cpu time spent up to now is      154.1 secs

     total energy              =   -6452.05159846 Ry
     estimated scf accuracy    <      43.41078941 Ry

     iteration # 20     ecut=    30.00 Ry     beta= 0.70
     Davidson diagonalization with overlap

---- Real-time Memory Report at c_bands before calling an iterative solver
          1122 MiB given to the printing process from OS
             0 MiB allocation reported by mallinfo(arena+hblkhd)
        160729 MiB available memory on the node where the printing process lives
------------------
     ethr =  1.00E-02,  avg # of iterations =  6.0

     negative rho (up, down):  5.422E-03 0.000E+00

     total cpu time spent up to now is      159.2 secs

     total energy              =   -6474.89294592 Ry
     estimated scf accuracy    <    1144.39050530 Ry

     iteration # 21     ecut=    30.00 Ry     beta= 0.70
     Davidson diagonalization with overlap

---- Real-time Memory Report at c_bands before calling an iterative solver
          1122 MiB given to the printing process from OS
             0 MiB allocation reported by mallinfo(arena+hblkhd)
        160729 MiB available memory on the node where the printing process lives
------------------
     ethr =  1.00E-02,  avg # of iterations =  6.0

     negative rho (up, down):  3.440E-03 0.000E+00

     total cpu time spent up to now is      163.9 secs

     total energy              =   -6501.36433858 Ry
     estimated scf accuracy    <     389.96211387 Ry

     iteration # 22     ecut=    30.00 Ry     beta= 0.70
     Davidson diagonalization with overlap

---- Real-time Memory Report at c_bands before calling an iterative solver
          1123 MiB given to the printing process from OS
             0 MiB allocation reported by mallinfo(arena+hblkhd)
        160784 MiB available memory on the node where the printing process lives
------------------
     ethr =  1.00E-02,  avg # of iterations =  4.0

     negative rho (up, down):  3.452E-03 0.000E+00

     total cpu time spent up to now is      168.2 secs

     total energy              =   -6495.20757804 Ry
     estimated scf accuracy    <     412.28743901 Ry

     iteration # 23     ecut=    30.00 Ry     beta= 0.70
     Davidson diagonalization with overlap

---- Real-time Memory Report at c_bands before calling an iterative solver
          1123 MiB given to the printing process from OS
             0 MiB allocation reported by mallinfo(arena+hblkhd)
        160752 MiB available memory on the node where the printing process lives
------------------
     ethr =  1.00E-02,  avg # of iterations =  4.0

     negative rho (up, down):  3.723E-03 0.000E+00

     total cpu time spent up to now is      172.3 secs

     total energy              =   -6495.90868951 Ry
     estimated scf accuracy    <     276.12119274 Ry

     iteration # 24     ecut=    30.00 Ry     beta= 0.70
     Davidson diagonalization with overlap

---- Real-time Memory Report at c_bands before calling an iterative solver
          1123 MiB given to the printing process from OS
             0 MiB allocation reported by mallinfo(arena+hblkhd)
        160753 MiB available memory on the node where the printing process lives
------------------
     ethr =  1.00E-02,  avg # of iterations =  2.0

     negative rho (up, down):  3.436E-03 0.000E+00

     total cpu time spent up to now is      176.1 secs

     total energy              =   -6496.15424137 Ry
     estimated scf accuracy    <     200.76473175 Ry

     iteration # 25     ecut=    30.00 Ry     beta= 0.70
     Davidson diagonalization with overlap

---- Real-time Memory Report at c_bands before calling an iterative solver
          1124 MiB given to the printing process from OS
             0 MiB allocation reported by mallinfo(arena+hblkhd)
        160751 MiB available memory on the node where the printing process lives
------------------
     ethr =  1.00E-02,  avg # of iterations =  1.0

     negative rho (up, down):  3.528E-03 0.000E+00

     total cpu time spent up to now is      179.7 secs

     total energy              =   -6495.92034104 Ry
     estimated scf accuracy    <     136.90147407 Ry

     iteration # 26     ecut=    30.00 Ry     beta= 0.70
     Davidson diagonalization with overlap

---- Real-time Memory Report at c_bands before calling an iterative solver
          1124 MiB given to the printing process from OS
             0 MiB allocation reported by mallinfo(arena+hblkhd)
        160753 MiB available memory on the node where the printing process lives
------------------
     ethr =  1.00E-02,  avg # of iterations =  1.0

     negative rho (up, down):  3.548E-03 0.000E+00

     total cpu time spent up to now is      183.5 secs

     total energy              =   -6495.75060281 Ry
     estimated scf accuracy    <     125.98138352 Ry

     iteration # 27     ecut=    30.00 Ry     beta= 0.70
     Davidson diagonalization with overlap

---- Real-time Memory Report at c_bands before calling an iterative solver
          1124 MiB given to the printing process from OS
             0 MiB allocation reported by mallinfo(arena+hblkhd)
        160752 MiB available memory on the node where the printing process lives
------------------
     ethr =  1.00E-02,  avg # of iterations =  1.0

     negative rho (up, down):  3.530E-03 0.000E+00

     total cpu time spent up to now is      187.1 secs

     total energy              =   -6496.01712156 Ry
     estimated scf accuracy    <     145.84924256 Ry

     iteration # 28     ecut=    30.00 Ry     beta= 0.70
     Davidson diagonalization with overlap

---- Real-time Memory Report at c_bands before calling an iterative solver
          1124 MiB given to the printing process from OS
             0 MiB allocation reported by mallinfo(arena+hblkhd)
        160753 MiB available memory on the node where the printing process lives
------------------
     ethr =  1.00E-02,  avg # of iterations =  1.0

     negative rho (up, down):  1.714E-02 0.000E+00

     total cpu time spent up to now is      190.8 secs

     total energy              =   -6426.02893647 Ry
     estimated scf accuracy    <     179.71536912 Ry

     iteration # 29     ecut=    30.00 Ry     beta= 0.70
     Davidson diagonalization with overlap

---- Real-time Memory Report at c_bands before calling an iterative solver
          1124 MiB given to the printing process from OS
             0 MiB allocation reported by mallinfo(arena+hblkhd)
        160731 MiB available memory on the node where the printing process lives
------------------
     ethr =  1.00E-02,  avg # of iterations =  4.0

     negative rho (up, down):  4.945E-03 0.000E+00

     total cpu time spent up to now is      195.2 secs

     total energy              =   -6495.20437570 Ry
     estimated scf accuracy    <     458.20287311 Ry

     iteration # 30     ecut=    30.00 Ry     beta= 0.70
     Davidson diagonalization with overlap

---- Real-time Memory Report at c_bands before calling an iterative solver
          1124 MiB given to the printing process from OS
             0 MiB allocation reported by mallinfo(arena+hblkhd)
        160729 MiB available memory on the node where the printing process lives
------------------
     ethr =  1.00E-02,  avg # of iterations =  5.0

     negative rho (up, down):  4.082E-03 0.000E+00

     total cpu time spent up to now is      199.8 secs

     total energy              =   -6493.60524138 Ry
     estimated scf accuracy    <     529.86746985 Ry

     iteration # 31     ecut=    30.00 Ry     beta= 0.70
     Davidson diagonalization with overlap

---- Real-time Memory Report at c_bands before calling an iterative solver
          1124 MiB given to the printing process from OS
             0 MiB allocation reported by mallinfo(arena+hblkhd)
        160731 MiB available memory on the node where the printing process lives
------------------
     ethr =  1.00E-02,  avg # of iterations =  5.0

     negative rho (up, down):  4.362E-03 0.000E+00

     total cpu time spent up to now is      204.5 secs

     total energy              =   -6505.82069880 Ry
     estimated scf accuracy    <     287.35002492 Ry

     iteration # 32     ecut=    30.00 Ry     beta= 0.70
     Davidson diagonalization with overlap

---- Real-time Memory Report at c_bands before calling an iterative solver
          1124 MiB given to the printing process from OS
             0 MiB allocation reported by mallinfo(arena+hblkhd)
        160732 MiB available memory on the node where the printing process lives
------------------
     ethr =  1.00E-02,  avg # of iterations =  2.0

     negative rho (up, down):  4.252E-03 0.000E+00

     total cpu time spent up to now is      208.5 secs

     total energy              =   -6512.12166431 Ry
     estimated scf accuracy    <     169.79612093 Ry

     iteration # 33     ecut=    30.00 Ry     beta= 0.70
     Davidson diagonalization with overlap

---- Real-time Memory Report at c_bands before calling an iterative solver
          1124 MiB given to the printing process from OS
             0 MiB allocation reported by mallinfo(arena+hblkhd)
        160733 MiB available memory on the node where the printing process lives
------------------
     ethr =  1.00E-02,  avg # of iterations =  1.0

     negative rho (up, down):  3.319E-03 0.000E+00

     total cpu time spent up to now is      212.1 secs

     total energy              =   -6510.66843074 Ry
     estimated scf accuracy    <     132.35866217 Ry

     iteration # 34     ecut=    30.00 Ry     beta= 0.70
     Davidson diagonalization with overlap

---- Real-time Memory Report at c_bands before calling an iterative solver
          1124 MiB given to the printing process from OS
             0 MiB allocation reported by mallinfo(arena+hblkhd)
        160731 MiB available memory on the node where the printing process lives
------------------
     ethr =  1.00E-02,  avg # of iterations =  1.0

     negative rho (up, down):  3.964E-03 0.000E+00

     total cpu time spent up to now is      215.8 secs

     total energy              =   -6506.91976308 Ry
     estimated scf accuracy    <     148.23244935 Ry

     iteration # 35     ecut=    30.00 Ry     beta= 0.70
     Davidson diagonalization with overlap

---- Real-time Memory Report at c_bands before calling an iterative solver
          1124 MiB given to the printing process from OS
             0 MiB allocation reported by mallinfo(arena+hblkhd)
        160756 MiB available memory on the node where the printing process lives
------------------
     ethr =  1.00E-02,  avg # of iterations =  2.0

     negative rho (up, down):  5.004E-03 0.000E+00

     total cpu time spent up to now is      219.5 secs

     total energy              =   -6503.97630241 Ry
     estimated scf accuracy    <     130.95940963 Ry

     iteration # 36     ecut=    30.00 Ry     beta= 0.70
     Davidson diagonalization with overlap

---- Real-time Memory Report at c_bands before calling an iterative solver
          1124 MiB given to the printing process from OS
             0 MiB allocation reported by mallinfo(arena+hblkhd)
        160757 MiB available memory on the node where the printing process lives
------------------
     ethr =  1.00E-02,  avg # of iterations =  2.0

     negative rho (up, down):  7.839E-03 0.000E+00

     total cpu time spent up to now is      223.4 secs

     total energy              =   -6489.33452883 Ry
     estimated scf accuracy    <     283.54297199 Ry

     iteration # 37     ecut=    30.00 Ry     beta= 0.70
     Davidson diagonalization with overlap

---- Real-time Memory Report at c_bands before calling an iterative solver
          1126 MiB given to the printing process from OS
             0 MiB allocation reported by mallinfo(arena+hblkhd)
        160755 MiB available memory on the node where the printing process lives
------------------
     ethr =  1.00E-02,  avg # of iterations =  4.0

     negative rho (up, down):  5.314E-03 0.000E+00

     total cpu time spent up to now is      230.5 secs

     total energy              =   -6428.62255988 Ry
     estimated scf accuracy    <     374.60444187 Ry

     iteration # 38     ecut=    30.00 Ry     beta= 0.70
     Davidson diagonalization with overlap

---- Real-time Memory Report at c_bands before calling an iterative solver
          1126 MiB given to the printing process from OS
             0 MiB allocation reported by mallinfo(arena+hblkhd)
        160747 MiB available memory on the node where the printing process lives
------------------
     ethr =  1.00E-02,  avg # of iterations =  5.0

     negative rho (up, down):  3.828E-03 0.000E+00

     total cpu time spent up to now is      241.1 secs

     total energy              =   -6460.67294436 Ry
     estimated scf accuracy    <    1221.46102044 Ry

     iteration # 39     ecut=    30.00 Ry     beta= 0.70
     Davidson diagonalization with overlap

---- Real-time Memory Report at c_bands before calling an iterative solver
          1126 MiB given to the printing process from OS
             0 MiB allocation reported by mallinfo(arena+hblkhd)
        160730 MiB available memory on the node where the printing process lives
------------------
     ethr =  1.00E-02,  avg # of iterations =  5.0

     negative rho (up, down):  2.678E-03 0.000E+00

     total cpu time spent up to now is      246.1 secs

     total energy              =   -6482.89931264 Ry
     estimated scf accuracy    <     457.29366320 Ry

     iteration # 40     ecut=    30.00 Ry     beta= 0.70
     Davidson diagonalization with overlap

---- Real-time Memory Report at c_bands before calling an iterative solver
          1126 MiB given to the printing process from OS
             0 MiB allocation reported by mallinfo(arena+hblkhd)
        160734 MiB available memory on the node where the printing process lives
------------------
     ethr =  1.00E-02,  avg # of iterations =  5.0

     negative rho (up, down):  3.313E-03 0.000E+00

     total cpu time spent up to now is      250.6 secs

     total energy              =   -6487.19554862 Ry
     estimated scf accuracy    <     268.43245135 Ry

     iteration # 41     ecut=    30.00 Ry     beta= 0.70
     Davidson diagonalization with overlap

---- Real-time Memory Report at c_bands before calling an iterative solver
          1127 MiB given to the printing process from OS
             0 MiB allocation reported by mallinfo(arena+hblkhd)
        160736 MiB available memory on the node where the printing process lives
------------------
     ethr =  1.00E-02,  avg # of iterations =  3.0

     negative rho (up, down):  3.820E-03 0.000E+00

     total cpu time spent up to now is      254.6 secs

     total energy              =   -6489.10493168 Ry
     estimated scf accuracy    <     187.69010186 Ry

     iteration # 42     ecut=    30.00 Ry     beta= 0.70
     Davidson diagonalization with overlap

---- Real-time Memory Report at c_bands before calling an iterative solver
          1127 MiB given to the printing process from OS
             0 MiB allocation reported by mallinfo(arena+hblkhd)
        160737 MiB available memory on the node where the printing process lives
------------------
     ethr =  1.00E-02,  avg # of iterations =  2.0

     negative rho (up, down):  4.026E-03 0.000E+00

     total cpu time spent up to now is      258.4 secs

     total energy              =   -6488.65069237 Ry
     estimated scf accuracy    <     149.08466257 Ry

     iteration # 43     ecut=    30.00 Ry     beta= 0.70
     Davidson diagonalization with overlap

---- Real-time Memory Report at c_bands before calling an iterative solver
          1127 MiB given to the printing process from OS
             0 MiB allocation reported by mallinfo(arena+hblkhd)
        160736 MiB available memory on the node where the printing process lives
------------------
     ethr =  1.00E-02,  avg # of iterations =  3.0

     negative rho (up, down):  4.699E-03 0.000E+00

     total cpu time spent up to now is      262.5 secs

     total energy              =   -6482.22858840 Ry
     estimated scf accuracy    <     269.97074270 Ry

     iteration # 44     ecut=    30.00 Ry     beta= 0.70
     Davidson diagonalization with overlap

---- Real-time Memory Report at c_bands before calling an iterative solver
          1127 MiB given to the printing process from OS
             0 MiB allocation reported by mallinfo(arena+hblkhd)
        160738 MiB available memory on the node where the printing process lives
------------------
     ethr =  1.00E-02,  avg # of iterations =  5.0

     negative rho (up, down):  5.890E-03 0.000E+00

     total cpu time spent up to now is      267.0 secs

     total energy              =   -6482.20390396 Ry
     estimated scf accuracy    <     289.38011212 Ry

     iteration # 45     ecut=    30.00 Ry     beta= 0.70
     Davidson diagonalization with overlap

---- Real-time Memory Report at c_bands before calling an iterative solver
          1127 MiB given to the printing process from OS
             0 MiB allocation reported by mallinfo(arena+hblkhd)
        160736 MiB available memory on the node where the printing process lives
------------------
     ethr =  1.00E-02,  avg # of iterations =  5.0

     negative rho (up, down):  5.578E-03 0.000E+00

     total cpu time spent up to now is      271.7 secs

     total energy              =   -6487.07669415 Ry
     estimated scf accuracy    <     320.67002921 Ry

     iteration # 46     ecut=    30.00 Ry     beta= 0.70
     Davidson diagonalization with overlap

---- Real-time Memory Report at c_bands before calling an iterative solver
          1127 MiB given to the printing process from OS
             0 MiB allocation reported by mallinfo(arena+hblkhd)
        160758 MiB available memory on the node where the printing process lives
------------------
     ethr =  1.00E-02,  avg # of iterations =  4.0

     negative rho (up, down):  6.445E-03 0.000E+00

     total cpu time spent up to now is      276.0 secs

     total energy              =   -6485.65529928 Ry
     estimated scf accuracy    <     306.08446377 Ry

     iteration # 47     ecut=    30.00 Ry     beta= 0.70
     Davidson diagonalization with overlap

---- Real-time Memory Report at c_bands before calling an iterative solver
          1127 MiB given to the printing process from OS
             0 MiB allocation reported by mallinfo(arena+hblkhd)
        160759 MiB available memory on the node where the printing process lives
------------------
     ethr =  1.00E-02,  avg # of iterations =  4.0

     negative rho (up, down):  4.881E-03 0.000E+00

     total cpu time spent up to now is      280.5 secs

     total energy              =   -6483.99140570 Ry
     estimated scf accuracy    <     305.10563429 Ry

     iteration # 48     ecut=    30.00 Ry     beta= 0.70
     Davidson diagonalization with overlap

---- Real-time Memory Report at c_bands before calling an iterative solver
          1127 MiB given to the printing process from OS
             0 MiB allocation reported by mallinfo(arena+hblkhd)
        160757 MiB available memory on the node where the printing process lives
------------------
     ethr =  1.00E-02,  avg # of iterations =  4.0

     negative rho (up, down):  4.198E-03 0.000E+00

     total cpu time spent up to now is      284.6 secs

     total energy              =   -6487.69306091 Ry
     estimated scf accuracy    <     158.89539151 Ry

     iteration # 49     ecut=    30.00 Ry     beta= 0.70
     Davidson diagonalization with overlap

---- Real-time Memory Report at c_bands before calling an iterative solver
          1127 MiB given to the printing process from OS
             0 MiB allocation reported by mallinfo(arena+hblkhd)
        160759 MiB available memory on the node where the printing process lives
------------------
     ethr =  1.00E-02,  avg # of iterations =  3.0

     negative rho (up, down):  2.808E-03 0.000E+00

     total cpu time spent up to now is      288.9 secs

     total energy              =   -6484.08681857 Ry
     estimated scf accuracy    <     288.20680305 Ry

     iteration # 50     ecut=    30.00 Ry     beta= 0.70
     Davidson diagonalization with overlap

---- Real-time Memory Report at c_bands before calling an iterative solver
          1127 MiB given to the printing process from OS
             0 MiB allocation reported by mallinfo(arena+hblkhd)
        160758 MiB available memory on the node where the printing process lives
------------------
     ethr =  1.00E-02,  avg # of iterations =  5.0

     negative rho (up, down):  3.674E-03 0.000E+00

     total cpu time spent up to now is      293.3 secs

     total energy              =   -6480.63860878 Ry
     estimated scf accuracy    <     348.83514177 Ry

     iteration # 51     ecut=    30.00 Ry     beta= 0.70
     Davidson diagonalization with overlap

---- Real-time Memory Report at c_bands before calling an iterative solver
          1127 MiB given to the printing process from OS
             0 MiB allocation reported by mallinfo(arena+hblkhd)
        160740 MiB available memory on the node where the printing process lives
------------------
     ethr =  1.00E-02,  avg # of iterations =  5.0

     negative rho (up, down):  3.871E-03 0.000E+00

     total cpu time spent up to now is      297.9 secs

     total energy              =   -6470.46456896 Ry
     estimated scf accuracy    <     393.20131160 Ry

     iteration # 52     ecut=    30.00 Ry     beta= 0.70
     Davidson diagonalization with overlap

---- Real-time Memory Report at c_bands before calling an iterative solver
          1127 MiB given to the printing process from OS
             0 MiB allocation reported by mallinfo(arena+hblkhd)
        160737 MiB available memory on the node where the printing process lives
------------------
     ethr =  1.00E-02,  avg # of iterations =  4.0

     negative rho (up, down):  4.781E-03 0.000E+00

     total cpu time spent up to now is      302.4 secs

     total energy              =   -6471.71156220 Ry
     estimated scf accuracy    <     567.35629882 Ry

     iteration # 53     ecut=    30.00 Ry     beta= 0.70
     Davidson diagonalization with overlap

---- Real-time Memory Report at c_bands before calling an iterative solver
          1127 MiB given to the printing process from OS
             0 MiB allocation reported by mallinfo(arena+hblkhd)
        160738 MiB available memory on the node where the printing process lives
------------------
     ethr =  1.00E-02,  avg # of iterations =  4.0

     negative rho (up, down):  5.913E-03 0.000E+00

     total cpu time spent up to now is      306.8 secs

     total energy              =   -6476.84902237 Ry
     estimated scf accuracy    <     364.61424130 Ry

     iteration # 54     ecut=    30.00 Ry     beta= 0.70
     Davidson diagonalization with overlap

---- Real-time Memory Report at c_bands before calling an iterative solver
          1128 MiB given to the printing process from OS
             0 MiB allocation reported by mallinfo(arena+hblkhd)
        160739 MiB available memory on the node where the printing process lives
------------------
     ethr =  1.00E-02,  avg # of iterations =  4.0

     negative rho (up, down):  6.244E-03 0.000E+00

     total cpu time spent up to now is      311.3 secs

     total energy              =   -6485.49237317 Ry
     estimated scf accuracy    <     315.19972768 Ry

     iteration # 55     ecut=    30.00 Ry     beta= 0.70
     Davidson diagonalization with overlap

---- Real-time Memory Report at c_bands before calling an iterative solver
          1128 MiB given to the printing process from OS
             0 MiB allocation reported by mallinfo(arena+hblkhd)
        160740 MiB available memory on the node where the printing process lives
------------------
     ethr =  1.00E-02,  avg # of iterations =  4.0

     negative rho (up, down):  5.268E-03 0.000E+00

     total cpu time spent up to now is      316.9 secs

     total energy              =   -6489.85006960 Ry
     estimated scf accuracy    <     161.37701190 Ry

     iteration # 56     ecut=    30.00 Ry     beta= 0.70
     Davidson diagonalization with overlap

---- Real-time Memory Report at c_bands before calling an iterative solver
          1128 MiB given to the printing process from OS
             0 MiB allocation reported by mallinfo(arena+hblkhd)
        160727 MiB available memory on the node where the printing process lives
------------------
     ethr =  1.00E-02,  avg # of iterations =  5.0

     negative rho (up, down):  5.245E-03 0.000E+00

     total cpu time spent up to now is      321.5 secs

     total energy              =   -6483.67582224 Ry
     estimated scf accuracy    <     311.88386001 Ry

     iteration # 57     ecut=    30.00 Ry     beta= 0.70
     Davidson diagonalization with overlap

---- Real-time Memory Report at c_bands before calling an iterative solver
          1129 MiB given to the printing process from OS
             0 MiB allocation reported by mallinfo(arena+hblkhd)
        160731 MiB available memory on the node where the printing process lives
------------------
     ethr =  1.00E-02,  avg # of iterations =  4.0

     negative rho (up, down):  3.336E-03 0.000E+00

     total cpu time spent up to now is      326.3 secs

     total energy              =   -6479.77127099 Ry
     estimated scf accuracy    <     318.77719363 Ry

     iteration # 58     ecut=    30.00 Ry     beta= 0.70
     Davidson diagonalization with overlap

---- Real-time Memory Report at c_bands before calling an iterative solver
          1129 MiB given to the printing process from OS
             0 MiB allocation reported by mallinfo(arena+hblkhd)
        160754 MiB available memory on the node where the printing process lives
------------------
     ethr =  1.00E-02,  avg # of iterations =  5.0

     negative rho (up, down):  4.498E-03 0.000E+00

     total cpu time spent up to now is      331.0 secs

     total energy              =   -6477.55343017 Ry
     estimated scf accuracy    <     390.52707189 Ry

     iteration # 59     ecut=    30.00 Ry     beta= 0.70
     Davidson diagonalization with overlap

---- Real-time Memory Report at c_bands before calling an iterative solver
          1129 MiB given to the printing process from OS
             0 MiB allocation reported by mallinfo(arena+hblkhd)
        160755 MiB available memory on the node where the printing process lives
------------------
     ethr =  1.00E-02,  avg # of iterations =  5.0

     negative rho (up, down):  3.213E-03 0.000E+00

     total cpu time spent up to now is      335.7 secs

     total energy              =   -6478.14387380 Ry
     estimated scf accuracy    <     485.52466003 Ry

     iteration # 60     ecut=    30.00 Ry     beta= 0.70
     Davidson diagonalization with overlap

---- Real-time Memory Report at c_bands before calling an iterative solver
          1129 MiB given to the printing process from OS
             0 MiB allocation reported by mallinfo(arena+hblkhd)
        160757 MiB available memory on the node where the printing process lives
------------------
     ethr =  1.00E-02,  avg # of iterations =  5.0

     negative rho (up, down):  2.938E-03 0.000E+00

     total cpu time spent up to now is      340.4 secs

     total energy              =   -6476.66574750 Ry
     estimated scf accuracy    <     451.12388193 Ry

     iteration # 61     ecut=    30.00 Ry     beta= 0.70
     Davidson diagonalization with overlap

---- Real-time Memory Report at c_bands before calling an iterative solver
          1129 MiB given to the printing process from OS
             0 MiB allocation reported by mallinfo(arena+hblkhd)
        160758 MiB available memory on the node where the printing process lives
------------------
     ethr =  1.00E-02,  avg # of iterations =  6.0

     negative rho (up, down):  2.479E-03 0.000E+00

     total cpu time spent up to now is      345.0 secs

     total energy              =   -6473.43901647 Ry
     estimated scf accuracy    <     391.39442690 Ry

     iteration # 62     ecut=    30.00 Ry     beta= 0.70
     Davidson diagonalization with overlap

---- Real-time Memory Report at c_bands before calling an iterative solver
          1129 MiB given to the printing process from OS
             0 MiB allocation reported by mallinfo(arena+hblkhd)
        160760 MiB available memory on the node where the printing process lives
------------------
     ethr =  1.00E-02,  avg # of iterations =  5.0

     negative rho (up, down):  1.785E-03 0.000E+00

     total cpu time spent up to now is      349.5 secs

     total energy              =   -6482.60903837 Ry
     estimated scf accuracy    <     411.16666823 Ry

     iteration # 63     ecut=    30.00 Ry     beta= 0.70
     Davidson diagonalization with overlap

---- Real-time Memory Report at c_bands before calling an iterative solver
          1129 MiB given to the printing process from OS
             0 MiB allocation reported by mallinfo(arena+hblkhd)
        160739 MiB available memory on the node where the printing process lives
------------------
     ethr =  1.00E-02,  avg # of iterations =  4.0

     negative rho (up, down):  2.200E-03 0.000E+00

     total cpu time spent up to now is      353.8 secs

     total energy              =   -6480.85704773 Ry
     estimated scf accuracy    <     380.97699685 Ry

     iteration # 64     ecut=    30.00 Ry     beta= 0.70
     Davidson diagonalization with overlap

---- Real-time Memory Report at c_bands before calling an iterative solver
          1129 MiB given to the printing process from OS
             0 MiB allocation reported by mallinfo(arena+hblkhd)
        160739 MiB available memory on the node where the printing process lives
------------------
     ethr =  1.00E-02,  avg # of iterations =  4.0

     negative rho (up, down):  2.090E-03 0.000E+00

     total cpu time spent up to now is      358.2 secs

     total energy              =   -6485.00795242 Ry
     estimated scf accuracy    <     225.27996568 Ry

     iteration # 65     ecut=    30.00 Ry     beta= 0.70
     Davidson diagonalization with overlap

---- Real-time Memory Report at c_bands before calling an iterative solver
          1129 MiB given to the printing process from OS
             0 MiB allocation reported by mallinfo(arena+hblkhd)
        160738 MiB available memory on the node where the printing process lives
------------------
     ethr =  1.00E-02,  avg # of iterations =  5.0

     negative rho (up, down):  3.063E-03 0.000E+00

     total cpu time spent up to now is      362.6 secs

     total energy              =   -6477.78472050 Ry
     estimated scf accuracy    <     274.69314591 Ry

     iteration # 66     ecut=    30.00 Ry     beta= 0.70
     Davidson diagonalization with overlap

---- Real-time Memory Report at c_bands before calling an iterative solver
          1129 MiB given to the printing process from OS
             0 MiB allocation reported by mallinfo(arena+hblkhd)
        160738 MiB available memory on the node where the printing process lives
------------------
     ethr =  1.00E-02,  avg # of iterations =  5.0

     negative rho (up, down):  4.631E-03 0.000E+00

     total cpu time spent up to now is      367.2 secs

     total energy              =   -6478.12282706 Ry
     estimated scf accuracy    <     427.43869270 Ry

     iteration # 67     ecut=    30.00 Ry     beta= 0.70
     Davidson diagonalization with overlap

---- Real-time Memory Report at c_bands before calling an iterative solver
          1129 MiB given to the printing process from OS
             0 MiB allocation reported by mallinfo(arena+hblkhd)
        160740 MiB available memory on the node where the printing process lives
------------------
     ethr =  1.00E-02,  avg # of iterations =  5.0

     negative rho (up, down):  4.431E-03 0.000E+00

     total cpu time spent up to now is      371.9 secs

     total energy              =   -6480.01845943 Ry
     estimated scf accuracy    <     407.28363051 Ry

     iteration # 68     ecut=    30.00 Ry     beta= 0.70
     Davidson diagonalization with overlap

---- Real-time Memory Report at c_bands before calling an iterative solver
          1129 MiB given to the printing process from OS
             0 MiB allocation reported by mallinfo(arena+hblkhd)
        160739 MiB available memory on the node where the printing process lives
------------------
     ethr =  1.00E-02,  avg # of iterations =  4.0

     negative rho (up, down):  5.028E-03 0.000E+00

     total cpu time spent up to now is      376.3 secs

     total energy              =   -6483.01888162 Ry
     estimated scf accuracy    <     309.76786774 Ry

     iteration # 69     ecut=    30.00 Ry     beta= 0.70
     Davidson diagonalization with overlap

---- Real-time Memory Report at c_bands before calling an iterative solver
          1129 MiB given to the printing process from OS
             0 MiB allocation reported by mallinfo(arena+hblkhd)
        160740 MiB available memory on the node where the printing process lives
------------------
     ethr =  1.00E-02,  avg # of iterations =  4.0

     negative rho (up, down):  3.701E-03 0.000E+00

     total cpu time spent up to now is      380.7 secs

     total energy              =   -6480.69607733 Ry
     estimated scf accuracy    <     438.93594721 Ry

     iteration # 70     ecut=    30.00 Ry     beta= 0.70
     Davidson diagonalization with overlap

---- Real-time Memory Report at c_bands before calling an iterative solver
          1129 MiB given to the printing process from OS
             0 MiB allocation reported by mallinfo(arena+hblkhd)
        160762 MiB available memory on the node where the printing process lives
------------------
     ethr =  1.00E-02,  avg # of iterations =  5.0

     negative rho (up, down):  3.810E-03 0.000E+00

     total cpu time spent up to now is      385.2 secs

     total energy              =   -6478.46629495 Ry
     estimated scf accuracy    <     377.44487719 Ry

     iteration # 71     ecut=    30.00 Ry     beta= 0.70
     Davidson diagonalization with overlap

---- Real-time Memory Report at c_bands before calling an iterative solver
          1129 MiB given to the printing process from OS
             0 MiB allocation reported by mallinfo(arena+hblkhd)
        160759 MiB available memory on the node where the printing process lives
------------------
     ethr =  1.00E-02,  avg # of iterations =  6.0

     negative rho (up, down):  2.861E-03 0.000E+00

     total cpu time spent up to now is      389.9 secs

     total energy              =   -6471.92368835 Ry
     estimated scf accuracy    <     462.29215519 Ry

     iteration # 72     ecut=    30.00 Ry     beta= 0.70
     Davidson diagonalization with overlap

---- Real-time Memory Report at c_bands before calling an iterative solver
          1129 MiB given to the printing process from OS
             0 MiB allocation reported by mallinfo(arena+hblkhd)
        160759 MiB available memory on the node where the printing process lives
------------------
     ethr =  1.00E-02,  avg # of iterations =  5.0

     negative rho (up, down):  1.984E-03 0.000E+00

     total cpu time spent up to now is      394.5 secs

     total energy              =   -6481.63595520 Ry
     estimated scf accuracy    <     368.76471269 Ry

     iteration # 73     ecut=    30.00 Ry     beta= 0.70
     Davidson diagonalization with overlap

---- Real-time Memory Report at c_bands before calling an iterative solver
          1129 MiB given to the printing process from OS
             0 MiB allocation reported by mallinfo(arena+hblkhd)
        160761 MiB available memory on the node where the printing process lives
------------------
     ethr =  1.00E-02,  avg # of iterations =  4.0

     negative rho (up, down):  3.051E-03 0.000E+00

     total cpu time spent up to now is      399.0 secs

     total energy              =   -6475.88661581 Ry
     estimated scf accuracy    <     434.59496071 Ry

     iteration # 74     ecut=    30.00 Ry     beta= 0.70
     Davidson diagonalization with overlap

---- Real-time Memory Report at c_bands before calling an iterative solver
          1129 MiB given to the printing process from OS
             0 MiB allocation reported by mallinfo(arena+hblkhd)
        160760 MiB available memory on the node where the printing process lives
------------------
     ethr =  1.00E-02,  avg # of iterations =  5.0

     negative rho (up, down):  3.566E-03 0.000E+00

     total cpu time spent up to now is      403.7 secs

     total energy              =   -6478.51156734 Ry
     estimated scf accuracy    <     332.94416714 Ry

     iteration # 75     ecut=    30.00 Ry     beta= 0.70
     Davidson diagonalization with overlap

---- Real-time Memory Report at c_bands before calling an iterative solver
          1129 MiB given to the printing process from OS
             0 MiB allocation reported by mallinfo(arena+hblkhd)
        160733 MiB available memory on the node where the printing process lives
------------------
     ethr =  1.00E-02,  avg # of iterations =  5.0

     negative rho (up, down):  3.605E-03 0.000E+00

     total cpu time spent up to now is      410.0 secs

     total energy              =   -6476.25444725 Ry
     estimated scf accuracy    <     422.31385137 Ry

     iteration # 76     ecut=    30.00 Ry     beta= 0.70
     Davidson diagonalization with overlap

---- Real-time Memory Report at c_bands before calling an iterative solver
          1130 MiB given to the printing process from OS
             0 MiB allocation reported by mallinfo(arena+hblkhd)
        160727 MiB available memory on the node where the printing process lives
------------------
     ethr =  1.00E-02,  avg # of iterations =  4.0

     negative rho (up, down):  4.205E-03 0.000E+00

     total cpu time spent up to now is      414.5 secs

     total energy              =   -6481.80012953 Ry
     estimated scf accuracy    <     387.36709116 Ry

     iteration # 77     ecut=    30.00 Ry     beta= 0.70
     Davidson diagonalization with overlap

---- Real-time Memory Report at c_bands before calling an iterative solver
          1130 MiB given to the printing process from OS
             0 MiB allocation reported by mallinfo(arena+hblkhd)
        160728 MiB available memory on the node where the printing process lives
------------------
     ethr =  1.00E-02,  avg # of iterations =  4.0

     negative rho (up, down):  2.655E-03 0.000E+00

     total cpu time spent up to now is      418.9 secs

     total energy              =   -6483.68875840 Ry
     estimated scf accuracy    <     358.55928391 Ry

     iteration # 78     ecut=    30.00 Ry     beta= 0.70
     Davidson diagonalization with overlap

---- Real-time Memory Report at c_bands before calling an iterative solver
          1130 MiB given to the printing process from OS
             0 MiB allocation reported by mallinfo(arena+hblkhd)
        160730 MiB available memory on the node where the printing process lives
------------------
     ethr =  1.00E-02,  avg # of iterations =  4.0

     negative rho (up, down):  3.808E-03 0.000E+00

     total cpu time spent up to now is      423.3 secs

     total energy              =   -6483.15867296 Ry
     estimated scf accuracy    <     328.59619816 Ry

     iteration # 79     ecut=    30.00 Ry     beta= 0.70
     Davidson diagonalization with overlap

---- Real-time Memory Report at c_bands before calling an iterative solver
          1130 MiB given to the printing process from OS
             0 MiB allocation reported by mallinfo(arena+hblkhd)
        160731 MiB available memory on the node where the printing process lives
------------------
     ethr =  1.00E-02,  avg # of iterations =  4.0

     negative rho (up, down):  3.122E-03 0.000E+00

     total cpu time spent up to now is      427.5 secs

     total energy              =   -6478.78704000 Ry
     estimated scf accuracy    <     392.96806117 Ry

     iteration # 80     ecut=    30.00 Ry     beta= 0.70
     Davidson diagonalization with overlap

---- Real-time Memory Report at c_bands before calling an iterative solver
          1130 MiB given to the printing process from OS
             0 MiB allocation reported by mallinfo(arena+hblkhd)
        160735 MiB available memory on the node where the printing process lives
------------------
     ethr =  1.00E-02,  avg # of iterations =  5.0

     negative rho (up, down):  3.555E-03 0.000E+00

     total cpu time spent up to now is      432.1 secs

     total energy              =   -6475.79857241 Ry
     estimated scf accuracy    <     385.30646523 Ry

     iteration # 81     ecut=    30.00 Ry     beta= 0.70
     Davidson diagonalization with overlap

---- Real-time Memory Report at c_bands before calling an iterative solver
          1130 MiB given to the printing process from OS
             0 MiB allocation reported by mallinfo(arena+hblkhd)
        160736 MiB available memory on the node where the printing process lives
------------------
     ethr =  1.00E-02,  avg # of iterations =  5.0

     negative rho (up, down):  2.332E-03 0.000E+00

     total cpu time spent up to now is      436.7 secs

     total energy              =   -6471.48000589 Ry
     estimated scf accuracy    <     440.77020851 Ry

     iteration # 82     ecut=    30.00 Ry     beta= 0.70
     Davidson diagonalization with overlap

---- Real-time Memory Report at c_bands before calling an iterative solver
          1130 MiB given to the printing process from OS
             0 MiB allocation reported by mallinfo(arena+hblkhd)
        160760 MiB available memory on the node where the printing process lives
------------------
     ethr =  1.00E-02,  avg # of iterations =  6.0

     negative rho (up, down):  1.605E-03 0.000E+00

     total cpu time spent up to now is      441.4 secs

     total energy              =   -6477.55524121 Ry
     estimated scf accuracy    <     402.24369221 Ry

     iteration # 83     ecut=    30.00 Ry     beta= 0.70
     Davidson diagonalization with overlap

---- Real-time Memory Report at c_bands before calling an iterative solver
          1130 MiB given to the printing process from OS
             0 MiB allocation reported by mallinfo(arena+hblkhd)
        160761 MiB available memory on the node where the printing process lives
------------------
     ethr =  1.00E-02,  avg # of iterations =  4.0

     negative rho (up, down):  3.173E-03 0.000E+00

     total cpu time spent up to now is      445.8 secs

     total energy              =   -6477.02231955 Ry
     estimated scf accuracy    <     419.28709519 Ry

     iteration # 84     ecut=    30.00 Ry     beta= 0.70
     Davidson diagonalization with overlap

---- Real-time Memory Report at c_bands before calling an iterative solver
          1130 MiB given to the printing process from OS
             0 MiB allocation reported by mallinfo(arena+hblkhd)
        160762 MiB available memory on the node where the printing process lives
------------------
     ethr =  1.00E-02,  avg # of iterations =  5.0

     negative rho (up, down):  3.976E-03 0.000E+00

     total cpu time spent up to now is      450.4 secs

     total energy              =   -6481.30124409 Ry
     estimated scf accuracy    <     352.22270985 Ry

     iteration # 85     ecut=    30.00 Ry     beta= 0.70
     Davidson diagonalization with overlap

---- Real-time Memory Report at c_bands before calling an iterative solver
          1130 MiB given to the printing process from OS
             0 MiB allocation reported by mallinfo(arena+hblkhd)
        160760 MiB available memory on the node where the printing process lives
------------------
     ethr =  1.00E-02,  avg # of iterations =  4.0

     negative rho (up, down):  3.858E-03 0.000E+00

     total cpu time spent up to now is      454.9 secs

     total energy              =   -6478.38132821 Ry
     estimated scf accuracy    <     412.58364424 Ry

     iteration # 86     ecut=    30.00 Ry     beta= 0.70
     Davidson diagonalization with overlap

---- Real-time Memory Report at c_bands before calling an iterative solver
          1130 MiB given to the printing process from OS
             0 MiB allocation reported by mallinfo(arena+hblkhd)
        160739 MiB available memory on the node where the printing process lives
------------------
     ethr =  1.00E-02,  avg # of iterations =  5.0

     negative rho (up, down):  4.168E-03 0.000E+00

     total cpu time spent up to now is      459.3 secs

     total energy              =   -6482.26772192 Ry
     estimated scf accuracy    <     398.55604196 Ry

     iteration # 87     ecut=    30.00 Ry     beta= 0.70
     Davidson diagonalization with overlap

---- Real-time Memory Report at c_bands before calling an iterative solver
          1130 MiB given to the printing process from OS
             0 MiB allocation reported by mallinfo(arena+hblkhd)
        160738 MiB available memory on the node where the printing process lives
------------------
     ethr =  1.00E-02,  avg # of iterations =  4.0

     negative rho (up, down):  2.504E-03 0.000E+00

     total cpu time spent up to now is      463.7 secs

     total energy              =   -6484.46247453 Ry
     estimated scf accuracy    <     366.14995578 Ry

     iteration # 88     ecut=    30.00 Ry     beta= 0.70
     Davidson diagonalization with overlap

---- Real-time Memory Report at c_bands before calling an iterative solver
          1130 MiB given to the printing process from OS
             0 MiB allocation reported by mallinfo(arena+hblkhd)
        160737 MiB available memory on the node where the printing process lives
------------------
     ethr =  1.00E-02,  avg # of iterations =  4.0

     negative rho (up, down):  3.476E-03 0.000E+00

     total cpu time spent up to now is      468.0 secs

     total energy              =   -6482.77307513 Ry
     estimated scf accuracy    <     322.88382415 Ry

     iteration # 89     ecut=    30.00 Ry     beta= 0.70
     Davidson diagonalization with overlap

---- Real-time Memory Report at c_bands before calling an iterative solver
          1130 MiB given to the printing process from OS
             0 MiB allocation reported by mallinfo(arena+hblkhd)
        160738 MiB available memory on the node where the printing process lives
------------------
     ethr =  1.00E-02,  avg # of iterations =  4.0

     negative rho (up, down):  3.114E-03 0.000E+00

     total cpu time spent up to now is      472.3 secs

     total energy              =   -6476.42041473 Ry
     estimated scf accuracy    <     399.16680188 Ry

     iteration # 90     ecut=    30.00 Ry     beta= 0.70
     Davidson diagonalization with overlap

---- Real-time Memory Report at c_bands before calling an iterative solver
          1130 MiB given to the printing process from OS
             0 MiB allocation reported by mallinfo(arena+hblkhd)
        160739 MiB available memory on the node where the printing process lives
------------------
     ethr =  1.00E-02,  avg # of iterations =  5.0

     negative rho (up, down):  3.387E-03 0.000E+00

     total cpu time spent up to now is      476.9 secs

     total energy              =   -6474.64922415 Ry
     estimated scf accuracy    <     393.32402020 Ry

     iteration # 91     ecut=    30.00 Ry     beta= 0.70
     Davidson diagonalization with overlap

---- Real-time Memory Report at c_bands before calling an iterative solver
          1130 MiB given to the printing process from OS
             0 MiB allocation reported by mallinfo(arena+hblkhd)
        160736 MiB available memory on the node where the printing process lives
------------------
     ethr =  1.00E-02,  avg # of iterations =  6.0

     negative rho (up, down):  2.279E-03 0.000E+00

     total cpu time spent up to now is      481.6 secs

     total energy              =   -6471.41545912 Ry
     estimated scf accuracy    <     442.27364102 Ry

     iteration # 92     ecut=    30.00 Ry     beta= 0.70
     Davidson diagonalization with overlap

---- Real-time Memory Report at c_bands before calling an iterative solver
          1130 MiB given to the printing process from OS
             0 MiB allocation reported by mallinfo(arena+hblkhd)
        160762 MiB available memory on the node where the printing process lives
------------------
     ethr =  1.00E-02,  avg # of iterations =  5.0

     negative rho (up, down):  1.634E-03 0.000E+00

     total cpu time spent up to now is      486.1 secs

     total energy              =   -6477.63394027 Ry
     estimated scf accuracy    <     393.03665771 Ry

     iteration # 93     ecut=    30.00 Ry     beta= 0.70
     Davidson diagonalization with overlap

---- Real-time Memory Report at c_bands before calling an iterative solver
          1130 MiB given to the printing process from OS
             0 MiB allocation reported by mallinfo(arena+hblkhd)
        160762 MiB available memory on the node where the printing process lives
------------------
     ethr =  1.00E-02,  avg # of iterations =  4.0

     negative rho (up, down):  3.227E-03 0.000E+00

     total cpu time spent up to now is      490.5 secs

     total energy              =   -6478.69617654 Ry
     estimated scf accuracy    <     394.29066240 Ry

     iteration # 94     ecut=    30.00 Ry     beta= 0.70
     Davidson diagonalization with overlap

---- Real-time Memory Report at c_bands before calling an iterative solver
          1130 MiB given to the printing process from OS
             0 MiB allocation reported by mallinfo(arena+hblkhd)
        160762 MiB available memory on the node where the printing process lives
------------------
     ethr =  1.00E-02,  avg # of iterations =  5.0

     negative rho (up, down):  4.040E-03 0.000E+00

     total cpu time spent up to now is      495.6 secs

     total energy              =   -6483.28735713 Ry
     estimated scf accuracy    <     341.95071523 Ry

     iteration # 95     ecut=    30.00 Ry     beta= 0.70
     Davidson diagonalization with overlap

---- Real-time Memory Report at c_bands before calling an iterative solver
          1130 MiB given to the printing process from OS
             0 MiB allocation reported by mallinfo(arena+hblkhd)
        160752 MiB available memory on the node where the printing process lives
------------------
     ethr =  1.00E-02,  avg # of iterations =  4.0

     negative rho (up, down):  3.994E-03 0.000E+00

     total cpu time spent up to now is      499.9 secs

     total energy              =   -6478.31869744 Ry
     estimated scf accuracy    <     404.19008792 Ry

     iteration # 96     ecut=    30.00 Ry     beta= 0.70
     Davidson diagonalization with overlap

---- Real-time Memory Report at c_bands before calling an iterative solver
          1130 MiB given to the printing process from OS
             0 MiB allocation reported by mallinfo(arena+hblkhd)
        160756 MiB available memory on the node where the printing process lives
------------------
     ethr =  1.00E-02,  avg # of iterations =  5.0

     negative rho (up, down):  4.337E-03 0.000E+00

     total cpu time spent up to now is      504.4 secs

     total energy              =   -6482.29692616 Ry
     estimated scf accuracy    <     414.09530200 Ry

     iteration # 97     ecut=    30.00 Ry     beta= 0.70
     Davidson diagonalization with overlap

---- Real-time Memory Report at c_bands before calling an iterative solver
          1130 MiB given to the printing process from OS
             0 MiB allocation reported by mallinfo(arena+hblkhd)
        160735 MiB available memory on the node where the printing process lives
------------------
     ethr =  1.00E-02,  avg # of iterations =  4.0

     negative rho (up, down):  2.759E-03 0.000E+00

     total cpu time spent up to now is      508.8 secs

     total energy              =   -6485.23155429 Ry
     estimated scf accuracy    <     375.68530613 Ry

     iteration # 98     ecut=    30.00 Ry     beta= 0.70
     Davidson diagonalization with overlap

---- Real-time Memory Report at c_bands before calling an iterative solver
          1130 MiB given to the printing process from OS
             0 MiB allocation reported by mallinfo(arena+hblkhd)
        160738 MiB available memory on the node where the printing process lives
------------------
     ethr =  1.00E-02,  avg # of iterations =  4.0

     negative rho (up, down):  3.576E-03 0.000E+00

     total cpu time spent up to now is      514.9 secs

     total energy              =   -6482.14764742 Ry
     estimated scf accuracy    <     315.94023905 Ry

     iteration # 99     ecut=    30.00 Ry     beta= 0.70
     Davidson diagonalization with overlap

---- Real-time Memory Report at c_bands before calling an iterative solver
          1130 MiB given to the printing process from OS
             0 MiB allocation reported by mallinfo(arena+hblkhd)
        160745 MiB available memory on the node where the printing process lives
------------------
     ethr =  1.00E-02,  avg # of iterations =  3.0

     negative rho (up, down):  3.382E-03 0.000E+00

     total cpu time spent up to now is      519.5 secs

     total energy              =   -6475.56317907 Ry
     estimated scf accuracy    <     420.39292402 Ry

     iteration #100     ecut=    30.00 Ry     beta= 0.70
     Davidson diagonalization with overlap

---- Real-time Memory Report at c_bands before calling an iterative solver
          1130 MiB given to the printing process from OS
             0 MiB allocation reported by mallinfo(arena+hblkhd)
        160745 MiB available memory on the node where the printing process lives
------------------
     ethr =  1.00E-02,  avg # of iterations =  5.0

     negative rho (up, down):  3.487E-03 0.000E+00

     total cpu time spent up to now is      524.1 secs

     total energy              =   -6475.04148393 Ry
     estimated scf accuracy    <     398.84923024 Ry

     End of self-consistent calculation

     convergence NOT achieved after 100 iterations: stopping

     Writing config to output data dir new_calculations/myprefix.save/
     Message from routine punch:
     wavefunctions written to file
 
     init_run     :    497.40s CPU     24.03s WALL (       1 calls)
     electrons    :  14797.92s CPU    500.02s WALL (       1 calls)

     Called by init_run:
     wfcinit      :    272.63s CPU     10.16s WALL (       1 calls)
     wfcinit:atom :      0.12s CPU      0.01s WALL (       1 calls)
     wfcinit:wfcr :    271.55s CPU     10.10s WALL (       1 calls)
     potinit      :    110.08s CPU      5.46s WALL (       1 calls)
     hinit0       :     95.01s CPU      7.38s WALL (       1 calls)

     Called by electrons:
     c_bands      :   7521.73s CPU    243.56s WALL (     100 calls)
     sum_band     :   1863.50s CPU     75.43s WALL (     100 calls)
     v_of_rho     :     99.62s CPU      3.37s WALL (     101 calls)
     v_h          :      7.16s CPU      0.24s WALL (     101 calls)
     v_xc         :     92.19s CPU      3.12s WALL (     101 calls)
     newd         :    819.32s CPU     28.04s WALL (     101 calls)
     PAW_pot      :   4489.50s CPU    150.42s WALL (     101 calls)
     mix_rho      :     33.30s CPU      1.10s WALL (     100 calls)

     Called by c_bands:
     init_us_2    :      4.46s CPU      0.15s WALL (     201 calls)
     init_us_2:cp :      4.15s CPU      0.14s WALL (     201 calls)
     regterg      :   7486.79s CPU    242.41s WALL (     100 calls)

     Called by sum_band:
     sum_band:wei :      0.35s CPU      0.01s WALL (     100 calls)
     sum_band:loo :   1131.58s CPU     36.34s WALL (     100 calls)
     sum_band:buf :      0.07s CPU      0.00s WALL (     100 calls)
     sum_band:ini :      2.29s CPU      0.08s WALL (     100 calls)
     sum_band:cal :      3.84s CPU      0.13s WALL (     100 calls)
     sum_band:bec :      1.69s CPU      0.05s WALL (     100 calls)
     addusdens    :    718.26s CPU     38.64s WALL (     100 calls)
     addusd:skk   :      6.78s CPU      0.36s WALL (     300 calls)
     addusd:dgemm :     65.12s CPU     16.91s WALL (     300 calls)
     addusd:qvan2 :    623.83s CPU     20.32s WALL (     300 calls)

     Called by *egterg:
     rdiaghg      :    480.82s CPU     16.00s WALL (     477 calls)
     regterg:over :     18.64s CPU      0.61s WALL (     377 calls)
     regterg:upda :     18.41s CPU      0.60s WALL (     377 calls)
     regterg:last :     47.11s CPU      1.55s WALL (     242 calls)
     h_psi        :   7113.45s CPU    231.08s WALL (     478 calls)
     s_psi        :      7.50s CPU      0.24s WALL (     478 calls)
     g_psi        :      0.93s CPU      0.03s WALL (     377 calls)

     Called by h_psi:
     h_psi:calbec :     14.04s CPU      0.46s WALL (     478 calls)
     vloc_psi     :   7083.61s CPU    230.10s WALL (     478 calls)
     add_vuspsi   :      9.63s CPU      0.31s WALL (     478 calls)

     General routines
     calbec       :     16.94s CPU      0.56s WALL (     578 calls)
     fft          :     92.24s CPU      5.00s WALL (    1111 calls)
     ffts         :     63.62s CPU      3.02s WALL (     201 calls)
     fftw         :   7634.61s CPU    247.30s WALL (   61082 calls)
     interpolate  :     74.52s CPU      3.39s WALL (     101 calls)
     davcio       :      0.00s CPU      0.25s WALL (      19 calls)
 
     Parallel routines

     PAW routines
     PAW_pot      :   4489.50s CPU    150.42s WALL (     101 calls)
     PAW_symme    :      2.80s CPU      0.09s WALL (     201 calls)
 
     PWSCF        :      4h14m CPU   8m51.98s WALL

 
   This run was terminated on:   6:11:24  21May2023            

=------------------------------------------------------------------------------=
   JOB DONE.
=------------------------------------------------------------------------------=
