
     Program PWSCF v.7.0 starts on 21May2023 at  5: 3:39 

     This program is part of the open-source Quantum ESPRESSO suite
     for quantum simulation of materials; please cite
         "P. Giannozzi et al., J. Phys.:Condens. Matter 21 395502 (2009);
         "P. Giannozzi et al., J. Phys.:Condens. Matter 29 465901 (2017);
         "P. Giannozzi et al., J. Chem. Phys. 152 154105 (2020);
          URL http://www.quantum-espresso.org", 
     in publications or presentations arising from this work. More details at
     http://www.quantum-espresso.org/quote

     Parallel version (MPI & OpenMP), running on      32 processor cores
     Number of MPI processes:                 1
     Threads/MPI process:                    32

     MPI processes distributed on     1 nodes
     130482 MiB available memory on the printing compute node when the environment starts
 
     Reading input from espresso_19751.pwi
Warning: card &CELL ignored
Warning: card / ignored

     Current dimensions of program PWSCF are:
     Max number of different atomic species (ntypx) = 10
     Max number of k-points (npk) =  40000
     Max angular momentum in pseudopotentials (lmaxx) =  4

     gamma-point specific algorithms are used
     Message from routine setup:
     using ibrav=0 with symmetry is DISCOURAGED, use correct ibrav instead

     Subspace diagonalization in iterative solution of the eigenvalue problem:
     a serial algorithm will be used

 
     G-vector sticks info
     --------------------
     sticks:   dense  smooth     PW     G-vecs:    dense   smooth      PW
     Sum        1237     613    151                28571    10081    1243
 
     Using Slab Decomposition
 


     bravais-lattice index     =            0
     lattice parameter (alat)  =       8.6320  a.u.
     unit-cell volume          =     454.7987 (a.u.)^3
     number of atoms/cell      =            6
     number of atomic types    =            3
     number of electrons       =        41.00
     number of Kohn-Sham states=           25
     kinetic-energy cutoff     =      30.0000  Ry
     charge density cutoff     =     240.0000  Ry
     scf convergence threshold =      1.0E-06
     mixing beta               =       0.7000
     number of iterations used =            8  plain     mixing
     Exchange-correlation=  SLA  PW   PBX  PBC
                           (   1   4   3   4   0   0   0)

     celldm(1)=   8.632000  celldm(2)=   0.000000  celldm(3)=   0.000000
     celldm(4)=   0.000000  celldm(5)=   0.000000  celldm(6)=   0.000000

     crystal axes: (cart. coord. in units of alat)
               a(1) = (   1.000000   0.000000   0.000000 )  
               a(2) = (   0.500000   0.866025   0.000000 )  
               a(3) = (   0.500000   0.288675   0.816497 )  

     reciprocal axes: (cart. coord. in units 2 pi/alat)
               b(1) = (  1.000000 -0.577350 -0.408248 )  
               b(2) = (  0.000000  1.154701 -0.408248 )  
               b(3) = (  0.000000  0.000000  1.224745 )  


     PseudoPot. # 1 for Ta read from file:
     /home/pragov/projects/rrg-bengioy-ad/pragov/crystal_structure_design/SSSP/Ta_pbe_v1.uspp.F.UPF
     MD5 check sum: f8bbe9446314a3b8ea5d9f3e3836c939
     Pseudo is Ultrasoft + core correction, Zval = 13.0
     Generated by new atomic code, or converted to UPF format
     Using radial grid of  921 points,  7 beta functions with: 
                l(1) =   0
                l(2) =   0
                l(3) =   1
                l(4) =   1
                l(5) =   2
                l(6) =   2
                l(7) =   3
     Q(r) pseudized with  6 coefficients,  rinner =    1.300   1.300   1.300
                                                       1.300   1.300   1.300
                                                       1.300

     PseudoPot. # 2 for Ti read from file:
     /home/pragov/projects/rrg-bengioy-ad/pragov/crystal_structure_design/SSSP/ti_pbe_v1.4.uspp.F.UPF
     MD5 check sum: 88a00a6731bd790ddea75d31a80cb452
     Pseudo is Ultrasoft + core correction, Zval = 12.0
     Generated by new atomic code, or converted to UPF format
     Using radial grid of  851 points,  6 beta functions with: 
                l(1) =   0
                l(2) =   0
                l(3) =   1
                l(4) =   1
                l(5) =   2
                l(6) =   2
     Q(r) pseudized with  6 coefficients,  rinner =    1.000   1.000   1.000
                                                       1.000   1.000

     PseudoPot. # 3 for Be read from file:
     /home/pragov/projects/rrg-bengioy-ad/pragov/crystal_structure_design/SSSP/be_pbe_v1.4.uspp.F.UPF
     MD5 check sum: 5ecff1440924c7c98ad504bef30f5264
     Pseudo is Ultrasoft, Zval =  4.0
     Generated by new atomic code, or converted to UPF format
     Using radial grid of  769 points,  6 beta functions with: 
                l(1) =   0
                l(2) =   0
                l(3) =   0
                l(4) =   1
                l(5) =   1
                l(6) =   2
     Q(r) pseudized with 10 coefficients,  rinner =    1.000   1.000   1.000
                                                       1.000   1.000

     atomic species   valence    mass     pseudopotential
        Ta            13.00   180.94788     Ta( 1.00)
        Ti            12.00    47.86700     Ti( 1.00)
        Be             4.00     9.01218     Be( 1.00)

      6 Sym. Ops. (no inversion) found


                                    s                        frac. trans.

      isym =  1     identity                                     

 cryst.   s( 1) = (     1          0          0      )
                  (     0          1          0      )
                  (     0          0          1      )

 cart.    s( 1) = (  1.0000000  0.0000000  0.0000000 )
                  (  0.0000000  1.0000000  0.0000000 )
                  (  0.0000000  0.0000000  1.0000000 )


      isym =  2     120 deg rotation - cryst. axis [0,0,1]       

 cryst.   s( 2) = (    -1          1          0      )
                  (    -1          0          0      )
                  (    -1          0          1      )

 cart.    s( 2) = ( -0.5000000 -0.8660254 -0.0000000 )
                  (  0.8660254 -0.5000000 -0.0000000 )
                  (  0.0000000  0.0000000  1.0000000 )


      isym =  3     120 deg rotation - cryst. axis [0,0,-1]      

 cryst.   s( 3) = (     0         -1          0      )
                  (     1         -1          0      )
                  (     0         -1          1      )

 cart.    s( 3) = ( -0.5000000  0.8660254  0.0000000 )
                  ( -0.8660254 -0.5000000 -0.0000000 )
                  (  0.0000000  0.0000000  1.0000000 )


      isym =  4     inv. 180 deg rotation - cart. axis [1,0,0]   

 cryst.   s( 4) = (    -1          0          0      )
                  (    -1          1          0      )
                  (    -1          0          1      )

 cart.    s( 4) = ( -1.0000000  0.0000000  0.0000000 )
                  (  0.0000000  1.0000000  0.0000000 )
                  (  0.0000000  0.0000000  1.0000000 )


      isym =  5     inv. 180 deg rotation - cryst. axis [0,1,0]  

 cryst.   s( 5) = (     0          1          0      )
                  (     1          0          0      )
                  (     0          0          1      )

 cart.    s( 5) = (  0.5000000  0.8660254  0.0000000 )
                  (  0.8660254 -0.5000000 -0.0000000 )
                  (  0.0000000  0.0000000  1.0000000 )


      isym =  6     inv. 180 deg rotation - cryst. axis [1,1,0]  

 cryst.   s( 6) = (     1         -1          0      )
                  (     0         -1          0      )
                  (     0         -1          1      )

 cart.    s( 6) = (  0.5000000 -0.8660254 -0.0000000 )
                  ( -0.8660254 -0.5000000 -0.0000000 )
                  (  0.0000000  0.0000000  1.0000000 )


   Cartesian axes

     site n.     atom                  positions (alat units)
         1           Ta  tau(   1) = (   0.5000000   0.2886751   0.2041241  )
         2           Ti  tau(   2) = (   0.0000000   0.0000000   0.0000000  )
         3           Be  tau(   3) = (   1.0000005   0.5773506   0.1024156  )
         4           Be  tau(   4) = (   1.0000005   0.2890086   0.5101928  )
         5           Be  tau(   5) = (   0.7502890   0.7215216   0.5101928  )
         6           Be  tau(   6) = (   1.2497120   0.7215216   0.5101928  )

   Crystallographic axes

     site n.     atom                  positions (cryst. coord.)
         1           Ta  tau(   1) = (  0.2500000  0.2500000  0.2500000  )
         2           Ti  tau(   2) = (  0.0000000  0.0000000  0.0000000  )
         3           Be  tau(   3) = (  0.6248560  0.6248560  0.1254330  )
         4           Be  tau(   4) = (  0.6248560  0.1254330  0.6248560  )
         5           Be  tau(   5) = (  0.1254330  0.6248560  0.6248560  )
         6           Be  tau(   6) = (  0.6248560  0.6248560  0.6248560  )

     number of k points=     1  Methfessel-Paxton smearing, width (Ry)=  0.0010
                       cart. coord. in units 2pi/alat
        k(    1) = (   0.0000000   0.0000000   0.0000000), wk =   2.0000000

                       cryst. coord.
        k(    1) = (   0.0000000   0.0000000   0.0000000), wk =   2.0000000

     Dense  grid:    14286 G-vectors     FFT dimensions: (  45,  45,  45)

     Smooth grid:     5041 G-vectors     FFT dimensions: (  32,  32,  32)

     Dynamical RAM for                 wfc:       0.24 MB

     Dynamical RAM for     wfc (w. buffer):       0.24 MB

     Dynamical RAM for           str. fact:       0.65 MB

     Dynamical RAM for           local pot:       0.00 MB

     Dynamical RAM for          nlocal pot:       0.95 MB

     Dynamical RAM for                qrad:       6.97 MB

     Dynamical RAM for          rho,v,vnew:       2.74 MB

     Dynamical RAM for               rhoin:       0.91 MB

     Dynamical RAM for            rho*nmix:       3.49 MB

     Dynamical RAM for           G-vectors:       0.86 MB

     Dynamical RAM for          h,s,v(r/c):       0.06 MB

     Dynamical RAM for          <psi|beta>:       0.02 MB

     Dynamical RAM for                 psi:       0.48 MB

     Dynamical RAM for                hpsi:       0.48 MB

     Dynamical RAM for                spsi:       0.48 MB

     Dynamical RAM for      wfcinit/wfcrot:       0.87 MB

     Dynamical RAM for           addusdens:      77.60 MB

     Dynamical RAM for          addusforce:      79.05 MB

     Dynamical RAM for         addusstress:      82.62 MB

     Estimated static dynamical RAM per process >      17.67 MB

     Estimated max dynamical RAM per process >     103.78 MB

     Check: negative core charge=   -0.000004

     Initial potential from superposition of free atoms

     starting charge      39.9982, renormalised to      41.0000

     negative rho (up, down):  9.827E-02 0.000E+00
     Starting wfcs are   43 randomized atomic wfcs

     total cpu time spent up to now is        2.3 secs

     Self-consistent Calculation

     iteration #  1     ecut=    30.00 Ry     beta= 0.70
     Davidson diagonalization with overlap

---- Real-time Memory Report at c_bands before calling an iterative solver
           393 MiB given to the printing process from OS
             0 MiB allocation reported by mallinfo(arena+hblkhd)
        130290 MiB available memory on the node where the printing process lives
------------------
     ethr =  1.00E-02,  avg # of iterations =  2.0

     negative rho (up, down):  9.543E-02 0.000E+00

     total cpu time spent up to now is        2.5 secs

     total energy              =    -373.49818074 Ry
     estimated scf accuracy    <       1.12919335 Ry

     iteration #  2     ecut=    30.00 Ry     beta= 0.70
     Davidson diagonalization with overlap

---- Real-time Memory Report at c_bands before calling an iterative solver
           466 MiB given to the printing process from OS
             0 MiB allocation reported by mallinfo(arena+hblkhd)
        130261 MiB available memory on the node where the printing process lives
------------------
     ethr =  2.75E-03,  avg # of iterations =  5.0

     negative rho (up, down):  9.639E-02 0.000E+00

     total cpu time spent up to now is        2.7 secs

     total energy              =    -373.40840149 Ry
     estimated scf accuracy    <       5.94326200 Ry

     iteration #  3     ecut=    30.00 Ry     beta= 0.70
     Davidson diagonalization with overlap

---- Real-time Memory Report at c_bands before calling an iterative solver
           466 MiB given to the printing process from OS
             0 MiB allocation reported by mallinfo(arena+hblkhd)
        130261 MiB available memory on the node where the printing process lives
------------------
     ethr =  2.75E-03,  avg # of iterations =  4.0

     negative rho (up, down):  9.632E-02 0.000E+00

     total cpu time spent up to now is        2.8 secs

     total energy              =    -374.20105624 Ry
     estimated scf accuracy    <       0.14524679 Ry

     iteration #  4     ecut=    30.00 Ry     beta= 0.70
     Davidson diagonalization with overlap

---- Real-time Memory Report at c_bands before calling an iterative solver
           467 MiB given to the printing process from OS
             0 MiB allocation reported by mallinfo(arena+hblkhd)
        130262 MiB available memory on the node where the printing process lives
------------------
     ethr =  3.54E-04,  avg # of iterations =  1.0

     negative rho (up, down):  9.628E-02 0.000E+00

     total cpu time spent up to now is        3.0 secs

     total energy              =    -374.19658630 Ry
     estimated scf accuracy    <       0.08269352 Ry

     iteration #  5     ecut=    30.00 Ry     beta= 0.70
     Davidson diagonalization with overlap

---- Real-time Memory Report at c_bands before calling an iterative solver
           467 MiB given to the printing process from OS
             0 MiB allocation reported by mallinfo(arena+hblkhd)
        130262 MiB available memory on the node where the printing process lives
------------------
     ethr =  2.02E-04,  avg # of iterations =  2.0

     negative rho (up, down):  9.610E-02 0.000E+00

     total cpu time spent up to now is        3.1 secs

     total energy              =    -374.18908758 Ry
     estimated scf accuracy    <       0.08620780 Ry

     iteration #  6     ecut=    30.00 Ry     beta= 0.70
     Davidson diagonalization with overlap

---- Real-time Memory Report at c_bands before calling an iterative solver
           467 MiB given to the printing process from OS
             0 MiB allocation reported by mallinfo(arena+hblkhd)
        130262 MiB available memory on the node where the printing process lives
------------------
     ethr =  2.02E-04,  avg # of iterations =  2.0

     negative rho (up, down):  9.594E-02 0.000E+00

     total cpu time spent up to now is        3.3 secs

     total energy              =    -374.19301096 Ry
     estimated scf accuracy    <       0.06194847 Ry

     iteration #  7     ecut=    30.00 Ry     beta= 0.70
     Davidson diagonalization with overlap

---- Real-time Memory Report at c_bands before calling an iterative solver
           467 MiB given to the printing process from OS
             0 MiB allocation reported by mallinfo(arena+hblkhd)
        130262 MiB available memory on the node where the printing process lives
------------------
     ethr =  1.51E-04,  avg # of iterations =  1.0

     negative rho (up, down):  9.593E-02 0.000E+00

     total cpu time spent up to now is        3.4 secs

     total energy              =    -374.19295563 Ry
     estimated scf accuracy    <       0.05044286 Ry

     iteration #  8     ecut=    30.00 Ry     beta= 0.70
     Davidson diagonalization with overlap

---- Real-time Memory Report at c_bands before calling an iterative solver
           467 MiB given to the printing process from OS
             0 MiB allocation reported by mallinfo(arena+hblkhd)
        130262 MiB available memory on the node where the printing process lives
------------------
     ethr =  1.23E-04,  avg # of iterations =  1.0

     negative rho (up, down):  9.587E-02 0.000E+00

     total cpu time spent up to now is        3.5 secs

     total energy              =    -374.19364535 Ry
     estimated scf accuracy    <       0.03632339 Ry

     iteration #  9     ecut=    30.00 Ry     beta= 0.70
     Davidson diagonalization with overlap

---- Real-time Memory Report at c_bands before calling an iterative solver
           467 MiB given to the printing process from OS
             0 MiB allocation reported by mallinfo(arena+hblkhd)
        130263 MiB available memory on the node where the printing process lives
------------------
     ethr =  8.86E-05,  avg # of iterations =  1.0

     negative rho (up, down):  9.587E-02 0.000E+00

     total cpu time spent up to now is        3.7 secs

     total energy              =    -374.19392400 Ry
     estimated scf accuracy    <       0.02537083 Ry

     iteration # 10     ecut=    30.00 Ry     beta= 0.70
     Davidson diagonalization with overlap

---- Real-time Memory Report at c_bands before calling an iterative solver
           467 MiB given to the printing process from OS
             0 MiB allocation reported by mallinfo(arena+hblkhd)
        130263 MiB available memory on the node where the printing process lives
------------------
     ethr =  6.19E-05,  avg # of iterations =  1.0

     negative rho (up, down):  9.587E-02 0.000E+00

     total cpu time spent up to now is        3.8 secs

     total energy              =    -374.19403292 Ry
     estimated scf accuracy    <       0.00549360 Ry

     iteration # 11     ecut=    30.00 Ry     beta= 0.70
     Davidson diagonalization with overlap

---- Real-time Memory Report at c_bands before calling an iterative solver
           467 MiB given to the printing process from OS
             0 MiB allocation reported by mallinfo(arena+hblkhd)
        130262 MiB available memory on the node where the printing process lives
------------------
     ethr =  1.34E-05,  avg # of iterations =  1.0

     negative rho (up, down):  9.587E-02 0.000E+00

     total cpu time spent up to now is        4.0 secs

     total energy              =    -374.19414485 Ry
     estimated scf accuracy    <       0.00189138 Ry

     iteration # 12     ecut=    30.00 Ry     beta= 0.70
     Davidson diagonalization with overlap

---- Real-time Memory Report at c_bands before calling an iterative solver
           467 MiB given to the printing process from OS
             0 MiB allocation reported by mallinfo(arena+hblkhd)
        130260 MiB available memory on the node where the printing process lives
------------------
     ethr =  4.61E-06,  avg # of iterations =  1.0

     negative rho (up, down):  9.587E-02 0.000E+00

     total cpu time spent up to now is        4.1 secs

     total energy              =    -374.19409292 Ry
     estimated scf accuracy    <       0.00650488 Ry

     iteration # 13     ecut=    30.00 Ry     beta= 0.70
     Davidson diagonalization with overlap

---- Real-time Memory Report at c_bands before calling an iterative solver
           467 MiB given to the printing process from OS
             0 MiB allocation reported by mallinfo(arena+hblkhd)
        130260 MiB available memory on the node where the printing process lives
------------------
     ethr =  4.61E-06,  avg # of iterations =  1.0

     negative rho (up, down):  9.587E-02 0.000E+00

     total cpu time spent up to now is        4.3 secs

     total energy              =    -374.19416499 Ry
     estimated scf accuracy    <       0.00111627 Ry

     iteration # 14     ecut=    30.00 Ry     beta= 0.70
     Davidson diagonalization with overlap

---- Real-time Memory Report at c_bands before calling an iterative solver
           467 MiB given to the printing process from OS
             0 MiB allocation reported by mallinfo(arena+hblkhd)
        130260 MiB available memory on the node where the printing process lives
------------------
     ethr =  2.72E-06,  avg # of iterations =  1.0

     negative rho (up, down):  9.588E-02 0.000E+00

     total cpu time spent up to now is        4.4 secs

     total energy              =    -374.19418719 Ry
     estimated scf accuracy    <       0.00098908 Ry

     iteration # 15     ecut=    30.00 Ry     beta= 0.70
     Davidson diagonalization with overlap

---- Real-time Memory Report at c_bands before calling an iterative solver
           467 MiB given to the printing process from OS
             0 MiB allocation reported by mallinfo(arena+hblkhd)
        130261 MiB available memory on the node where the printing process lives
------------------
     ethr =  2.41E-06,  avg # of iterations =  1.0

     negative rho (up, down):  9.588E-02 0.000E+00

     total cpu time spent up to now is        4.6 secs

     total energy              =    -374.19420831 Ry
     estimated scf accuracy    <       0.00003557 Ry

     iteration # 16     ecut=    30.00 Ry     beta= 0.70
     Davidson diagonalization with overlap

---- Real-time Memory Report at c_bands before calling an iterative solver
           469 MiB given to the printing process from OS
             0 MiB allocation reported by mallinfo(arena+hblkhd)
        130260 MiB available memory on the node where the printing process lives
------------------
     ethr =  8.68E-08,  avg # of iterations =  1.0

     negative rho (up, down):  9.588E-02 0.000E+00

     total cpu time spent up to now is        4.7 secs

     total energy              =    -374.19420835 Ry
     estimated scf accuracy    <       0.00002287 Ry

     iteration # 17     ecut=    30.00 Ry     beta= 0.70
     Davidson diagonalization with overlap

---- Real-time Memory Report at c_bands before calling an iterative solver
           469 MiB given to the printing process from OS
             0 MiB allocation reported by mallinfo(arena+hblkhd)
        130261 MiB available memory on the node where the printing process lives
------------------
     ethr =  5.58E-08,  avg # of iterations =  1.0

     negative rho (up, down):  9.588E-02 0.000E+00

     total cpu time spent up to now is        4.9 secs

     total energy              =    -374.19420875 Ry
     estimated scf accuracy    <       0.00000342 Ry

     iteration # 18     ecut=    30.00 Ry     beta= 0.70
     Davidson diagonalization with overlap

---- Real-time Memory Report at c_bands before calling an iterative solver
           469 MiB given to the printing process from OS
             0 MiB allocation reported by mallinfo(arena+hblkhd)
        130261 MiB available memory on the node where the printing process lives
------------------
     ethr =  8.35E-09,  avg # of iterations =  1.0

     negative rho (up, down):  9.588E-02 0.000E+00

     total cpu time spent up to now is        5.0 secs

     End of self-consistent calculation

          k = 0.0000 0.0000 0.0000 (   622 PWs)   bands (ev):

   -86.5882 -86.5511 -86.5510 -86.5510 -55.2611 -44.4519 -21.8013 -21.8013
   -21.8013 -20.7257 -20.7256 -20.7256   3.2621   9.4482   9.4483   9.7443
     9.7443   9.7443   9.7631  10.9441  10.9441  10.9441  15.3210  15.3211
    16.5831

     occupation numbers 
     1.0000   1.0000   1.0000   1.0000   1.0000   1.0000   1.0000   1.0000
     1.0000   1.0000   1.0000   1.0000   1.0000   1.0000   1.0000   1.0000
     1.0000   1.0000   1.0000   0.5013   0.4995   0.4992  -0.0000  -0.0000
    -0.0000

     the Fermi energy is    10.9441 ev

!    total energy              =    -374.19420872 Ry
     estimated scf accuracy    <       0.00000024 Ry
     smearing contrib. (-TS)   =      -0.00084628 Ry
     internal energy E=F+TS    =    -374.19336244 Ry

     The total energy is F=E-TS. E is the sum of the following terms:
     one-electron contribution =    -128.89781254 Ry
     hartree contribution      =      61.24645047 Ry
     xc contribution           =     -80.64559702 Ry
     ewald contribution        =    -225.89640336 Ry

     convergence has been achieved in  18 iterations

     negative rho (up, down):  9.588E-02 0.000E+00

     Forces acting on atoms (cartesian axes, Ry/au):

     atom    1 type  1   force =     0.00000000    0.00000000    0.00016002
     atom    2 type  2   force =     0.00000000    0.00000000   -0.00008660
     atom    3 type  3   force =    -0.00000000   -0.00000000    0.01917279
     atom    4 type  3   force =     0.00000000    0.01808573   -0.00641540
     atom    5 type  3   force =     0.01566270   -0.00904286   -0.00641540
     atom    6 type  3   force =    -0.01566270   -0.00904286   -0.00641540
     The non-local contrib.  to forces
     atom    1 type  1   force =     0.00000000    0.00000000    0.00028855
     atom    2 type  2   force =     0.00000000    0.00000000    0.00011836
     atom    3 type  3   force =     0.00000000    0.00000000   -0.04051945
     atom    4 type  3   force =     0.00000000   -0.03816559    0.01340118
     atom    5 type  3   force =    -0.03305237    0.01908280    0.01340118
     atom    6 type  3   force =     0.03305237    0.01908280    0.01340118
     The ionic contribution  to forces
     atom    1 type  1   force =     0.00001654    0.00000955    0.00000675
     atom    2 type  2   force =     0.00001526    0.00000881    0.00000623
     atom    3 type  3   force =    -0.00001435   -0.00000829   -0.08563160
     atom    4 type  3   force =    -0.00001435   -0.08073701    0.02853605
     atom    5 type  3   force =    -0.06992747    0.04035607    0.02853605
     atom    6 type  3   force =     0.06992438    0.04037086    0.02854651
     The local contribution  to forces
     atom    1 type  1   force =    -0.00031364    0.00062047   -0.00067038
     atom    2 type  2   force =    -0.00006717    0.00014583   -0.00014216
     atom    3 type  3   force =     0.00002345    0.00004597    0.14522885
     atom    4 type  3   force =     0.00015252    0.13703073   -0.04814232
     atom    5 type  3   force =     0.11846587   -0.06866476   -0.04837005
     atom    6 type  3   force =    -0.11842165   -0.06880677   -0.04831216
     The core correction contribution to forces
     atom    1 type  1   force =     0.00003099   -0.00006397    0.00006747
     atom    2 type  2   force =    -0.00001212    0.00002540   -0.00002966
     atom    3 type  3   force =     0.00000000    0.00000000    0.00000000
     atom    4 type  3   force =     0.00000000    0.00000000    0.00000000
     atom    5 type  3   force =     0.00000000    0.00000000    0.00000000
     atom    6 type  3   force =     0.00000000    0.00000000    0.00000000
     The Hubbard contrib.    to forces
     atom    1 type  1   force =     0.00000000    0.00000000    0.00000000
     atom    2 type  2   force =     0.00000000    0.00000000    0.00000000
     atom    3 type  3   force =     0.00000000    0.00000000    0.00000000
     atom    4 type  3   force =     0.00000000    0.00000000    0.00000000
     atom    5 type  3   force =     0.00000000    0.00000000    0.00000000
     atom    6 type  3   force =     0.00000000    0.00000000    0.00000000
     The SCF correction term to forces
     atom    1 type  1   force =     0.00019718   -0.00044170    0.00044461
     atom    2 type  2   force =    -0.00003622    0.00000935   -0.00006240
     atom    3 type  3   force =    -0.00001906   -0.00001114    0.00007196
     atom    4 type  3   force =    -0.00009027   -0.00003340   -0.00018096
     atom    5 type  3   force =     0.00013150    0.00012249   -0.00005096
     atom    6 type  3   force =    -0.00016124    0.00021260   -0.00008098

     Total force =     0.038372     Total SCF correction =     0.000773


     Computing stress (Cartesian axis) and pressure


     negative rho (up, down):  9.588E-02 0.000E+00
          total   stress  (Ry/bohr**3)                   (kbar)     P=     -311.50
  -0.00211782   0.00000000  -0.00000000         -311.54        0.00       -0.00
   0.00000000  -0.00211782  -0.00000000            0.00     -311.54       -0.00
   0.00000000  -0.00000000  -0.00211693            0.00       -0.00     -311.41

     kinetic stress (kbar)  17416.93     -0.00     -0.00
                               -0.00  17416.93      0.00
                               -0.00      0.00  17415.91

     local   stress (kbar)  11627.58     -0.31     -0.37
                               -0.31  11626.52      0.88
                               -0.37      0.88  11628.89

     nonloc. stress (kbar)  -5263.83      0.00      0.00
                                0.00  -5263.83     -0.00
                                0.00     -0.00  -5263.81

     hartree stress (kbar)   6603.42      0.13      0.14
                                0.13   6603.87     -0.32
                                0.14     -0.32   6602.93

     exc-cor stress (kbar)   4185.13      0.00      0.00
                                0.00   4185.14     -0.01
                                0.00     -0.01   4185.12

     corecor stress (kbar) -10525.00     -0.01     -0.01
                               -0.01 -10525.02      0.02
                               -0.01      0.02 -10524.97

     ewald   stress (kbar) -24355.47     -0.00     -0.00
                               -0.00 -24355.47     -0.00
                               -0.00     -0.00 -24355.47

     hubbard stress (kbar)      0.00      0.00      0.00
                                0.00      0.00      0.00
                                0.00      0.00      0.00

     DFT-D   stress (kbar)      0.00      0.00      0.00
                                0.00      0.00      0.00
                                0.00      0.00      0.00

     XDM     stress (kbar)      0.00      0.00      0.00
                                0.00      0.00      0.00
                                0.00      0.00      0.00

     dft-nl  stress (kbar)      0.00      0.00      0.00
                                0.00      0.00      0.00
                                0.00      0.00      0.00

     TS-vdW  stress (kbar)      0.00      0.00      0.00
                                0.00      0.00      0.00
                                0.00      0.00      0.00


                                0.00      0.00      0.00
                                0.00      0.00      0.00


                                0.00      0.00      0.00


     Writing all to output data dir new_calculations/myprefix.save/
 
     init_run     :     44.70s CPU      2.07s WALL (       1 calls)
     electrons    :     80.76s CPU      2.71s WALL (       1 calls)
     forces       :      6.19s CPU      0.21s WALL (       1 calls)
     stress       :     12.18s CPU      0.42s WALL (       1 calls)

     Called by init_run:
     wfcinit      :      7.81s CPU      0.26s WALL (       1 calls)
     wfcinit:atom :      0.01s CPU      0.00s WALL (       1 calls)
     wfcinit:wfcr :      7.72s CPU      0.25s WALL (       1 calls)
     potinit      :      9.00s CPU      0.30s WALL (       1 calls)
     hinit0       :     26.22s CPU      1.45s WALL (       1 calls)

     Called by electrons:
     c_bands      :     13.85s CPU      0.45s WALL (      18 calls)
     sum_band     :     30.67s CPU      1.07s WALL (      18 calls)
     v_of_rho     :      5.35s CPU      0.18s WALL (      19 calls)
     v_h          :      0.50s CPU      0.02s WALL (      19 calls)
     v_xc         :      5.35s CPU      0.18s WALL (      21 calls)
     newd         :     29.76s CPU      0.98s WALL (      19 calls)
     mix_rho      :      1.28s CPU      0.04s WALL (      18 calls)

     Called by c_bands:
     init_us_2    :      0.38s CPU      0.01s WALL (      37 calls)
     init_us_2:cp :      0.33s CPU      0.01s WALL (      37 calls)
     regterg      :     12.54s CPU      0.41s WALL (      18 calls)

     Called by sum_band:
     sum_band:wei :      0.05s CPU      0.00s WALL (      18 calls)
     sum_band:loo :      2.59s CPU      0.08s WALL (      18 calls)
     sum_band:buf :      0.01s CPU      0.00s WALL (      18 calls)
     sum_band:ini :      0.20s CPU      0.01s WALL (      18 calls)
     sum_band:cal :      0.07s CPU      0.00s WALL (      18 calls)
     sum_band:bec :      0.04s CPU      0.00s WALL (      18 calls)
     addusdens    :     27.20s CPU      0.96s WALL (      18 calls)
     addusd:skk   :      0.08s CPU      0.00s WALL (      54 calls)
     addusd:dgemm :      2.88s CPU      0.18s WALL (      54 calls)
     addusd:qvan2 :     23.26s CPU      0.74s WALL (      54 calls)

     Called by *egterg:
     rdiaghg      :      1.09s CPU      0.04s WALL (      46 calls)
     regterg:over :      0.08s CPU      0.00s WALL (      28 calls)
     regterg:upda :      0.11s CPU      0.00s WALL (      28 calls)
     regterg:last :      0.12s CPU      0.00s WALL (      24 calls)
     h_psi        :     18.11s CPU      0.59s WALL (      47 calls)
     s_psi        :      0.06s CPU      0.00s WALL (      47 calls)
     g_psi        :      0.02s CPU      0.00s WALL (      28 calls)

     Called by h_psi:
     h_psi:calbec :      0.20s CPU      0.01s WALL (      47 calls)
     vloc_psi     :     17.59s CPU      0.58s WALL (      47 calls)
     add_vuspsi   :      0.11s CPU      0.00s WALL (      47 calls)

     General routines
     calbec       :      2.22s CPU      0.08s WALL (      70 calls)
     fft          :     14.84s CPU      0.48s WALL (     227 calls)
     ffts         :      8.55s CPU      0.28s WALL (      37 calls)
     fftw         :     15.05s CPU      0.49s WALL (    1294 calls)
     interpolate  :      8.93s CPU      0.29s WALL (      19 calls)
 
     Parallel routines
 
     PWSCF        :   2m30.59s CPU      6.28s WALL

 
   This run was terminated on:   5: 3:45  21May2023            

=------------------------------------------------------------------------------=
   JOB DONE.
=------------------------------------------------------------------------------=
