
     Program PWSCF v.7.0 starts on 21May2023 at  1: 8:27 

     This program is part of the open-source Quantum ESPRESSO suite
     for quantum simulation of materials; please cite
         "P. Giannozzi et al., J. Phys.:Condens. Matter 21 395502 (2009);
         "P. Giannozzi et al., J. Phys.:Condens. Matter 29 465901 (2017);
         "P. Giannozzi et al., J. Chem. Phys. 152 154105 (2020);
          URL http://www.quantum-espresso.org", 
     in publications or presentations arising from this work. More details at
     http://www.quantum-espresso.org/quote

     Parallel version (MPI & OpenMP), running on      32 processor cores
     Number of MPI processes:                 1
     Threads/MPI process:                    32

     MPI processes distributed on     1 nodes
     42316 MiB available memory on the printing compute node when the environment starts
 
     Reading input from espresso_16739.pwi
Warning: card &CELL ignored
Warning: card / ignored

     Current dimensions of program PWSCF are:
     Max number of different atomic species (ntypx) = 10
     Max number of k-points (npk) =  40000
     Max angular momentum in pseudopotentials (lmaxx) =  4
     file Al.pbe-n-kjpaw_psl.1.0.0.UPF: wavefunction(s)  3S 3P renormalized

     gamma-point specific algorithms are used
     Message from routine setup:
     using ibrav=0 with symmetry is DISCOURAGED, use correct ibrav instead

     Subspace diagonalization in iterative solution of the eigenvalue problem:
     a serial algorithm will be used

 
     G-vector sticks info
     --------------------
     sticks:   dense  smooth     PW     G-vecs:    dense   smooth      PW
     Sum        1759     869    215                48259    17053    2117
 
     Using Slab Decomposition
 


     bravais-lattice index     =            0
     lattice parameter (alat)  =      10.2354  a.u.
     unit-cell volume          =     768.8450 (a.u.)^3
     number of atoms/cell      =            6
     number of atomic types    =            3
     number of electrons       =        60.00
     number of Kohn-Sham states=           36
     kinetic-energy cutoff     =      30.0000  Ry
     charge density cutoff     =     240.0000  Ry
     scf convergence threshold =      1.0E-06
     mixing beta               =       0.7000
     number of iterations used =            8  plain     mixing
     Exchange-correlation= SLA  PW   PBX  PBC
                           (   1   4   3   4   0   0   0)

     celldm(1)=  10.235414  celldm(2)=   0.000000  celldm(3)=   0.000000
     celldm(4)=   0.000000  celldm(5)=   0.000000  celldm(6)=   0.000000

     crystal axes: (cart. coord. in units of alat)
               a(1) = (   1.000000   0.000000   0.000000 )  
               a(2) = (  -0.517776   0.876048   0.000000 )  
               a(3) = (   0.511330   0.302215   0.818455 )  

     reciprocal axes: (cart. coord. in units 2 pi/alat)
               b(1) = (  1.000000  0.591036 -0.842991 )  
               b(2) = (  0.000000  1.141490 -0.421496 )  
               b(3) = (  0.000000  0.000000  1.221815 )  


     PseudoPot. # 1 for Ce read from file:
     /home/pragov/projects/rrg-bengioy-ad/pragov/crystal_structure_design/SSSP/Ce.GGA-PBE-paw-v1.0.UPF
     MD5 check sum: f2b950f613061344c13339c8d844425d
     Pseudo is Projector augmented-wave + core cor, Zval = 12.0
     Generated using ATOMPAW code
     Shape of augmentation charge: BESSEL
     Using radial grid of 1102 points,  8 beta functions with: 
                l(1) =   0
                l(2) =   0
                l(3) =   1
                l(4) =   1
                l(5) =   2
                l(6) =   2
                l(7) =   3
                l(8) =   3
     Q(r) pseudized with 0 coefficients 


     PseudoPot. # 2 for Mn read from file:
     /home/pragov/projects/rrg-bengioy-ad/pragov/crystal_structure_design/SSSP/mn_pbe_v1.5.uspp.F.UPF
     MD5 check sum: 82ef2b46521d7a7d9e736dc3972e4928
     Pseudo is Ultrasoft + core correction, Zval = 15.0
     Generated by new atomic code, or converted to UPF format
     Using radial grid of  859 points,  6 beta functions with: 
                l(1) =   0
                l(2) =   0
                l(3) =   1
                l(4) =   1
                l(5) =   2
                l(6) =   2
     Q(r) pseudized with  8 coefficients,  rinner =    0.950   0.950   0.950
                                                       0.950   0.950

     PseudoPot. # 3 for Al read from file:
     /home/pragov/projects/rrg-bengioy-ad/pragov/crystal_structure_design/SSSP/Al.pbe-n-kjpaw_psl.1.0.0.UPF
     MD5 check sum: cfc449ca30b5f3223ec38ddd88ac046d
     Pseudo is Projector augmented-wave + core cor, Zval =  3.0
     Generated using "atomic" code by A. Dal Corso  v.5.1
     Shape of augmentation charge: PSQ
     Using radial grid of 1135 points,  6 beta functions with: 
                l(1) =   0
                l(2) =   0
                l(3) =   1
                l(4) =   1
                l(5) =   2
                l(6) =   2
     Q(r) pseudized with 0 coefficients 


     atomic species   valence    mass     pseudopotential
        Ce            12.00   140.11600     Ce( 1.00)
        Mn            15.00    54.93804     Mn( 1.00)
        Al             3.00    26.98154     Al( 1.00)

      2 Sym. Ops., with inversion, found


                                    s                        frac. trans.

      isym =  1     identity                                     

 cryst.   s( 1) = (     1          0          0      )
                  (     0          1          0      )
                  (     0          0          1      )

 cart.    s( 1) = (  1.0000000 -0.0000000  0.0000000 )
                  (  0.0000000  1.0000000  0.0000000 )
                  (  0.0000000  0.0000000  1.0000000 )


      isym =  2     inversion                                    

 cryst.   s( 2) = (    -1          0          0      )
                  (     0         -1          0      )
                  (     0          0         -1      )

 cart.    s( 2) = ( -1.0000000  0.0000000 -0.0000000 )
                  (  0.0000000 -1.0000000 -0.0000000 )
                  (  0.0000000  0.0000000 -1.0000000 )


   Cartesian axes

     site n.     atom                  positions (alat units)
         1           Ce  tau(   1) = (   0.2355038   0.1391912   0.1138479  )
         2           Ce  tau(   2) = (   0.7580508   1.0390714   0.7046070  )
         3           Mn  tau(   3) = (   0.7556652   0.1511074   0.4092274  )
         4           Mn  tau(   4) = (   0.4967773   0.5891313   0.4092274  )
         5           Al  tau(   5) = (  -0.2588879   0.4380239   0.0000000  )
         6           Al  tau(   6) = (  -0.0032227   0.5891313   0.4092274  )

   Crystallographic axes

     site n.     atom                  positions (cryst. coord.)
         1           Ce  tau(   1) = (  0.2217980  0.1108990  0.1391010  )
         2           Ce  tau(   2) = (  0.7782020  0.8891010  0.8608990  )
         3           Mn  tau(   3) = (  0.5000000 -0.0000000  0.5000000  )
         4           Mn  tau(   4) = (  0.5000000  0.5000000  0.5000000  )
         5           Al  tau(   5) = ( -0.0000000  0.5000000  0.0000000  )
         6           Al  tau(   6) = ( -0.0000000  0.5000000  0.5000000  )

     number of k points=     1  Methfessel-Paxton smearing, width (Ry)=  0.0010
                       cart. coord. in units 2pi/alat
        k(    1) = (   0.0000000   0.0000000   0.0000000), wk =   2.0000000

                       cryst. coord.
        k(    1) = (   0.0000000   0.0000000   0.0000000), wk =   2.0000000

     Dense  grid:    24130 G-vectors     FFT dimensions: (  54,  54,  54)

     Smooth grid:     8527 G-vectors     FFT dimensions: (  36,  40,  40)

     Dynamical RAM for                 wfc:       0.59 MB

     Dynamical RAM for     wfc (w. buffer):       0.59 MB

     Dynamical RAM for           str. fact:       1.10 MB

     Dynamical RAM for           local pot:       0.00 MB

     Dynamical RAM for          nlocal pot:       2.21 MB

     Dynamical RAM for                qrad:       8.96 MB

     Dynamical RAM for          rho,v,vnew:       4.71 MB

     Dynamical RAM for               rhoin:       1.57 MB

     Dynamical RAM for            rho*nmix:       5.89 MB

     Dynamical RAM for           G-vectors:       1.45 MB

     Dynamical RAM for          h,s,v(r/c):       0.12 MB

     Dynamical RAM for          <psi|beta>:       0.04 MB

     Dynamical RAM for                 psi:       1.17 MB

     Dynamical RAM for                hpsi:       1.17 MB

     Dynamical RAM for                spsi:       1.17 MB

     Dynamical RAM for      wfcinit/wfcrot:       3.41 MB

     Dynamical RAM for           addusdens:     205.08 MB

     Dynamical RAM for          addusforce:     206.03 MB

     Dynamical RAM for         addusstress:     214.29 MB

     Estimated static dynamical RAM per process >      28.07 MB

     Estimated max dynamical RAM per process >     248.25 MB

     Check: negative core charge=   -0.000013

     Initial potential from superposition of free atoms

     starting charge      58.9813, renormalised to      60.0000
     Starting wfcs are   98 randomized atomic wfcs
     Checking if some PAW data can be deallocated... 

     total cpu time spent up to now is        7.4 secs

     Self-consistent Calculation

     iteration #  1     ecut=    30.00 Ry     beta= 0.70
     Davidson diagonalization with overlap

---- Real-time Memory Report at c_bands before calling an iterative solver
           515 MiB given to the printing process from OS
             0 MiB allocation reported by mallinfo(arena+hblkhd)
         42085 MiB available memory on the node where the printing process lives
------------------
     ethr =  1.00E-02,  avg # of iterations =  2.0

     total cpu time spent up to now is        8.9 secs

     total energy              =   -1462.42016024 Ry
     estimated scf accuracy    <       4.15240490 Ry

     iteration #  2     ecut=    30.00 Ry     beta= 0.70
     Davidson diagonalization with overlap

---- Real-time Memory Report at c_bands before calling an iterative solver
           618 MiB given to the printing process from OS
             0 MiB allocation reported by mallinfo(arena+hblkhd)
         41983 MiB available memory on the node where the printing process lives
------------------
     ethr =  6.92E-03,  avg # of iterations =  8.0

     total cpu time spent up to now is       10.7 secs

     total energy              =   -1461.15139094 Ry
     estimated scf accuracy    <      57.15807852 Ry

     iteration #  3     ecut=    30.00 Ry     beta= 0.70
     Davidson diagonalization with overlap

---- Real-time Memory Report at c_bands before calling an iterative solver
           625 MiB given to the printing process from OS
             0 MiB allocation reported by mallinfo(arena+hblkhd)
         41980 MiB available memory on the node where the printing process lives
------------------
     ethr =  6.92E-03,  avg # of iterations =  9.0

     total cpu time spent up to now is       12.2 secs

     total energy              =   -1463.80246839 Ry
     estimated scf accuracy    <      35.57215770 Ry

     iteration #  4     ecut=    30.00 Ry     beta= 0.70
     Davidson diagonalization with overlap

---- Real-time Memory Report at c_bands before calling an iterative solver
           625 MiB given to the printing process from OS
             0 MiB allocation reported by mallinfo(arena+hblkhd)
         41978 MiB available memory on the node where the printing process lives
------------------
     ethr =  6.92E-03,  avg # of iterations =  2.0

     total cpu time spent up to now is       13.6 secs

     total energy              =   -1465.05523744 Ry
     estimated scf accuracy    <       3.76976292 Ry

     iteration #  5     ecut=    30.00 Ry     beta= 0.70
     Davidson diagonalization with overlap

---- Real-time Memory Report at c_bands before calling an iterative solver
           628 MiB given to the printing process from OS
             0 MiB allocation reported by mallinfo(arena+hblkhd)
         41979 MiB available memory on the node where the printing process lives
------------------
     ethr =  6.28E-03,  avg # of iterations =  1.0

     total cpu time spent up to now is       15.0 secs

     total energy              =   -1464.97956251 Ry
     estimated scf accuracy    <       2.47686586 Ry

     iteration #  6     ecut=    30.00 Ry     beta= 0.70
     Davidson diagonalization with overlap

---- Real-time Memory Report at c_bands before calling an iterative solver
           628 MiB given to the printing process from OS
             0 MiB allocation reported by mallinfo(arena+hblkhd)
         41972 MiB available memory on the node where the printing process lives
------------------
     ethr =  4.13E-03,  avg # of iterations =  4.0

     total cpu time spent up to now is       16.4 secs

     total energy              =   -1465.26202561 Ry
     estimated scf accuracy    <       3.20565577 Ry

     iteration #  7     ecut=    30.00 Ry     beta= 0.70
     Davidson diagonalization with overlap

---- Real-time Memory Report at c_bands before calling an iterative solver
           628 MiB given to the printing process from OS
             0 MiB allocation reported by mallinfo(arena+hblkhd)
         41974 MiB available memory on the node where the printing process lives
------------------
     ethr =  4.13E-03,  avg # of iterations =  1.0

     total cpu time spent up to now is       17.9 secs

     total energy              =   -1465.30815920 Ry
     estimated scf accuracy    <       2.26529245 Ry

     iteration #  8     ecut=    30.00 Ry     beta= 0.70
     Davidson diagonalization with overlap

---- Real-time Memory Report at c_bands before calling an iterative solver
           629 MiB given to the printing process from OS
             0 MiB allocation reported by mallinfo(arena+hblkhd)
         41968 MiB available memory on the node where the printing process lives
------------------
     ethr =  3.78E-03,  avg # of iterations =  1.0

     total cpu time spent up to now is       19.3 secs

     total energy              =   -1465.32846241 Ry
     estimated scf accuracy    <       2.27737163 Ry

     iteration #  9     ecut=    30.00 Ry     beta= 0.70
     Davidson diagonalization with overlap

---- Real-time Memory Report at c_bands before calling an iterative solver
           629 MiB given to the printing process from OS
             0 MiB allocation reported by mallinfo(arena+hblkhd)
         41973 MiB available memory on the node where the printing process lives
------------------
     ethr =  3.78E-03,  avg # of iterations =  1.0

     total cpu time spent up to now is       20.7 secs

     total energy              =   -1465.22925965 Ry
     estimated scf accuracy    <       2.29793850 Ry

     iteration # 10     ecut=    30.00 Ry     beta= 0.70
     Davidson diagonalization with overlap

---- Real-time Memory Report at c_bands before calling an iterative solver
           629 MiB given to the printing process from OS
             0 MiB allocation reported by mallinfo(arena+hblkhd)
         41970 MiB available memory on the node where the printing process lives
------------------
     ethr =  3.78E-03,  avg # of iterations =  1.0

     total cpu time spent up to now is       22.1 secs

     total energy              =   -1465.24301132 Ry
     estimated scf accuracy    <       2.19197282 Ry

     iteration # 11     ecut=    30.00 Ry     beta= 0.70
     Davidson diagonalization with overlap

---- Real-time Memory Report at c_bands before calling an iterative solver
           629 MiB given to the printing process from OS
             0 MiB allocation reported by mallinfo(arena+hblkhd)
         41966 MiB available memory on the node where the printing process lives
------------------
     ethr =  3.65E-03,  avg # of iterations =  1.0

     total cpu time spent up to now is       23.4 secs

     total energy              =   -1465.20499153 Ry
     estimated scf accuracy    <       1.78292068 Ry

     iteration # 12     ecut=    30.00 Ry     beta= 0.70
     Davidson diagonalization with overlap

---- Real-time Memory Report at c_bands before calling an iterative solver
           629 MiB given to the printing process from OS
             0 MiB allocation reported by mallinfo(arena+hblkhd)
         41969 MiB available memory on the node where the printing process lives
------------------
     ethr =  2.97E-03,  avg # of iterations =  1.0

     total cpu time spent up to now is       24.8 secs

     total energy              =   -1464.97645417 Ry
     estimated scf accuracy    <       1.62795527 Ry

     iteration # 13     ecut=    30.00 Ry     beta= 0.70
     Davidson diagonalization with overlap

---- Real-time Memory Report at c_bands before calling an iterative solver
           629 MiB given to the printing process from OS
             0 MiB allocation reported by mallinfo(arena+hblkhd)
         41964 MiB available memory on the node where the printing process lives
------------------
     ethr =  2.71E-03,  avg # of iterations =  2.0

     total cpu time spent up to now is       26.2 secs

     total energy              =   -1464.91346411 Ry
     estimated scf accuracy    <      15.30060077 Ry

     iteration # 14     ecut=    30.00 Ry     beta= 0.70
     Davidson diagonalization with overlap

---- Real-time Memory Report at c_bands before calling an iterative solver
           629 MiB given to the printing process from OS
             0 MiB allocation reported by mallinfo(arena+hblkhd)
         41968 MiB available memory on the node where the printing process lives
------------------
     ethr =  2.71E-03,  avg # of iterations =  8.0

     total cpu time spent up to now is       27.7 secs

     total energy              =   -1465.28258333 Ry
     estimated scf accuracy    <       3.29631084 Ry

     iteration # 15     ecut=    30.00 Ry     beta= 0.70
     Davidson diagonalization with overlap

---- Real-time Memory Report at c_bands before calling an iterative solver
           629 MiB given to the printing process from OS
             0 MiB allocation reported by mallinfo(arena+hblkhd)
         41969 MiB available memory on the node where the printing process lives
------------------
     ethr =  2.71E-03,  avg # of iterations = 11.0

     total cpu time spent up to now is       29.3 secs

     total energy              =   -1463.73680967 Ry
     estimated scf accuracy    <     118.47339213 Ry

     iteration # 16     ecut=    30.00 Ry     beta= 0.70
     Davidson diagonalization with overlap

---- Real-time Memory Report at c_bands before calling an iterative solver
           629 MiB given to the printing process from OS
             0 MiB allocation reported by mallinfo(arena+hblkhd)
         41972 MiB available memory on the node where the printing process lives
------------------
     ethr =  2.71E-03,  avg # of iterations =  2.0

     total cpu time spent up to now is       30.8 secs

     total energy              =   -1465.17403130 Ry
     estimated scf accuracy    <       5.31136117 Ry

     iteration # 17     ecut=    30.00 Ry     beta= 0.70
     Davidson diagonalization with overlap

---- Real-time Memory Report at c_bands before calling an iterative solver
           632 MiB given to the printing process from OS
             0 MiB allocation reported by mallinfo(arena+hblkhd)
         41968 MiB available memory on the node where the printing process lives
------------------
     ethr =  2.71E-03,  avg # of iterations =  1.0

     total cpu time spent up to now is       32.2 secs

     total energy              =   -1465.17660842 Ry
     estimated scf accuracy    <       4.70624487 Ry

     iteration # 18     ecut=    30.00 Ry     beta= 0.70
     Davidson diagonalization with overlap

---- Real-time Memory Report at c_bands before calling an iterative solver
           632 MiB given to the printing process from OS
             0 MiB allocation reported by mallinfo(arena+hblkhd)
         41971 MiB available memory on the node where the printing process lives
------------------
     ethr =  2.71E-03,  avg # of iterations =  2.0

     total cpu time spent up to now is       33.7 secs

     total energy              =   -1465.11818916 Ry
     estimated scf accuracy    <       4.21542684 Ry

     iteration # 19     ecut=    30.00 Ry     beta= 0.70
     Davidson diagonalization with overlap

---- Real-time Memory Report at c_bands before calling an iterative solver
           632 MiB given to the printing process from OS
             0 MiB allocation reported by mallinfo(arena+hblkhd)
         41971 MiB available memory on the node where the printing process lives
------------------
     ethr =  2.71E-03,  avg # of iterations =  1.0

     total cpu time spent up to now is       35.1 secs

     total energy              =   -1465.09339696 Ry
     estimated scf accuracy    <       3.51332046 Ry

     iteration # 20     ecut=    30.00 Ry     beta= 0.70
     Davidson diagonalization with overlap

---- Real-time Memory Report at c_bands before calling an iterative solver
           632 MiB given to the printing process from OS
             0 MiB allocation reported by mallinfo(arena+hblkhd)
         41966 MiB available memory on the node where the printing process lives
------------------
     ethr =  2.71E-03,  avg # of iterations =  1.0

     total cpu time spent up to now is       36.5 secs

     total energy              =   -1465.12117741 Ry
     estimated scf accuracy    <       2.96876955 Ry

     iteration # 21     ecut=    30.00 Ry     beta= 0.70
     Davidson diagonalization with overlap

---- Real-time Memory Report at c_bands before calling an iterative solver
           632 MiB given to the printing process from OS
             0 MiB allocation reported by mallinfo(arena+hblkhd)
         41969 MiB available memory on the node where the printing process lives
------------------
     ethr =  2.71E-03,  avg # of iterations =  1.0

     total cpu time spent up to now is       37.9 secs

     total energy              =   -1464.76130339 Ry
     estimated scf accuracy    <       2.78874304 Ry

     iteration # 22     ecut=    30.00 Ry     beta= 0.70
     Davidson diagonalization with overlap

---- Real-time Memory Report at c_bands before calling an iterative solver
           632 MiB given to the printing process from OS
             0 MiB allocation reported by mallinfo(arena+hblkhd)
         41964 MiB available memory on the node where the printing process lives
------------------
     ethr =  2.71E-03,  avg # of iterations = 11.0

     total cpu time spent up to now is       39.5 secs

     total energy              =   -1464.94693997 Ry
     estimated scf accuracy    <      12.90129354 Ry

     iteration # 23     ecut=    30.00 Ry     beta= 0.70
     Davidson diagonalization with overlap

---- Real-time Memory Report at c_bands before calling an iterative solver
           632 MiB given to the printing process from OS
             0 MiB allocation reported by mallinfo(arena+hblkhd)
         41967 MiB available memory on the node where the printing process lives
------------------
     ethr =  2.71E-03,  avg # of iterations =  3.0

     total cpu time spent up to now is       40.9 secs

     total energy              =   -1465.21815772 Ry
     estimated scf accuracy    <       6.73581735 Ry

     iteration # 24     ecut=    30.00 Ry     beta= 0.70
     Davidson diagonalization with overlap

---- Real-time Memory Report at c_bands before calling an iterative solver
           632 MiB given to the printing process from OS
             0 MiB allocation reported by mallinfo(arena+hblkhd)
         41965 MiB available memory on the node where the printing process lives
------------------
     ethr =  2.71E-03,  avg # of iterations =  1.0

     total cpu time spent up to now is       42.4 secs

     total energy              =   -1465.29696320 Ry
     estimated scf accuracy    <       5.09605256 Ry

     iteration # 25     ecut=    30.00 Ry     beta= 0.70
     Davidson diagonalization with overlap

---- Real-time Memory Report at c_bands before calling an iterative solver
           632 MiB given to the printing process from OS
             0 MiB allocation reported by mallinfo(arena+hblkhd)
         41968 MiB available memory on the node where the printing process lives
------------------
     ethr =  2.71E-03,  avg # of iterations =  6.0

     total cpu time spent up to now is       43.9 secs

     total energy              =   -1465.22181758 Ry
     estimated scf accuracy    <       1.76477671 Ry

     iteration # 26     ecut=    30.00 Ry     beta= 0.70
     Davidson diagonalization with overlap

---- Real-time Memory Report at c_bands before calling an iterative solver
           632 MiB given to the printing process from OS
             0 MiB allocation reported by mallinfo(arena+hblkhd)
         41962 MiB available memory on the node where the printing process lives
------------------
     ethr =  2.71E-03,  avg # of iterations =  1.0

     total cpu time spent up to now is       45.3 secs

     total energy              =   -1465.29765189 Ry
     estimated scf accuracy    <       1.35036196 Ry

     iteration # 27     ecut=    30.00 Ry     beta= 0.70
     Davidson diagonalization with overlap

---- Real-time Memory Report at c_bands before calling an iterative solver
           632 MiB given to the printing process from OS
             0 MiB allocation reported by mallinfo(arena+hblkhd)
         41968 MiB available memory on the node where the printing process lives
------------------
     ethr =  2.25E-03,  avg # of iterations =  1.0

     total cpu time spent up to now is       46.6 secs

     total energy              =   -1465.30747302 Ry
     estimated scf accuracy    <       1.38651200 Ry

     iteration # 28     ecut=    30.00 Ry     beta= 0.70
     Davidson diagonalization with overlap

---- Real-time Memory Report at c_bands before calling an iterative solver
           632 MiB given to the printing process from OS
             0 MiB allocation reported by mallinfo(arena+hblkhd)
         41968 MiB available memory on the node where the printing process lives
------------------
     ethr =  2.25E-03,  avg # of iterations =  1.0

     total cpu time spent up to now is       48.0 secs

     total energy              =   -1465.30024613 Ry
     estimated scf accuracy    <       1.08807741 Ry

     iteration # 29     ecut=    30.00 Ry     beta= 0.70
     Davidson diagonalization with overlap

---- Real-time Memory Report at c_bands before calling an iterative solver
           632 MiB given to the printing process from OS
             0 MiB allocation reported by mallinfo(arena+hblkhd)
         41964 MiB available memory on the node where the printing process lives
------------------
     ethr =  1.81E-03,  avg # of iterations =  1.0

     total cpu time spent up to now is       49.4 secs

     total energy              =   -1465.28848055 Ry
     estimated scf accuracy    <       1.78381983 Ry

     iteration # 30     ecut=    30.00 Ry     beta= 0.70
     Davidson diagonalization with overlap

---- Real-time Memory Report at c_bands before calling an iterative solver
           632 MiB given to the printing process from OS
             0 MiB allocation reported by mallinfo(arena+hblkhd)
         41970 MiB available memory on the node where the printing process lives
------------------
     ethr =  1.81E-03,  avg # of iterations =  1.0

     negative rho (up, down):  9.822E-05 0.000E+00

     total cpu time spent up to now is       50.8 secs

     total energy              =   -1465.07121816 Ry
     estimated scf accuracy    <       1.53103277 Ry

     iteration # 31     ecut=    30.00 Ry     beta= 0.70
     Davidson diagonalization with overlap

---- Real-time Memory Report at c_bands before calling an iterative solver
           632 MiB given to the printing process from OS
             0 MiB allocation reported by mallinfo(arena+hblkhd)
         41967 MiB available memory on the node where the printing process lives
------------------
     ethr =  1.81E-03,  avg # of iterations =  7.0

     total cpu time spent up to now is       52.4 secs

     total energy              =   -1463.28925123 Ry
     estimated scf accuracy    <     123.11341251 Ry

     iteration # 32     ecut=    30.00 Ry     beta= 0.70
     Davidson diagonalization with overlap

---- Real-time Memory Report at c_bands before calling an iterative solver
           632 MiB given to the printing process from OS
             0 MiB allocation reported by mallinfo(arena+hblkhd)
         41972 MiB available memory on the node where the printing process lives
------------------
     ethr =  1.81E-03,  avg # of iterations =  7.0

     total cpu time spent up to now is       53.9 secs

     total energy              =   -1464.99261614 Ry
     estimated scf accuracy    <      25.55816181 Ry

     iteration # 33     ecut=    30.00 Ry     beta= 0.70
     Davidson diagonalization with overlap

---- Real-time Memory Report at c_bands before calling an iterative solver
           632 MiB given to the printing process from OS
             0 MiB allocation reported by mallinfo(arena+hblkhd)
         41967 MiB available memory on the node where the printing process lives
------------------
     ethr =  1.81E-03,  avg # of iterations =  2.0

     total cpu time spent up to now is       55.3 secs

     total energy              =   -1464.46864143 Ry
     estimated scf accuracy    <      23.48483143 Ry

     iteration # 34     ecut=    30.00 Ry     beta= 0.70
     Davidson diagonalization with overlap

---- Real-time Memory Report at c_bands before calling an iterative solver
           632 MiB given to the printing process from OS
             0 MiB allocation reported by mallinfo(arena+hblkhd)
         41975 MiB available memory on the node where the printing process lives
------------------
     ethr =  1.81E-03,  avg # of iterations = 12.0

     total cpu time spent up to now is       56.7 secs

     total energy              =   -1464.90133400 Ry
     estimated scf accuracy    <       2.67497243 Ry

     iteration # 35     ecut=    30.00 Ry     beta= 0.70
     Davidson diagonalization with overlap

---- Real-time Memory Report at c_bands before calling an iterative solver
           632 MiB given to the printing process from OS
             0 MiB allocation reported by mallinfo(arena+hblkhd)
         41974 MiB available memory on the node where the printing process lives
------------------
     ethr =  1.81E-03,  avg # of iterations =  9.0

     total cpu time spent up to now is       58.2 secs

     total energy              =   -1465.06052561 Ry
     estimated scf accuracy    <       1.24548203 Ry

     iteration # 36     ecut=    30.00 Ry     beta= 0.70
     Davidson diagonalization with overlap

---- Real-time Memory Report at c_bands before calling an iterative solver
           632 MiB given to the printing process from OS
             0 MiB allocation reported by mallinfo(arena+hblkhd)
         41974 MiB available memory on the node where the printing process lives
------------------
     ethr =  1.81E-03,  avg # of iterations =  1.0

     total cpu time spent up to now is       59.6 secs

     total energy              =   -1465.10260810 Ry
     estimated scf accuracy    <       1.10377454 Ry

     iteration # 37     ecut=    30.00 Ry     beta= 0.70
     Davidson diagonalization with overlap

---- Real-time Memory Report at c_bands before calling an iterative solver
           632 MiB given to the printing process from OS
             0 MiB allocation reported by mallinfo(arena+hblkhd)
         41975 MiB available memory on the node where the printing process lives
------------------
     ethr =  1.81E-03,  avg # of iterations =  1.0

     total cpu time spent up to now is       60.9 secs

     total energy              =   -1465.03951872 Ry
     estimated scf accuracy    <       1.08288122 Ry

     iteration # 38     ecut=    30.00 Ry     beta= 0.70
     Davidson diagonalization with overlap

---- Real-time Memory Report at c_bands before calling an iterative solver
           632 MiB given to the printing process from OS
             0 MiB allocation reported by mallinfo(arena+hblkhd)
         41970 MiB available memory on the node where the printing process lives
------------------
     ethr =  1.80E-03,  avg # of iterations =  9.0

     total cpu time spent up to now is       62.4 secs

     total energy              =   -1465.06211349 Ry
     estimated scf accuracy    <       2.63025124 Ry

     iteration # 39     ecut=    30.00 Ry     beta= 0.70
     Davidson diagonalization with overlap

---- Real-time Memory Report at c_bands before calling an iterative solver
           632 MiB given to the printing process from OS
             0 MiB allocation reported by mallinfo(arena+hblkhd)
         41976 MiB available memory on the node where the printing process lives
------------------
     ethr =  1.80E-03,  avg # of iterations =  6.0

     total cpu time spent up to now is       63.8 secs

     total energy              =   -1464.90538655 Ry
     estimated scf accuracy    <       1.18336022 Ry

     iteration # 40     ecut=    30.00 Ry     beta= 0.70
     Davidson diagonalization with overlap

---- Real-time Memory Report at c_bands before calling an iterative solver
           632 MiB given to the printing process from OS
             0 MiB allocation reported by mallinfo(arena+hblkhd)
         41972 MiB available memory on the node where the printing process lives
------------------
     ethr =  1.80E-03,  avg # of iterations = 10.0

     total cpu time spent up to now is       65.4 secs

     total energy              =   -1464.16380920 Ry
     estimated scf accuracy    <      53.57956131 Ry

     iteration # 41     ecut=    30.00 Ry     beta= 0.70
     Davidson diagonalization with overlap

---- Real-time Memory Report at c_bands before calling an iterative solver
           632 MiB given to the printing process from OS
             0 MiB allocation reported by mallinfo(arena+hblkhd)
         41977 MiB available memory on the node where the printing process lives
------------------
     ethr =  1.80E-03,  avg # of iterations = 10.0

     total cpu time spent up to now is       66.9 secs

     total energy              =   -1465.21681351 Ry
     estimated scf accuracy    <       2.19266110 Ry

     iteration # 42     ecut=    30.00 Ry     beta= 0.70
     Davidson diagonalization with overlap

---- Real-time Memory Report at c_bands before calling an iterative solver
           632 MiB given to the printing process from OS
             0 MiB allocation reported by mallinfo(arena+hblkhd)
         41970 MiB available memory on the node where the printing process lives
------------------
     ethr =  1.80E-03,  avg # of iterations =  1.0

     total cpu time spent up to now is       68.3 secs

     total energy              =   -1465.21890768 Ry
     estimated scf accuracy    <       1.21025238 Ry

     iteration # 43     ecut=    30.00 Ry     beta= 0.70
     Davidson diagonalization with overlap

---- Real-time Memory Report at c_bands before calling an iterative solver
           632 MiB given to the printing process from OS
             0 MiB allocation reported by mallinfo(arena+hblkhd)
         41977 MiB available memory on the node where the printing process lives
------------------
     ethr =  1.80E-03,  avg # of iterations =  2.0

     total cpu time spent up to now is       69.7 secs

     total energy              =   -1465.23209015 Ry
     estimated scf accuracy    <       1.18353247 Ry

     iteration # 44     ecut=    30.00 Ry     beta= 0.70
     Davidson diagonalization with overlap

---- Real-time Memory Report at c_bands before calling an iterative solver
           632 MiB given to the printing process from OS
             0 MiB allocation reported by mallinfo(arena+hblkhd)
         41977 MiB available memory on the node where the printing process lives
------------------
     ethr =  1.80E-03,  avg # of iterations =  1.0

     total cpu time spent up to now is       71.1 secs

     total energy              =   -1465.24590786 Ry
     estimated scf accuracy    <       0.67593775 Ry

     iteration # 45     ecut=    30.00 Ry     beta= 0.70
     Davidson diagonalization with overlap

---- Real-time Memory Report at c_bands before calling an iterative solver
           632 MiB given to the printing process from OS
             0 MiB allocation reported by mallinfo(arena+hblkhd)
         41971 MiB available memory on the node where the printing process lives
------------------
     ethr =  1.13E-03,  avg # of iterations =  1.0

     total cpu time spent up to now is       72.4 secs

     total energy              =   -1465.24250703 Ry
     estimated scf accuracy    <       0.67310197 Ry

     iteration # 46     ecut=    30.00 Ry     beta= 0.70
     Davidson diagonalization with overlap

---- Real-time Memory Report at c_bands before calling an iterative solver
           632 MiB given to the printing process from OS
             0 MiB allocation reported by mallinfo(arena+hblkhd)
         41976 MiB available memory on the node where the printing process lives
------------------
     ethr =  1.12E-03,  avg # of iterations =  1.0

     total cpu time spent up to now is       73.8 secs

     total energy              =   -1465.24462144 Ry
     estimated scf accuracy    <       0.51314271 Ry

     iteration # 47     ecut=    30.00 Ry     beta= 0.70
     Davidson diagonalization with overlap

---- Real-time Memory Report at c_bands before calling an iterative solver
           632 MiB given to the printing process from OS
             0 MiB allocation reported by mallinfo(arena+hblkhd)
         41971 MiB available memory on the node where the printing process lives
------------------
     ethr =  8.55E-04,  avg # of iterations =  2.0

     total cpu time spent up to now is       75.3 secs

     total energy              =   -1465.25435068 Ry
     estimated scf accuracy    <       0.44202820 Ry

     iteration # 48     ecut=    30.00 Ry     beta= 0.70
     Davidson diagonalization with overlap

---- Real-time Memory Report at c_bands before calling an iterative solver
           632 MiB given to the printing process from OS
             0 MiB allocation reported by mallinfo(arena+hblkhd)
         41975 MiB available memory on the node where the printing process lives
------------------
     ethr =  7.37E-04,  avg # of iterations =  1.0

     total cpu time spent up to now is       76.7 secs

     total energy              =   -1465.21387653 Ry
     estimated scf accuracy    <       0.44505167 Ry

     iteration # 49     ecut=    30.00 Ry     beta= 0.70
     Davidson diagonalization with overlap

---- Real-time Memory Report at c_bands before calling an iterative solver
           632 MiB given to the printing process from OS
             0 MiB allocation reported by mallinfo(arena+hblkhd)
         41976 MiB available memory on the node where the printing process lives
------------------
     ethr =  7.37E-04,  avg # of iterations =  7.0

     total cpu time spent up to now is       78.2 secs

     total energy              =   -1465.01414528 Ry
     estimated scf accuracy    <       7.62672110 Ry

     iteration # 50     ecut=    30.00 Ry     beta= 0.70
     Davidson diagonalization with overlap

---- Real-time Memory Report at c_bands before calling an iterative solver
           632 MiB given to the printing process from OS
             0 MiB allocation reported by mallinfo(arena+hblkhd)
         41971 MiB available memory on the node where the printing process lives
------------------
     ethr =  7.37E-04,  avg # of iterations = 12.0

     total cpu time spent up to now is       79.9 secs

     total energy              =   -1464.34231567 Ry
     estimated scf accuracy    <      91.08452735 Ry

     iteration # 51     ecut=    30.00 Ry     beta= 0.70
     Davidson diagonalization with overlap

---- Real-time Memory Report at c_bands before calling an iterative solver
           632 MiB given to the printing process from OS
             0 MiB allocation reported by mallinfo(arena+hblkhd)
         41969 MiB available memory on the node where the printing process lives
------------------
     ethr =  7.37E-04,  avg # of iterations = 10.0

     total cpu time spent up to now is       81.4 secs

     total energy              =   -1465.18974103 Ry
     estimated scf accuracy    <       2.49709959 Ry

     iteration # 52     ecut=    30.00 Ry     beta= 0.70
     Davidson diagonalization with overlap

---- Real-time Memory Report at c_bands before calling an iterative solver
           632 MiB given to the printing process from OS
             0 MiB allocation reported by mallinfo(arena+hblkhd)
         41973 MiB available memory on the node where the printing process lives
------------------
     ethr =  7.37E-04,  avg # of iterations =  2.0

     total cpu time spent up to now is       82.9 secs

     total energy              =   -1465.16808387 Ry
     estimated scf accuracy    <       2.23166726 Ry

     iteration # 53     ecut=    30.00 Ry     beta= 0.70
     Davidson diagonalization with overlap

---- Real-time Memory Report at c_bands before calling an iterative solver
           632 MiB given to the printing process from OS
             0 MiB allocation reported by mallinfo(arena+hblkhd)
         41959 MiB available memory on the node where the printing process lives
------------------
     ethr =  7.37E-04,  avg # of iterations =  1.0

     total cpu time spent up to now is       84.9 secs

     total energy              =   -1465.14808452 Ry
     estimated scf accuracy    <       1.86223993 Ry

     iteration # 54     ecut=    30.00 Ry     beta= 0.70
     Davidson diagonalization with overlap

---- Real-time Memory Report at c_bands before calling an iterative solver
           632 MiB given to the printing process from OS
             0 MiB allocation reported by mallinfo(arena+hblkhd)
         41962 MiB available memory on the node where the printing process lives
------------------
     ethr =  7.37E-04,  avg # of iterations =  2.0

     total cpu time spent up to now is       86.3 secs

     total energy              =   -1465.11948736 Ry
     estimated scf accuracy    <       1.39765673 Ry

     iteration # 55     ecut=    30.00 Ry     beta= 0.70
     Davidson diagonalization with overlap

---- Real-time Memory Report at c_bands before calling an iterative solver
           632 MiB given to the printing process from OS
             0 MiB allocation reported by mallinfo(arena+hblkhd)
         41963 MiB available memory on the node where the printing process lives
------------------
     ethr =  7.37E-04,  avg # of iterations =  9.0

     total cpu time spent up to now is       87.8 secs

     total energy              =   -1465.23567656 Ry
     estimated scf accuracy    <       0.44740941 Ry

     iteration # 56     ecut=    30.00 Ry     beta= 0.70
     Davidson diagonalization with overlap

---- Real-time Memory Report at c_bands before calling an iterative solver
           632 MiB given to the printing process from OS
             0 MiB allocation reported by mallinfo(arena+hblkhd)
         41966 MiB available memory on the node where the printing process lives
------------------
     ethr =  7.37E-04,  avg # of iterations =  1.0

     total cpu time spent up to now is       89.2 secs

     total energy              =   -1465.23881578 Ry
     estimated scf accuracy    <       0.43957239 Ry

     iteration # 57     ecut=    30.00 Ry     beta= 0.70
     Davidson diagonalization with overlap

---- Real-time Memory Report at c_bands before calling an iterative solver
           632 MiB given to the printing process from OS
             0 MiB allocation reported by mallinfo(arena+hblkhd)
         41969 MiB available memory on the node where the printing process lives
------------------
     ethr =  7.33E-04,  avg # of iterations =  1.0

     total cpu time spent up to now is       90.6 secs

     total energy              =   -1465.23603905 Ry
     estimated scf accuracy    <       0.41423874 Ry

     iteration # 58     ecut=    30.00 Ry     beta= 0.70
     Davidson diagonalization with overlap

---- Real-time Memory Report at c_bands before calling an iterative solver
           632 MiB given to the printing process from OS
             0 MiB allocation reported by mallinfo(arena+hblkhd)
         41968 MiB available memory on the node where the printing process lives
------------------
     ethr =  6.90E-04,  avg # of iterations = 16.0

     total cpu time spent up to now is       92.2 secs

     total energy              =   -1465.48851855 Ry
     estimated scf accuracy    <       7.58176496 Ry

     iteration # 59     ecut=    30.00 Ry     beta= 0.70
     Davidson diagonalization with overlap

---- Real-time Memory Report at c_bands before calling an iterative solver
           632 MiB given to the printing process from OS
             0 MiB allocation reported by mallinfo(arena+hblkhd)
         41970 MiB available memory on the node where the printing process lives
------------------
     ethr =  6.90E-04,  avg # of iterations =  6.0

     total cpu time spent up to now is       93.6 secs

     total energy              =   -1465.26502784 Ry
     estimated scf accuracy    <       9.19313757 Ry

     iteration # 60     ecut=    30.00 Ry     beta= 0.70
     Davidson diagonalization with overlap

---- Real-time Memory Report at c_bands before calling an iterative solver
           632 MiB given to the printing process from OS
             0 MiB allocation reported by mallinfo(arena+hblkhd)
         41971 MiB available memory on the node where the printing process lives
------------------
     ethr =  6.90E-04,  avg # of iterations =  7.0

     total cpu time spent up to now is       95.1 secs

     total energy              =   -1465.34416310 Ry
     estimated scf accuracy    <       1.85346306 Ry

     iteration # 61     ecut=    30.00 Ry     beta= 0.70
     Davidson diagonalization with overlap

---- Real-time Memory Report at c_bands before calling an iterative solver
           632 MiB given to the printing process from OS
             0 MiB allocation reported by mallinfo(arena+hblkhd)
         41965 MiB available memory on the node where the printing process lives
------------------
     ethr =  6.90E-04,  avg # of iterations =  1.0

     total cpu time spent up to now is       96.5 secs

     total energy              =   -1465.30054929 Ry
     estimated scf accuracy    <       2.84164379 Ry

     iteration # 62     ecut=    30.00 Ry     beta= 0.70
     Davidson diagonalization with overlap

---- Real-time Memory Report at c_bands before calling an iterative solver
           632 MiB given to the printing process from OS
             0 MiB allocation reported by mallinfo(arena+hblkhd)
         41972 MiB available memory on the node where the printing process lives
------------------
     ethr =  6.90E-04,  avg # of iterations =  1.0

     total cpu time spent up to now is       97.8 secs

     total energy              =   -1465.26969767 Ry
     estimated scf accuracy    <       2.98990409 Ry

     iteration # 63     ecut=    30.00 Ry     beta= 0.70
     Davidson diagonalization with overlap

---- Real-time Memory Report at c_bands before calling an iterative solver
           632 MiB given to the printing process from OS
             0 MiB allocation reported by mallinfo(arena+hblkhd)
         41969 MiB available memory on the node where the printing process lives
------------------
     ethr =  6.90E-04,  avg # of iterations =  7.0

     total cpu time spent up to now is       99.3 secs

     total energy              =   -1464.87520865 Ry
     estimated scf accuracy    <      11.73648792 Ry

     iteration # 64     ecut=    30.00 Ry     beta= 0.70
     Davidson diagonalization with overlap

---- Real-time Memory Report at c_bands before calling an iterative solver
           632 MiB given to the printing process from OS
             0 MiB allocation reported by mallinfo(arena+hblkhd)
         41975 MiB available memory on the node where the printing process lives
------------------
     ethr =  6.90E-04,  avg # of iterations =  8.0

     total cpu time spent up to now is      100.9 secs

     total energy              =   -1464.20798831 Ry
     estimated scf accuracy    <     120.64175824 Ry

     iteration # 65     ecut=    30.00 Ry     beta= 0.70
     Davidson diagonalization with overlap

---- Real-time Memory Report at c_bands before calling an iterative solver
           632 MiB given to the printing process from OS
             0 MiB allocation reported by mallinfo(arena+hblkhd)
         41969 MiB available memory on the node where the printing process lives
------------------
     ethr =  6.90E-04,  avg # of iterations =  9.0

     total cpu time spent up to now is      102.4 secs

     total energy              =   -1465.12186232 Ry
     estimated scf accuracy    <       6.01254095 Ry

     iteration # 66     ecut=    30.00 Ry     beta= 0.70
     Davidson diagonalization with overlap

---- Real-time Memory Report at c_bands before calling an iterative solver
           632 MiB given to the printing process from OS
             0 MiB allocation reported by mallinfo(arena+hblkhd)
         41976 MiB available memory on the node where the printing process lives
------------------
     ethr =  6.90E-04,  avg # of iterations =  9.0

     total cpu time spent up to now is      103.9 secs

     total energy              =   -1465.17560208 Ry
     estimated scf accuracy    <       2.98971365 Ry

     iteration # 67     ecut=    30.00 Ry     beta= 0.70
     Davidson diagonalization with overlap

---- Real-time Memory Report at c_bands before calling an iterative solver
           632 MiB given to the printing process from OS
             0 MiB allocation reported by mallinfo(arena+hblkhd)
         41971 MiB available memory on the node where the printing process lives
------------------
     ethr =  6.90E-04,  avg # of iterations =  2.0

     total cpu time spent up to now is      105.3 secs

     total energy              =   -1465.19586849 Ry
     estimated scf accuracy    <       3.12129851 Ry

     iteration # 68     ecut=    30.00 Ry     beta= 0.70
     Davidson diagonalization with overlap

---- Real-time Memory Report at c_bands before calling an iterative solver
           632 MiB given to the printing process from OS
             0 MiB allocation reported by mallinfo(arena+hblkhd)
         41976 MiB available memory on the node where the printing process lives
------------------
     ethr =  6.90E-04,  avg # of iterations =  2.0

     total cpu time spent up to now is      106.7 secs

     total energy              =   -1465.15499508 Ry
     estimated scf accuracy    <       3.14528378 Ry

     iteration # 69     ecut=    30.00 Ry     beta= 0.70
     Davidson diagonalization with overlap

---- Real-time Memory Report at c_bands before calling an iterative solver
           632 MiB given to the printing process from OS
             0 MiB allocation reported by mallinfo(arena+hblkhd)
         41976 MiB available memory on the node where the printing process lives
------------------
     ethr =  6.90E-04,  avg # of iterations = 10.0

     total cpu time spent up to now is      108.2 secs

     total energy              =   -1465.24418154 Ry
     estimated scf accuracy    <       1.45428049 Ry

     iteration # 70     ecut=    30.00 Ry     beta= 0.70
     Davidson diagonalization with overlap

---- Real-time Memory Report at c_bands before calling an iterative solver
           632 MiB given to the printing process from OS
             0 MiB allocation reported by mallinfo(arena+hblkhd)
         41974 MiB available memory on the node where the printing process lives
------------------
     ethr =  6.90E-04,  avg # of iterations =  2.0

     total cpu time spent up to now is      110.0 secs

     total energy              =   -1465.07895970 Ry
     estimated scf accuracy    <       1.26507213 Ry

     iteration # 71     ecut=    30.00 Ry     beta= 0.70
     Davidson diagonalization with overlap

---- Real-time Memory Report at c_bands before calling an iterative solver
           632 MiB given to the printing process from OS
             0 MiB allocation reported by mallinfo(arena+hblkhd)
         41970 MiB available memory on the node where the printing process lives
------------------
     ethr =  6.90E-04,  avg # of iterations = 12.0

     total cpu time spent up to now is      111.6 secs

     total energy              =   -1465.20820271 Ry
     estimated scf accuracy    <       6.49303938 Ry

     iteration # 72     ecut=    30.00 Ry     beta= 0.70
     Davidson diagonalization with overlap

---- Real-time Memory Report at c_bands before calling an iterative solver
           632 MiB given to the printing process from OS
             0 MiB allocation reported by mallinfo(arena+hblkhd)
         41976 MiB available memory on the node where the printing process lives
------------------
     ethr =  6.90E-04,  avg # of iterations =  7.0

     total cpu time spent up to now is      113.0 secs

     total energy              =   -1465.19653279 Ry
     estimated scf accuracy    <       2.52422811 Ry

     iteration # 73     ecut=    30.00 Ry     beta= 0.70
     Davidson diagonalization with overlap

---- Real-time Memory Report at c_bands before calling an iterative solver
           632 MiB given to the printing process from OS
             0 MiB allocation reported by mallinfo(arena+hblkhd)
         41969 MiB available memory on the node where the printing process lives
------------------
     ethr =  6.90E-04,  avg # of iterations = 12.0

     total cpu time spent up to now is      114.5 secs

     total energy              =   -1465.04754421 Ry
     estimated scf accuracy    <      10.69569315 Ry

     iteration # 74     ecut=    30.00 Ry     beta= 0.70
     Davidson diagonalization with overlap

---- Real-time Memory Report at c_bands before calling an iterative solver
           632 MiB given to the printing process from OS
             0 MiB allocation reported by mallinfo(arena+hblkhd)
         41976 MiB available memory on the node where the printing process lives
------------------
     ethr =  6.90E-04,  avg # of iterations =  2.0

     total cpu time spent up to now is      115.9 secs

     total energy              =   -1465.23198816 Ry
     estimated scf accuracy    <       0.93149873 Ry

     iteration # 75     ecut=    30.00 Ry     beta= 0.70
     Davidson diagonalization with overlap

---- Real-time Memory Report at c_bands before calling an iterative solver
           632 MiB given to the printing process from OS
             0 MiB allocation reported by mallinfo(arena+hblkhd)
         41971 MiB available memory on the node where the printing process lives
------------------
     ethr =  6.90E-04,  avg # of iterations =  1.0

     total cpu time spent up to now is      117.3 secs

     total energy              =   -1465.24286325 Ry
     estimated scf accuracy    <       1.09269778 Ry

     iteration # 76     ecut=    30.00 Ry     beta= 0.70
     Davidson diagonalization with overlap

---- Real-time Memory Report at c_bands before calling an iterative solver
           632 MiB given to the printing process from OS
             0 MiB allocation reported by mallinfo(arena+hblkhd)
         41977 MiB available memory on the node where the printing process lives
------------------
     ethr =  6.90E-04,  avg # of iterations =  2.0

     total cpu time spent up to now is      118.7 secs

     total energy              =   -1465.26041550 Ry
     estimated scf accuracy    <       0.59610599 Ry

     iteration # 77     ecut=    30.00 Ry     beta= 0.70
     Davidson diagonalization with overlap

---- Real-time Memory Report at c_bands before calling an iterative solver
           632 MiB given to the printing process from OS
             0 MiB allocation reported by mallinfo(arena+hblkhd)
         41976 MiB available memory on the node where the printing process lives
------------------
     ethr =  6.90E-04,  avg # of iterations =  1.0

     total cpu time spent up to now is      120.1 secs

     total energy              =   -1465.29480011 Ry
     estimated scf accuracy    <       0.54367800 Ry

     iteration # 78     ecut=    30.00 Ry     beta= 0.70
     Davidson diagonalization with overlap

---- Real-time Memory Report at c_bands before calling an iterative solver
           632 MiB given to the printing process from OS
             0 MiB allocation reported by mallinfo(arena+hblkhd)
         41975 MiB available memory on the node where the printing process lives
------------------
     ethr =  6.90E-04,  avg # of iterations =  2.0

     total cpu time spent up to now is      121.5 secs

     total energy              =   -1465.08012462 Ry
     estimated scf accuracy    <       8.52290819 Ry

     iteration # 79     ecut=    30.00 Ry     beta= 0.70
     Davidson diagonalization with overlap

---- Real-time Memory Report at c_bands before calling an iterative solver
           632 MiB given to the printing process from OS
             0 MiB allocation reported by mallinfo(arena+hblkhd)
         41978 MiB available memory on the node where the printing process lives
------------------
     ethr =  6.90E-04,  avg # of iterations =  1.0

     total cpu time spent up to now is      122.9 secs

     total energy              =   -1465.21957792 Ry
     estimated scf accuracy    <       0.40372111 Ry

     iteration # 80     ecut=    30.00 Ry     beta= 0.70
     Davidson diagonalization with overlap

---- Real-time Memory Report at c_bands before calling an iterative solver
           632 MiB given to the printing process from OS
             0 MiB allocation reported by mallinfo(arena+hblkhd)
         41971 MiB available memory on the node where the printing process lives
------------------
     ethr =  6.73E-04,  avg # of iterations =  2.0

     total cpu time spent up to now is      124.3 secs

     total energy              =   -1465.22536565 Ry
     estimated scf accuracy    <       1.22373667 Ry

     iteration # 81     ecut=    30.00 Ry     beta= 0.70
     Davidson diagonalization with overlap

---- Real-time Memory Report at c_bands before calling an iterative solver
           632 MiB given to the printing process from OS
             0 MiB allocation reported by mallinfo(arena+hblkhd)
         41976 MiB available memory on the node where the printing process lives
------------------
     ethr =  6.73E-04,  avg # of iterations =  1.0

     total cpu time spent up to now is      125.8 secs

     total energy              =   -1465.19975166 Ry
     estimated scf accuracy    <       0.28091524 Ry

     iteration # 82     ecut=    30.00 Ry     beta= 0.70
     Davidson diagonalization with overlap

---- Real-time Memory Report at c_bands before calling an iterative solver
           632 MiB given to the printing process from OS
             0 MiB allocation reported by mallinfo(arena+hblkhd)
         41976 MiB available memory on the node where the printing process lives
------------------
     ethr =  4.68E-04,  avg # of iterations =  9.0

     total cpu time spent up to now is      127.3 secs

     total energy              =   -1465.17143196 Ry
     estimated scf accuracy    <       6.35812263 Ry

     iteration # 83     ecut=    30.00 Ry     beta= 0.70
     Davidson diagonalization with overlap

---- Real-time Memory Report at c_bands before calling an iterative solver
           632 MiB given to the printing process from OS
             0 MiB allocation reported by mallinfo(arena+hblkhd)
         41976 MiB available memory on the node where the printing process lives
------------------
     ethr =  4.68E-04,  avg # of iterations =  6.0

     total cpu time spent up to now is      128.7 secs

     total energy              =   -1465.24391781 Ry
     estimated scf accuracy    <       0.71642815 Ry

     iteration # 84     ecut=    30.00 Ry     beta= 0.70
     Davidson diagonalization with overlap

---- Real-time Memory Report at c_bands before calling an iterative solver
           632 MiB given to the printing process from OS
             0 MiB allocation reported by mallinfo(arena+hblkhd)
         41974 MiB available memory on the node where the printing process lives
------------------
     ethr =  4.68E-04,  avg # of iterations =  1.0

     total cpu time spent up to now is      130.1 secs

     total energy              =   -1465.23792344 Ry
     estimated scf accuracy    <       0.48430845 Ry

     iteration # 85     ecut=    30.00 Ry     beta= 0.70
     Davidson diagonalization with overlap

---- Real-time Memory Report at c_bands before calling an iterative solver
           632 MiB given to the printing process from OS
             0 MiB allocation reported by mallinfo(arena+hblkhd)
         41973 MiB available memory on the node where the printing process lives
------------------
     ethr =  4.68E-04,  avg # of iterations =  2.0

     total cpu time spent up to now is      131.5 secs

     total energy              =   -1465.24138103 Ry
     estimated scf accuracy    <       0.39917247 Ry

     iteration # 86     ecut=    30.00 Ry     beta= 0.70
     Davidson diagonalization with overlap

---- Real-time Memory Report at c_bands before calling an iterative solver
           632 MiB given to the printing process from OS
             0 MiB allocation reported by mallinfo(arena+hblkhd)
         41975 MiB available memory on the node where the printing process lives
------------------
     ethr =  4.68E-04,  avg # of iterations =  1.0

     total cpu time spent up to now is      132.9 secs

     total energy              =   -1465.23597559 Ry
     estimated scf accuracy    <       0.20465723 Ry

     iteration # 87     ecut=    30.00 Ry     beta= 0.70
     Davidson diagonalization with overlap

---- Real-time Memory Report at c_bands before calling an iterative solver
           632 MiB given to the printing process from OS
             0 MiB allocation reported by mallinfo(arena+hblkhd)
         41970 MiB available memory on the node where the printing process lives
------------------
     ethr =  3.41E-04,  avg # of iterations =  2.0

     total cpu time spent up to now is      134.3 secs

     total energy              =   -1465.24261843 Ry
     estimated scf accuracy    <       0.21329085 Ry

     iteration # 88     ecut=    30.00 Ry     beta= 0.70
     Davidson diagonalization with overlap

---- Real-time Memory Report at c_bands before calling an iterative solver
           632 MiB given to the printing process from OS
             0 MiB allocation reported by mallinfo(arena+hblkhd)
         41976 MiB available memory on the node where the printing process lives
------------------
     ethr =  3.41E-04,  avg # of iterations =  2.0

     total cpu time spent up to now is      135.7 secs

     total energy              =   -1465.22943104 Ry
     estimated scf accuracy    <       1.63737940 Ry

     iteration # 89     ecut=    30.00 Ry     beta= 0.70
     Davidson diagonalization with overlap

---- Real-time Memory Report at c_bands before calling an iterative solver
           632 MiB given to the printing process from OS
             0 MiB allocation reported by mallinfo(arena+hblkhd)
         41976 MiB available memory on the node where the printing process lives
------------------
     ethr =  3.41E-04,  avg # of iterations =  2.0

     total cpu time spent up to now is      137.1 secs

     total energy              =   -1465.25053523 Ry
     estimated scf accuracy    <       0.24314977 Ry

     iteration # 90     ecut=    30.00 Ry     beta= 0.70
     Davidson diagonalization with overlap

---- Real-time Memory Report at c_bands before calling an iterative solver
           632 MiB given to the printing process from OS
             0 MiB allocation reported by mallinfo(arena+hblkhd)
         41972 MiB available memory on the node where the printing process lives
------------------
     ethr =  3.41E-04,  avg # of iterations =  1.0

     total cpu time spent up to now is      138.5 secs

     total energy              =   -1465.25072938 Ry
     estimated scf accuracy    <       0.20755168 Ry

     iteration # 91     ecut=    30.00 Ry     beta= 0.70
     Davidson diagonalization with overlap

---- Real-time Memory Report at c_bands before calling an iterative solver
           632 MiB given to the printing process from OS
             0 MiB allocation reported by mallinfo(arena+hblkhd)
         41975 MiB available memory on the node where the printing process lives
------------------
     ethr =  3.41E-04,  avg # of iterations =  1.0

     total cpu time spent up to now is      139.9 secs

     total energy              =   -1465.25057364 Ry
     estimated scf accuracy    <       0.20284339 Ry

     iteration # 92     ecut=    30.00 Ry     beta= 0.70
     Davidson diagonalization with overlap

---- Real-time Memory Report at c_bands before calling an iterative solver
           632 MiB given to the printing process from OS
             0 MiB allocation reported by mallinfo(arena+hblkhd)
         41969 MiB available memory on the node where the printing process lives
------------------
     ethr =  3.38E-04,  avg # of iterations =  1.0

     total cpu time spent up to now is      141.3 secs

     total energy              =   -1465.25279524 Ry
     estimated scf accuracy    <       0.07055206 Ry

     iteration # 93     ecut=    30.00 Ry     beta= 0.70
     Davidson diagonalization with overlap

---- Real-time Memory Report at c_bands before calling an iterative solver
           632 MiB given to the printing process from OS
             0 MiB allocation reported by mallinfo(arena+hblkhd)
         41972 MiB available memory on the node where the printing process lives
------------------
     ethr =  1.18E-04,  avg # of iterations =  7.0

     total cpu time spent up to now is      142.7 secs

     total energy              =   -1465.25775062 Ry
     estimated scf accuracy    <       0.08163879 Ry

     iteration # 94     ecut=    30.00 Ry     beta= 0.70
     Davidson diagonalization with overlap

---- Real-time Memory Report at c_bands before calling an iterative solver
           632 MiB given to the printing process from OS
             0 MiB allocation reported by mallinfo(arena+hblkhd)
         41973 MiB available memory on the node where the printing process lives
------------------
     ethr =  1.18E-04,  avg # of iterations =  2.0

     total cpu time spent up to now is      144.1 secs

     total energy              =   -1465.25843417 Ry
     estimated scf accuracy    <       0.09054898 Ry

     iteration # 95     ecut=    30.00 Ry     beta= 0.70
     Davidson diagonalization with overlap

---- Real-time Memory Report at c_bands before calling an iterative solver
           632 MiB given to the printing process from OS
             0 MiB allocation reported by mallinfo(arena+hblkhd)
         41969 MiB available memory on the node where the printing process lives
------------------
     ethr =  1.18E-04,  avg # of iterations =  1.0

     total cpu time spent up to now is      145.5 secs

     total energy              =   -1465.25722323 Ry
     estimated scf accuracy    <       0.06701383 Ry

     iteration # 96     ecut=    30.00 Ry     beta= 0.70
     Davidson diagonalization with overlap

---- Real-time Memory Report at c_bands before calling an iterative solver
           632 MiB given to the printing process from OS
             0 MiB allocation reported by mallinfo(arena+hblkhd)
         41974 MiB available memory on the node where the printing process lives
------------------
     ethr =  1.12E-04,  avg # of iterations =  1.0

     total cpu time spent up to now is      146.9 secs

     total energy              =   -1465.25027801 Ry
     estimated scf accuracy    <       0.22300175 Ry

     iteration # 97     ecut=    30.00 Ry     beta= 0.70
     Davidson diagonalization with overlap

---- Real-time Memory Report at c_bands before calling an iterative solver
           632 MiB given to the printing process from OS
             0 MiB allocation reported by mallinfo(arena+hblkhd)
         41968 MiB available memory on the node where the printing process lives
------------------
     ethr =  1.12E-04,  avg # of iterations =  1.0

     total cpu time spent up to now is      148.3 secs

     total energy              =   -1465.24303667 Ry
     estimated scf accuracy    <       0.09752331 Ry

     iteration # 98     ecut=    30.00 Ry     beta= 0.70
     Davidson diagonalization with overlap

---- Real-time Memory Report at c_bands before calling an iterative solver
           632 MiB given to the printing process from OS
             0 MiB allocation reported by mallinfo(arena+hblkhd)
         41973 MiB available memory on the node where the printing process lives
------------------
     c_bands:  2 eigenvalues not converged
     ethr =  1.12E-04,  avg # of iterations = 20.0

     total cpu time spent up to now is      150.1 secs

     total energy              =   -1464.82144158 Ry
     estimated scf accuracy    <      66.98043492 Ry

     iteration # 99     ecut=    30.00 Ry     beta= 0.70
     Davidson diagonalization with overlap

---- Real-time Memory Report at c_bands before calling an iterative solver
           632 MiB given to the printing process from OS
             0 MiB allocation reported by mallinfo(arena+hblkhd)
         41968 MiB available memory on the node where the printing process lives
------------------
     ethr =  1.12E-04,  avg # of iterations = 14.0

     total cpu time spent up to now is      151.7 secs

     total energy              =   -1465.21962508 Ry
     estimated scf accuracy    <       6.27818405 Ry

     iteration #100     ecut=    30.00 Ry     beta= 0.70
     Davidson diagonalization with overlap

---- Real-time Memory Report at c_bands before calling an iterative solver
           632 MiB given to the printing process from OS
             0 MiB allocation reported by mallinfo(arena+hblkhd)
         41973 MiB available memory on the node where the printing process lives
------------------
     ethr =  1.12E-04,  avg # of iterations = 10.0

     total cpu time spent up to now is      153.0 secs

     total energy              =   -1465.23243496 Ry
     estimated scf accuracy    <       1.81115690 Ry

     End of self-consistent calculation

     convergence NOT achieved after 100 iterations: stopping

     Writing config to output data dir new_calculations/myprefix.save/
     Message from routine punch:
     wavefunctions written to file
 
     init_run     :    157.38s CPU      6.93s WALL (       1 calls)
     electrons    :   4337.42s CPU    145.65s WALL (       1 calls)

     Called by init_run:
     wfcinit      :     52.01s CPU      1.73s WALL (       1 calls)
     wfcinit:atom :      0.05s CPU      0.00s WALL (       1 calls)
     wfcinit:wfcr :     51.77s CPU      1.72s WALL (       1 calls)
     potinit      :     52.87s CPU      1.79s WALL (       1 calls)
     hinit0       :     35.21s CPU      2.76s WALL (       1 calls)

     Called by electrons:
     c_bands      :    717.61s CPU     22.86s WALL (     100 calls)
     sum_band     :    566.72s CPU     21.01s WALL (     100 calls)
     v_of_rho     :     84.50s CPU      2.85s WALL (     101 calls)
     v_h          :      4.55s CPU      0.15s WALL (     101 calls)
     v_xc         :     79.68s CPU      2.69s WALL (     101 calls)
     newd         :    991.27s CPU     33.27s WALL (     101 calls)
     PAW_pot      :   1968.07s CPU     65.39s WALL (     101 calls)
     mix_rho      :     24.78s CPU      0.83s WALL (     100 calls)

     Called by c_bands:
     init_us_2    :      3.10s CPU      0.11s WALL (     201 calls)
     init_us_2:cp :      2.76s CPU      0.10s WALL (     201 calls)
     regterg      :    701.95s CPU     22.35s WALL (     100 calls)

     Called by sum_band:
     sum_band:wei :      0.26s CPU      0.01s WALL (     100 calls)
     sum_band:loo :    118.70s CPU      3.76s WALL (     100 calls)
     sum_band:buf :      0.08s CPU      0.00s WALL (     100 calls)
     sum_band:ini :      1.36s CPU      0.05s WALL (     100 calls)
     sum_band:cal :      0.74s CPU      0.03s WALL (     100 calls)
     sum_band:bec :      0.29s CPU      0.01s WALL (     100 calls)
     addusdens    :    438.59s CPU     16.93s WALL (     100 calls)
     addusd:skk   :      0.61s CPU      0.02s WALL (     300 calls)
     addusd:dgemm :     19.22s CPU      3.09s WALL (     300 calls)
     addusd:qvan2 :    275.26s CPU      8.82s WALL (     300 calls)

     Called by *egterg:
     rdiaghg      :     23.69s CPU      0.78s WALL (     522 calls)
     regterg:over :      1.22s CPU      0.04s WALL (     422 calls)
     regterg:upda :      1.97s CPU      0.07s WALL (     422 calls)
     regterg:last :      3.14s CPU      0.10s WALL (     184 calls)
     h_psi        :    711.24s CPU     22.66s WALL (     523 calls)
     s_psi        :      0.89s CPU      0.03s WALL (     523 calls)
     g_psi        :      0.47s CPU      0.02s WALL (     422 calls)

     Called by h_psi:
     h_psi:calbec :      2.76s CPU      0.09s WALL (     523 calls)
     vloc_psi     :    703.60s CPU     22.41s WALL (     523 calls)
     add_vuspsi   :      2.11s CPU      0.07s WALL (     523 calls)

     General routines
     calbec       :      2.55s CPU      0.09s WALL (     623 calls)
     fft          :     28.43s CPU      0.94s WALL (    1111 calls)
     ffts         :     32.12s CPU      1.09s WALL (     201 calls)
     fftw         :    737.82s CPU     23.39s WALL (   10732 calls)
     interpolate  :     36.70s CPU      1.24s WALL (     101 calls)
     davcio       :      0.87s CPU      0.03s WALL (      19 calls)
 
     Parallel routines

     PAW routines
     PAW_pot      :   1968.07s CPU     65.39s WALL (     101 calls)
     PAW_symme    :      1.37s CPU      0.05s WALL (     201 calls)
 
     PWSCF        :      1h14m CPU   2m47.66s WALL

 
   This run was terminated on:   1:11:14  21May2023            

=------------------------------------------------------------------------------=
   JOB DONE.
=------------------------------------------------------------------------------=
