
     Program PWSCF v.7.0 starts on 20May2023 at 21:28: 3 

     This program is part of the open-source Quantum ESPRESSO suite
     for quantum simulation of materials; please cite
         "P. Giannozzi et al., J. Phys.:Condens. Matter 21 395502 (2009);
         "P. Giannozzi et al., J. Phys.:Condens. Matter 29 465901 (2017);
         "P. Giannozzi et al., J. Chem. Phys. 152 154105 (2020);
          URL http://www.quantum-espresso.org", 
     in publications or presentations arising from this work. More details at
     http://www.quantum-espresso.org/quote

     Parallel version (MPI & OpenMP), running on      32 processor cores
     Number of MPI processes:                 1
     Threads/MPI process:                    32

     MPI processes distributed on     1 nodes
     139929 MiB available memory on the printing compute node when the environment starts
 
     Reading input from espresso_1737.pwi
Warning: card &CELL ignored
Warning: card / ignored

     Current dimensions of program PWSCF are:
     Max number of different atomic species (ntypx) = 10
     Max number of k-points (npk) =  40000
     Max angular momentum in pseudopotentials (lmaxx) =  4
     file Al.pbe-n-kjpaw_psl.1.0.0.UPF: wavefunction(s)  3S 3P renormalized

     gamma-point specific algorithms are used
     Message from routine setup:
     using ibrav=0 with symmetry is DISCOURAGED, use correct ibrav instead

     Subspace diagonalization in iterative solution of the eigenvalue problem:
     a serial algorithm will be used

 
     G-vector sticks info
     --------------------
     sticks:   dense  smooth     PW     G-vecs:    dense   smooth      PW
     Sum        1891     931    241                53497    18907    2421
 
     Using Slab Decomposition
 


     bravais-lattice index     =            0
     lattice parameter (alat)  =      10.6495  a.u.
     unit-cell volume          =     854.0336 (a.u.)^3
     number of atoms/cell      =            6
     number of atomic types    =            3
     number of electrons       =        38.00
     number of Kohn-Sham states=           23
     kinetic-energy cutoff     =      30.0000  Ry
     charge density cutoff     =     240.0000  Ry
     scf convergence threshold =      1.0E-06
     mixing beta               =       0.7000
     number of iterations used =            8  plain     mixing
     Exchange-correlation= SLA  PW   PBX  PBC
                           (   1   4   3   4   0   0   0)

     celldm(1)=  10.649519  celldm(2)=   0.000000  celldm(3)=   0.000000
     celldm(4)=   0.000000  celldm(5)=   0.000000  celldm(6)=   0.000000

     crystal axes: (cart. coord. in units of alat)
               a(1) = (   1.000000   0.000000   0.000000 )  
               a(2) = (   0.500000   0.866025   0.000000 )  
               a(3) = (   0.500000   0.288675   0.816497 )  

     reciprocal axes: (cart. coord. in units 2 pi/alat)
               b(1) = (  1.000000 -0.577350 -0.408248 )  
               b(2) = (  0.000000  1.154701 -0.408248 )  
               b(3) = (  0.000000  0.000000  1.224745 )  


     PseudoPot. # 1 for Ce read from file:
     /home/pragov/projects/rrg-bengioy-ad/pragov/crystal_structure_design/SSSP/Ce.GGA-PBE-paw-v1.0.UPF
     MD5 check sum: f2b950f613061344c13339c8d844425d
     Pseudo is Projector augmented-wave + core cor, Zval = 12.0
     Generated using ATOMPAW code
     Shape of augmentation charge: BESSEL
     Using radial grid of 1102 points,  8 beta functions with: 
                l(1) =   0
                l(2) =   0
                l(3) =   1
                l(4) =   1
                l(5) =   2
                l(6) =   2
                l(7) =   3
                l(8) =   3
     Q(r) pseudized with 0 coefficients 


     PseudoPot. # 2 for Nd read from file:
     /home/pragov/projects/rrg-bengioy-ad/pragov/crystal_structure_design/SSSP/Nd.GGA-PBE-paw-v1.0.UPF
     MD5 check sum: 1d1e94942b6eb1cde76049b71bb7dcb0
     Pseudo is Projector augmented-wave + core cor, Zval = 14.0
     Generated using ATOMPAW code
     Shape of augmentation charge: BESSEL
     Using radial grid of 1105 points,  8 beta functions with: 
                l(1) =   0
                l(2) =   0
                l(3) =   1
                l(4) =   1
                l(5) =   2
                l(6) =   2
                l(7) =   3
                l(8) =   3
     Q(r) pseudized with 0 coefficients 


     PseudoPot. # 3 for Al read from file:
     /home/pragov/projects/rrg-bengioy-ad/pragov/crystal_structure_design/SSSP/Al.pbe-n-kjpaw_psl.1.0.0.UPF
     MD5 check sum: cfc449ca30b5f3223ec38ddd88ac046d
     Pseudo is Projector augmented-wave + core cor, Zval =  3.0
     Generated using "atomic" code by A. Dal Corso  v.5.1
     Shape of augmentation charge: PSQ
     Using radial grid of 1135 points,  6 beta functions with: 
                l(1) =   0
                l(2) =   0
                l(3) =   1
                l(4) =   1
                l(5) =   2
                l(6) =   2
     Q(r) pseudized with 0 coefficients 


     atomic species   valence    mass     pseudopotential
        Ce            12.00   140.11600     Ce( 1.00)
        Nd            14.00   144.24200     Nd( 1.00)
        Al             3.00    26.98154     Al( 1.00)

      6 Sym. Ops. (no inversion) found


                                    s                        frac. trans.

      isym =  1     identity                                     

 cryst.   s( 1) = (     1          0          0      )
                  (     0          1          0      )
                  (     0          0          1      )

 cart.    s( 1) = (  1.0000000  0.0000000  0.0000000 )
                  (  0.0000000  1.0000000  0.0000000 )
                  (  0.0000000  0.0000000  1.0000000 )


      isym =  2     120 deg rotation - cryst. axis [0,0,1]       

 cryst.   s( 2) = (    -1          1          0      )
                  (    -1          0          0      )
                  (    -1          0          1      )

 cart.    s( 2) = ( -0.5000000 -0.8660254 -0.0000000 )
                  (  0.8660254 -0.5000000 -0.0000000 )
                  (  0.0000000  0.0000000  1.0000000 )


      isym =  3     120 deg rotation - cryst. axis [0,0,-1]      

 cryst.   s( 3) = (     0         -1          0      )
                  (     1         -1          0      )
                  (     0         -1          1      )

 cart.    s( 3) = ( -0.5000000  0.8660254  0.0000000 )
                  ( -0.8660254 -0.5000000 -0.0000000 )
                  (  0.0000000  0.0000000  1.0000000 )


      isym =  4     inv. 180 deg rotation - cart. axis [1,0,0]   

 cryst.   s( 4) = (    -1          0          0      )
                  (    -1          1          0      )
                  (    -1          0          1      )

 cart.    s( 4) = ( -1.0000000  0.0000000  0.0000000 )
                  (  0.0000000  1.0000000  0.0000000 )
                  (  0.0000000  0.0000000  1.0000000 )


      isym =  5     inv. 180 deg rotation - cryst. axis [0,1,0]  

 cryst.   s( 5) = (     0          1          0      )
                  (     1          0          0      )
                  (     0          0          1      )

 cart.    s( 5) = (  0.5000000  0.8660254  0.0000000 )
                  (  0.8660254 -0.5000000 -0.0000000 )
                  (  0.0000000  0.0000000  1.0000000 )


      isym =  6     inv. 180 deg rotation - cryst. axis [1,1,0]  

 cryst.   s( 6) = (     1         -1          0      )
                  (     0         -1          0      )
                  (     0         -1          1      )

 cart.    s( 6) = (  0.5000000 -0.8660254 -0.0000000 )
                  ( -0.8660254 -0.5000000 -0.0000000 )
                  (  0.0000000  0.0000000  1.0000000 )


   Cartesian axes

     site n.     atom                  positions (alat units)
         1           Ce  tau(   1) = (   0.5000000   0.2886751   0.2041241  )
         2           Nd  tau(   2) = (   0.0000000   0.0000000   0.0000000  )
         3           Al  tau(   3) = (   1.0000005   0.5773506   0.1036085  )
         4           Al  tau(   4) = (   1.0000005   0.2901332   0.5097952  )
         5           Al  tau(   5) = (   0.7512630   0.7209592   0.5097952  )
         6           Al  tau(   6) = (   1.2487380   0.7209592   0.5097952  )

   Crystallographic axes

     site n.     atom                  positions (cryst. coord.)
         1           Ce  tau(   1) = (  0.2500000  0.2500000  0.2500000  )
         2           Nd  tau(   2) = (  0.0000000  0.0000000  0.0000000  )
         3           Al  tau(   3) = (  0.6243690  0.6243690  0.1268940  )
         4           Al  tau(   4) = (  0.6243690  0.1268940  0.6243690  )
         5           Al  tau(   5) = (  0.1268940  0.6243690  0.6243690  )
         6           Al  tau(   6) = (  0.6243690  0.6243690  0.6243690  )

     number of k points=     1  Methfessel-Paxton smearing, width (Ry)=  0.0010
                       cart. coord. in units 2pi/alat
        k(    1) = (   0.0000000   0.0000000   0.0000000), wk =   2.0000000

                       cryst. coord.
        k(    1) = (   0.0000000   0.0000000   0.0000000), wk =   2.0000000

     Dense  grid:    26749 G-vectors     FFT dimensions: (  54,  54,  54)

     Smooth grid:     9454 G-vectors     FFT dimensions: (  40,  40,  40)

     Dynamical RAM for                 wfc:       0.42 MB

     Dynamical RAM for     wfc (w. buffer):       0.42 MB

     Dynamical RAM for           str. fact:       1.22 MB

     Dynamical RAM for           local pot:       0.00 MB

     Dynamical RAM for          nlocal pot:       2.46 MB

     Dynamical RAM for                qrad:       8.96 MB

     Dynamical RAM for          rho,v,vnew:       4.83 MB

     Dynamical RAM for               rhoin:       1.61 MB

     Dynamical RAM for            rho*nmix:       6.53 MB

     Dynamical RAM for           G-vectors:       1.60 MB

     Dynamical RAM for          h,s,v(r/c):       0.05 MB

     Dynamical RAM for          <psi|beta>:       0.02 MB

     Dynamical RAM for                 psi:       0.83 MB

     Dynamical RAM for                hpsi:       0.83 MB

     Dynamical RAM for                spsi:       0.83 MB

     Dynamical RAM for      wfcinit/wfcrot:       3.04 MB

     Dynamical RAM for           addusdens:     228.16 MB

     Dynamical RAM for          addusforce:     230.86 MB

     Dynamical RAM for         addusstress:     237.55 MB

     Estimated static dynamical RAM per process >      28.74 MB

     Estimated max dynamical RAM per process >     272.82 MB

     Initial potential from superposition of free atoms

     starting charge      37.9777, renormalised to      38.0000
     Starting wfcs are   80 randomized atomic wfcs
     Checking if some PAW data can be deallocated... 

     total cpu time spent up to now is        6.5 secs

     Self-consistent Calculation

     iteration #  1     ecut=    30.00 Ry     beta= 0.70
     Davidson diagonalization with overlap

---- Real-time Memory Report at c_bands before calling an iterative solver
           556 MiB given to the printing process from OS
             0 MiB allocation reported by mallinfo(arena+hblkhd)
        139643 MiB available memory on the node where the printing process lives
------------------
     ethr =  1.00E-02,  avg # of iterations =  2.0

     total cpu time spent up to now is        7.9 secs

     total energy              =   -1176.72379433 Ry
     estimated scf accuracy    <       1.29125726 Ry

     iteration #  2     ecut=    30.00 Ry     beta= 0.70
     Davidson diagonalization with overlap

---- Real-time Memory Report at c_bands before calling an iterative solver
           710 MiB given to the printing process from OS
             0 MiB allocation reported by mallinfo(arena+hblkhd)
        139623 MiB available memory on the node where the printing process lives
------------------
     ethr =  3.40E-03,  avg # of iterations =  8.0

     total cpu time spent up to now is        9.4 secs

     total energy              =   -1172.73468313 Ry
     estimated scf accuracy    <     123.47265860 Ry

     iteration #  3     ecut=    30.00 Ry     beta= 0.70
     Davidson diagonalization with overlap

---- Real-time Memory Report at c_bands before calling an iterative solver
           724 MiB given to the printing process from OS
             0 MiB allocation reported by mallinfo(arena+hblkhd)
        139609 MiB available memory on the node where the printing process lives
------------------
     ethr =  3.40E-03,  avg # of iterations = 11.0

     total cpu time spent up to now is       10.9 secs

     total energy              =   -1176.23999287 Ry
     estimated scf accuracy    <      56.03256890 Ry

     iteration #  4     ecut=    30.00 Ry     beta= 0.70
     Davidson diagonalization with overlap

---- Real-time Memory Report at c_bands before calling an iterative solver
           724 MiB given to the printing process from OS
             0 MiB allocation reported by mallinfo(arena+hblkhd)
        139609 MiB available memory on the node where the printing process lives
------------------
     ethr =  3.40E-03,  avg # of iterations =  8.0

     total cpu time spent up to now is       12.4 secs

     total energy              =   -1177.28302199 Ry
     estimated scf accuracy    <       1.36613196 Ry

     iteration #  5     ecut=    30.00 Ry     beta= 0.70
     Davidson diagonalization with overlap

---- Real-time Memory Report at c_bands before calling an iterative solver
           724 MiB given to the printing process from OS
             0 MiB allocation reported by mallinfo(arena+hblkhd)
        139603 MiB available memory on the node where the printing process lives
------------------
     ethr =  3.40E-03,  avg # of iterations =  2.0

     total cpu time spent up to now is       13.7 secs

     total energy              =   -1177.14296365 Ry
     estimated scf accuracy    <       1.15863147 Ry

     iteration #  6     ecut=    30.00 Ry     beta= 0.70
     Davidson diagonalization with overlap

---- Real-time Memory Report at c_bands before calling an iterative solver
           724 MiB given to the printing process from OS
             0 MiB allocation reported by mallinfo(arena+hblkhd)
        139603 MiB available memory on the node where the printing process lives
------------------
     ethr =  3.05E-03,  avg # of iterations =  2.0

     total cpu time spent up to now is       15.0 secs

     total energy              =   -1176.83643056 Ry
     estimated scf accuracy    <       0.90192844 Ry

     iteration #  7     ecut=    30.00 Ry     beta= 0.70
     Davidson diagonalization with overlap

---- Real-time Memory Report at c_bands before calling an iterative solver
           724 MiB given to the printing process from OS
             0 MiB allocation reported by mallinfo(arena+hblkhd)
        139603 MiB available memory on the node where the printing process lives
------------------
     ethr =  2.37E-03,  avg # of iterations = 13.0

     total cpu time spent up to now is       16.4 secs

     total energy              =   -1177.92399298 Ry
     estimated scf accuracy    <       1.09810935 Ry

     iteration #  8     ecut=    30.00 Ry     beta= 0.70
     Davidson diagonalization with overlap

---- Real-time Memory Report at c_bands before calling an iterative solver
           724 MiB given to the printing process from OS
             0 MiB allocation reported by mallinfo(arena+hblkhd)
        139605 MiB available memory on the node where the printing process lives
------------------
     ethr =  2.37E-03,  avg # of iterations =  9.0

     total cpu time spent up to now is       17.8 secs

     total energy              =   -1178.17965120 Ry
     estimated scf accuracy    <       1.68268915 Ry

     iteration #  9     ecut=    30.00 Ry     beta= 0.70
     Davidson diagonalization with overlap

---- Real-time Memory Report at c_bands before calling an iterative solver
           724 MiB given to the printing process from OS
             0 MiB allocation reported by mallinfo(arena+hblkhd)
        139605 MiB available memory on the node where the printing process lives
------------------
     ethr =  2.37E-03,  avg # of iterations =  1.0

     total cpu time spent up to now is       19.1 secs

     total energy              =   -1177.95468336 Ry
     estimated scf accuracy    <       1.57194491 Ry

     iteration # 10     ecut=    30.00 Ry     beta= 0.70
     Davidson diagonalization with overlap

---- Real-time Memory Report at c_bands before calling an iterative solver
           724 MiB given to the printing process from OS
             0 MiB allocation reported by mallinfo(arena+hblkhd)
        139605 MiB available memory on the node where the printing process lives
------------------
     ethr =  2.37E-03,  avg # of iterations =  1.0

     total cpu time spent up to now is       20.4 secs

     total energy              =   -1177.64993902 Ry
     estimated scf accuracy    <       1.21700813 Ry

     iteration # 11     ecut=    30.00 Ry     beta= 0.70
     Davidson diagonalization with overlap

---- Real-time Memory Report at c_bands before calling an iterative solver
           724 MiB given to the printing process from OS
             0 MiB allocation reported by mallinfo(arena+hblkhd)
        139607 MiB available memory on the node where the printing process lives
------------------
     ethr =  2.37E-03,  avg # of iterations =  1.0

     total cpu time spent up to now is       21.7 secs

     total energy              =   -1178.09714761 Ry
     estimated scf accuracy    <       0.64652945 Ry

     iteration # 12     ecut=    30.00 Ry     beta= 0.70
     Davidson diagonalization with overlap

---- Real-time Memory Report at c_bands before calling an iterative solver
           724 MiB given to the printing process from OS
             0 MiB allocation reported by mallinfo(arena+hblkhd)
        139608 MiB available memory on the node where the printing process lives
------------------
     ethr =  1.70E-03,  avg # of iterations =  2.0

     total cpu time spent up to now is       23.0 secs

     total energy              =   -1178.26102116 Ry
     estimated scf accuracy    <       1.29821215 Ry

     iteration # 13     ecut=    30.00 Ry     beta= 0.70
     Davidson diagonalization with overlap

---- Real-time Memory Report at c_bands before calling an iterative solver
           724 MiB given to the printing process from OS
             0 MiB allocation reported by mallinfo(arena+hblkhd)
        139609 MiB available memory on the node where the printing process lives
------------------
     ethr =  1.70E-03,  avg # of iterations =  1.0

     total cpu time spent up to now is       24.3 secs

     total energy              =   -1178.19319023 Ry
     estimated scf accuracy    <       1.45769087 Ry

     iteration # 14     ecut=    30.00 Ry     beta= 0.70
     Davidson diagonalization with overlap

---- Real-time Memory Report at c_bands before calling an iterative solver
           724 MiB given to the printing process from OS
             0 MiB allocation reported by mallinfo(arena+hblkhd)
        139609 MiB available memory on the node where the printing process lives
------------------
     ethr =  1.70E-03,  avg # of iterations =  1.0

     total cpu time spent up to now is       25.6 secs

     total energy              =   -1178.21427285 Ry
     estimated scf accuracy    <       1.47138274 Ry

     iteration # 15     ecut=    30.00 Ry     beta= 0.70
     Davidson diagonalization with overlap

---- Real-time Memory Report at c_bands before calling an iterative solver
           724 MiB given to the printing process from OS
             0 MiB allocation reported by mallinfo(arena+hblkhd)
        139610 MiB available memory on the node where the printing process lives
------------------
     ethr =  1.70E-03,  avg # of iterations =  1.0

     negative rho (up, down):  1.556E-03 0.000E+00

     total cpu time spent up to now is       26.9 secs

     total energy              =   -1177.56643564 Ry
     estimated scf accuracy    <       1.55229003 Ry

     iteration # 16     ecut=    30.00 Ry     beta= 0.70
     Davidson diagonalization with overlap

---- Real-time Memory Report at c_bands before calling an iterative solver
           724 MiB given to the printing process from OS
             0 MiB allocation reported by mallinfo(arena+hblkhd)
        139610 MiB available memory on the node where the printing process lives
------------------
     ethr =  1.70E-03,  avg # of iterations = 15.0

     total cpu time spent up to now is       28.5 secs

     total energy              =   -1175.56833066 Ry
     estimated scf accuracy    <     109.55340419 Ry

     iteration # 17     ecut=    30.00 Ry     beta= 0.70
     Davidson diagonalization with overlap

---- Real-time Memory Report at c_bands before calling an iterative solver
           724 MiB given to the printing process from OS
             0 MiB allocation reported by mallinfo(arena+hblkhd)
        139612 MiB available memory on the node where the printing process lives
------------------
     ethr =  1.70E-03,  avg # of iterations = 11.0

     total cpu time spent up to now is       30.1 secs

     total energy              =   -1178.08016741 Ry
     estimated scf accuracy    <      73.09711800 Ry

     iteration # 18     ecut=    30.00 Ry     beta= 0.70
     Davidson diagonalization with overlap

---- Real-time Memory Report at c_bands before calling an iterative solver
           724 MiB given to the printing process from OS
             0 MiB allocation reported by mallinfo(arena+hblkhd)
        139612 MiB available memory on the node where the printing process lives
------------------
     ethr =  1.70E-03,  avg # of iterations =  2.0

     total cpu time spent up to now is       31.4 secs

     total energy              =   -1178.28276471 Ry
     estimated scf accuracy    <      18.65152010 Ry

     iteration # 19     ecut=    30.00 Ry     beta= 0.70
     Davidson diagonalization with overlap

---- Real-time Memory Report at c_bands before calling an iterative solver
           724 MiB given to the printing process from OS
             0 MiB allocation reported by mallinfo(arena+hblkhd)
        139613 MiB available memory on the node where the printing process lives
------------------
     ethr =  1.70E-03,  avg # of iterations =  1.0

     total cpu time spent up to now is       32.7 secs

     total energy              =   -1178.00782524 Ry
     estimated scf accuracy    <      17.75089533 Ry

     iteration # 20     ecut=    30.00 Ry     beta= 0.70
     Davidson diagonalization with overlap

---- Real-time Memory Report at c_bands before calling an iterative solver
           724 MiB given to the printing process from OS
             0 MiB allocation reported by mallinfo(arena+hblkhd)
        139613 MiB available memory on the node where the printing process lives
------------------
     ethr =  1.70E-03,  avg # of iterations =  1.0

     total cpu time spent up to now is       34.0 secs

     total energy              =   -1177.46367181 Ry
     estimated scf accuracy    <      13.03106262 Ry

     iteration # 21     ecut=    30.00 Ry     beta= 0.70
     Davidson diagonalization with overlap

---- Real-time Memory Report at c_bands before calling an iterative solver
           724 MiB given to the printing process from OS
             0 MiB allocation reported by mallinfo(arena+hblkhd)
        139614 MiB available memory on the node where the printing process lives
------------------
     ethr =  1.70E-03,  avg # of iterations =  1.0

     total cpu time spent up to now is       35.3 secs

     total energy              =   -1177.24004022 Ry
     estimated scf accuracy    <       5.94647542 Ry

     iteration # 22     ecut=    30.00 Ry     beta= 0.70
     Davidson diagonalization with overlap

---- Real-time Memory Report at c_bands before calling an iterative solver
           724 MiB given to the printing process from OS
             0 MiB allocation reported by mallinfo(arena+hblkhd)
        139615 MiB available memory on the node where the printing process lives
------------------
     ethr =  1.70E-03,  avg # of iterations =  1.0

     total cpu time spent up to now is       36.6 secs

     total energy              =   -1177.55572778 Ry
     estimated scf accuracy    <       4.74765824 Ry

     iteration # 23     ecut=    30.00 Ry     beta= 0.70
     Davidson diagonalization with overlap

---- Real-time Memory Report at c_bands before calling an iterative solver
           724 MiB given to the printing process from OS
             0 MiB allocation reported by mallinfo(arena+hblkhd)
        139615 MiB available memory on the node where the printing process lives
------------------
     ethr =  1.70E-03,  avg # of iterations =  1.0

     total cpu time spent up to now is       37.9 secs

     total energy              =   -1177.54807133 Ry
     estimated scf accuracy    <       4.80219055 Ry

     iteration # 24     ecut=    30.00 Ry     beta= 0.70
     Davidson diagonalization with overlap

---- Real-time Memory Report at c_bands before calling an iterative solver
           724 MiB given to the printing process from OS
             0 MiB allocation reported by mallinfo(arena+hblkhd)
        139614 MiB available memory on the node where the printing process lives
------------------
     ethr =  1.70E-03,  avg # of iterations =  1.0

     total cpu time spent up to now is       39.2 secs

     total energy              =   -1177.39996645 Ry
     estimated scf accuracy    <       4.42513185 Ry

     iteration # 25     ecut=    30.00 Ry     beta= 0.70
     Davidson diagonalization with overlap

---- Real-time Memory Report at c_bands before calling an iterative solver
           724 MiB given to the printing process from OS
             0 MiB allocation reported by mallinfo(arena+hblkhd)
        139615 MiB available memory on the node where the printing process lives
------------------
     ethr =  1.70E-03,  avg # of iterations = 14.0

     total cpu time spent up to now is       40.7 secs

     total energy              =   -1177.62854382 Ry
     estimated scf accuracy    <       1.82534877 Ry

     iteration # 26     ecut=    30.00 Ry     beta= 0.70
     Davidson diagonalization with overlap

---- Real-time Memory Report at c_bands before calling an iterative solver
           724 MiB given to the printing process from OS
             0 MiB allocation reported by mallinfo(arena+hblkhd)
        139615 MiB available memory on the node where the printing process lives
------------------
     ethr =  1.70E-03,  avg # of iterations = 14.0

     total cpu time spent up to now is       42.4 secs

     total energy              =   -1175.30306297 Ry
     estimated scf accuracy    <     111.85561805 Ry

     iteration # 27     ecut=    30.00 Ry     beta= 0.70
     Davidson diagonalization with overlap

---- Real-time Memory Report at c_bands before calling an iterative solver
           724 MiB given to the printing process from OS
             0 MiB allocation reported by mallinfo(arena+hblkhd)
        139611 MiB available memory on the node where the printing process lives
------------------
     ethr =  1.70E-03,  avg # of iterations = 15.0

     total cpu time spent up to now is       43.8 secs

     total energy              =   -1177.96395265 Ry
     estimated scf accuracy    <       3.74557994 Ry

     iteration # 28     ecut=    30.00 Ry     beta= 0.70
     Davidson diagonalization with overlap

---- Real-time Memory Report at c_bands before calling an iterative solver
           724 MiB given to the printing process from OS
             0 MiB allocation reported by mallinfo(arena+hblkhd)
        139612 MiB available memory on the node where the printing process lives
------------------
     ethr =  1.70E-03,  avg # of iterations =  1.0

     total cpu time spent up to now is       45.2 secs

     total energy              =   -1177.86081866 Ry
     estimated scf accuracy    <       3.42210664 Ry

     iteration # 29     ecut=    30.00 Ry     beta= 0.70
     Davidson diagonalization with overlap

---- Real-time Memory Report at c_bands before calling an iterative solver
           724 MiB given to the printing process from OS
             0 MiB allocation reported by mallinfo(arena+hblkhd)
        139612 MiB available memory on the node where the printing process lives
------------------
     ethr =  1.70E-03,  avg # of iterations =  1.0

     total cpu time spent up to now is       46.5 secs

     total energy              =   -1177.88713721 Ry
     estimated scf accuracy    <       2.97009842 Ry

     iteration # 30     ecut=    30.00 Ry     beta= 0.70
     Davidson diagonalization with overlap

---- Real-time Memory Report at c_bands before calling an iterative solver
           724 MiB given to the printing process from OS
             0 MiB allocation reported by mallinfo(arena+hblkhd)
        139613 MiB available memory on the node where the printing process lives
------------------
     ethr =  1.70E-03,  avg # of iterations =  1.0

     total cpu time spent up to now is       47.8 secs

     total energy              =   -1177.58025544 Ry
     estimated scf accuracy    <       2.77453700 Ry

     iteration # 31     ecut=    30.00 Ry     beta= 0.70
     Davidson diagonalization with overlap

---- Real-time Memory Report at c_bands before calling an iterative solver
           725 MiB given to the printing process from OS
             0 MiB allocation reported by mallinfo(arena+hblkhd)
        139613 MiB available memory on the node where the printing process lives
------------------
     ethr =  1.70E-03,  avg # of iterations =  9.0

     total cpu time spent up to now is       49.2 secs

     total energy              =   -1177.57691518 Ry
     estimated scf accuracy    <       8.92512322 Ry

     iteration # 32     ecut=    30.00 Ry     beta= 0.70
     Davidson diagonalization with overlap

---- Real-time Memory Report at c_bands before calling an iterative solver
           725 MiB given to the printing process from OS
             0 MiB allocation reported by mallinfo(arena+hblkhd)
        139612 MiB available memory on the node where the printing process lives
------------------
     ethr =  1.70E-03,  avg # of iterations =  2.0

     total cpu time spent up to now is       50.5 secs

     total energy              =   -1177.85342708 Ry
     estimated scf accuracy    <       0.62631326 Ry

     iteration # 33     ecut=    30.00 Ry     beta= 0.70
     Davidson diagonalization with overlap

---- Real-time Memory Report at c_bands before calling an iterative solver
           725 MiB given to the printing process from OS
             0 MiB allocation reported by mallinfo(arena+hblkhd)
        139612 MiB available memory on the node where the printing process lives
------------------
     ethr =  1.65E-03,  avg # of iterations =  1.0

     total cpu time spent up to now is       51.8 secs

     total energy              =   -1177.69082536 Ry
     estimated scf accuracy    <       0.74234639 Ry

     iteration # 34     ecut=    30.00 Ry     beta= 0.70
     Davidson diagonalization with overlap

---- Real-time Memory Report at c_bands before calling an iterative solver
           725 MiB given to the printing process from OS
             0 MiB allocation reported by mallinfo(arena+hblkhd)
        139613 MiB available memory on the node where the printing process lives
------------------
     ethr =  1.65E-03,  avg # of iterations =  4.0

     total cpu time spent up to now is       53.2 secs

     total energy              =   -1177.58503230 Ry
     estimated scf accuracy    <      17.25322216 Ry

     iteration # 35     ecut=    30.00 Ry     beta= 0.70
     Davidson diagonalization with overlap

---- Real-time Memory Report at c_bands before calling an iterative solver
           725 MiB given to the printing process from OS
             0 MiB allocation reported by mallinfo(arena+hblkhd)
        139614 MiB available memory on the node where the printing process lives
------------------
     ethr =  1.65E-03,  avg # of iterations =  1.0

     total cpu time spent up to now is       54.5 secs

     total energy              =   -1177.77321770 Ry
     estimated scf accuracy    <       0.43357978 Ry

     iteration # 36     ecut=    30.00 Ry     beta= 0.70
     Davidson diagonalization with overlap

---- Real-time Memory Report at c_bands before calling an iterative solver
           725 MiB given to the printing process from OS
             0 MiB allocation reported by mallinfo(arena+hblkhd)
        139615 MiB available memory on the node where the printing process lives
------------------
     ethr =  1.14E-03,  avg # of iterations =  1.0

     total cpu time spent up to now is       55.8 secs

     total energy              =   -1177.77644045 Ry
     estimated scf accuracy    <       0.40303610 Ry

     iteration # 37     ecut=    30.00 Ry     beta= 0.70
     Davidson diagonalization with overlap

---- Real-time Memory Report at c_bands before calling an iterative solver
           725 MiB given to the printing process from OS
             0 MiB allocation reported by mallinfo(arena+hblkhd)
        139638 MiB available memory on the node where the printing process lives
------------------
     ethr =  1.06E-03,  avg # of iterations =  1.0

     total cpu time spent up to now is       57.1 secs

     total energy              =   -1177.77626355 Ry
     estimated scf accuracy    <       0.48752385 Ry

     iteration # 38     ecut=    30.00 Ry     beta= 0.70
     Davidson diagonalization with overlap

---- Real-time Memory Report at c_bands before calling an iterative solver
           725 MiB given to the printing process from OS
             0 MiB allocation reported by mallinfo(arena+hblkhd)
        139637 MiB available memory on the node where the printing process lives
------------------
     ethr =  1.06E-03,  avg # of iterations =  2.0

     total cpu time spent up to now is       59.3 secs

     total energy              =   -1177.77735962 Ry
     estimated scf accuracy    <       0.57446946 Ry

     iteration # 39     ecut=    30.00 Ry     beta= 0.70
     Davidson diagonalization with overlap

---- Real-time Memory Report at c_bands before calling an iterative solver
           725 MiB given to the printing process from OS
             0 MiB allocation reported by mallinfo(arena+hblkhd)
        139628 MiB available memory on the node where the printing process lives
------------------
     ethr =  1.06E-03,  avg # of iterations =  1.0

     total cpu time spent up to now is       61.2 secs

     total energy              =   -1177.78638963 Ry
     estimated scf accuracy    <       0.56868216 Ry

     iteration # 40     ecut=    30.00 Ry     beta= 0.70
     Davidson diagonalization with overlap

---- Real-time Memory Report at c_bands before calling an iterative solver
           725 MiB given to the printing process from OS
             0 MiB allocation reported by mallinfo(arena+hblkhd)
        139631 MiB available memory on the node where the printing process lives
------------------
     ethr =  1.06E-03,  avg # of iterations = 13.0

     total cpu time spent up to now is       62.7 secs

     total energy              =   -1176.70243470 Ry
     estimated scf accuracy    <      23.93144965 Ry

     iteration # 41     ecut=    30.00 Ry     beta= 0.70
     Davidson diagonalization with overlap

---- Real-time Memory Report at c_bands before calling an iterative solver
           725 MiB given to the printing process from OS
             0 MiB allocation reported by mallinfo(arena+hblkhd)
        139632 MiB available memory on the node where the printing process lives
------------------
     ethr =  1.06E-03,  avg # of iterations = 10.0

     total cpu time spent up to now is       64.1 secs

     total energy              =   -1177.74140276 Ry
     estimated scf accuracy    <       0.45371291 Ry

     iteration # 42     ecut=    30.00 Ry     beta= 0.70
     Davidson diagonalization with overlap

---- Real-time Memory Report at c_bands before calling an iterative solver
           725 MiB given to the printing process from OS
             0 MiB allocation reported by mallinfo(arena+hblkhd)
        139635 MiB available memory on the node where the printing process lives
------------------
     ethr =  1.06E-03,  avg # of iterations =  2.0

     total cpu time spent up to now is       65.4 secs

     total energy              =   -1177.73336682 Ry
     estimated scf accuracy    <       0.37069039 Ry

     iteration # 43     ecut=    30.00 Ry     beta= 0.70
     Davidson diagonalization with overlap

---- Real-time Memory Report at c_bands before calling an iterative solver
           725 MiB given to the printing process from OS
             0 MiB allocation reported by mallinfo(arena+hblkhd)
        139636 MiB available memory on the node where the printing process lives
------------------
     ethr =  9.76E-04,  avg # of iterations =  2.0

     total cpu time spent up to now is       66.7 secs

     total energy              =   -1177.66612671 Ry
     estimated scf accuracy    <       0.33246890 Ry

     iteration # 44     ecut=    30.00 Ry     beta= 0.70
     Davidson diagonalization with overlap

---- Real-time Memory Report at c_bands before calling an iterative solver
           725 MiB given to the printing process from OS
             0 MiB allocation reported by mallinfo(arena+hblkhd)
        139637 MiB available memory on the node where the printing process lives
------------------
     ethr =  8.75E-04,  avg # of iterations = 14.0

     total cpu time spent up to now is       68.1 secs

     total energy              =   -1177.66931975 Ry
     estimated scf accuracy    <      30.64805503 Ry

     iteration # 45     ecut=    30.00 Ry     beta= 0.70
     Davidson diagonalization with overlap

---- Real-time Memory Report at c_bands before calling an iterative solver
           725 MiB given to the printing process from OS
             0 MiB allocation reported by mallinfo(arena+hblkhd)
        139638 MiB available memory on the node where the printing process lives
------------------
     ethr =  8.75E-04,  avg # of iterations =  1.0

     total cpu time spent up to now is       69.4 secs

     total energy              =   -1177.74439598 Ry
     estimated scf accuracy    <       5.14212536 Ry

     iteration # 46     ecut=    30.00 Ry     beta= 0.70
     Davidson diagonalization with overlap

---- Real-time Memory Report at c_bands before calling an iterative solver
           725 MiB given to the printing process from OS
             0 MiB allocation reported by mallinfo(arena+hblkhd)
        139639 MiB available memory on the node where the printing process lives
------------------
     ethr =  8.75E-04,  avg # of iterations =  1.0

     total cpu time spent up to now is       70.7 secs

     total energy              =   -1177.74472578 Ry
     estimated scf accuracy    <       2.58704104 Ry

     iteration # 47     ecut=    30.00 Ry     beta= 0.70
     Davidson diagonalization with overlap

---- Real-time Memory Report at c_bands before calling an iterative solver
           725 MiB given to the printing process from OS
             0 MiB allocation reported by mallinfo(arena+hblkhd)
        139639 MiB available memory on the node where the printing process lives
------------------
     ethr =  8.75E-04,  avg # of iterations =  1.0

     total cpu time spent up to now is       72.1 secs

     total energy              =   -1177.75497591 Ry
     estimated scf accuracy    <       2.35678056 Ry

     iteration # 48     ecut=    30.00 Ry     beta= 0.70
     Davidson diagonalization with overlap

---- Real-time Memory Report at c_bands before calling an iterative solver
           725 MiB given to the printing process from OS
             0 MiB allocation reported by mallinfo(arena+hblkhd)
        139638 MiB available memory on the node where the printing process lives
------------------
     ethr =  8.75E-04,  avg # of iterations =  1.0

     total cpu time spent up to now is       73.4 secs

     total energy              =   -1177.74019240 Ry
     estimated scf accuracy    <       2.21809694 Ry

     iteration # 49     ecut=    30.00 Ry     beta= 0.70
     Davidson diagonalization with overlap

---- Real-time Memory Report at c_bands before calling an iterative solver
           725 MiB given to the printing process from OS
             0 MiB allocation reported by mallinfo(arena+hblkhd)
        139639 MiB available memory on the node where the printing process lives
------------------
     ethr =  8.75E-04,  avg # of iterations =  1.0

     total cpu time spent up to now is       74.7 secs

     total energy              =   -1177.63259281 Ry
     estimated scf accuracy    <       1.98917274 Ry

     iteration # 50     ecut=    30.00 Ry     beta= 0.70
     Davidson diagonalization with overlap

---- Real-time Memory Report at c_bands before calling an iterative solver
           725 MiB given to the printing process from OS
             0 MiB allocation reported by mallinfo(arena+hblkhd)
        139640 MiB available memory on the node where the printing process lives
------------------
     ethr =  8.75E-04,  avg # of iterations = 15.0

     total cpu time spent up to now is       76.3 secs

     total energy              =   -1176.09280712 Ry
     estimated scf accuracy    <     112.69057031 Ry

     iteration # 51     ecut=    30.00 Ry     beta= 0.70
     Davidson diagonalization with overlap

---- Real-time Memory Report at c_bands before calling an iterative solver
           725 MiB given to the printing process from OS
             0 MiB allocation reported by mallinfo(arena+hblkhd)
        139639 MiB available memory on the node where the printing process lives
------------------
     ethr =  8.75E-04,  avg # of iterations = 16.0

     total cpu time spent up to now is       77.9 secs

     total energy              =   -1177.72170562 Ry
     estimated scf accuracy    <       0.62284553 Ry

     iteration # 52     ecut=    30.00 Ry     beta= 0.70
     Davidson diagonalization with overlap

---- Real-time Memory Report at c_bands before calling an iterative solver
           725 MiB given to the printing process from OS
             0 MiB allocation reported by mallinfo(arena+hblkhd)
        139640 MiB available memory on the node where the printing process lives
------------------
     ethr =  8.75E-04,  avg # of iterations =  2.0

     total cpu time spent up to now is       79.2 secs

     total energy              =   -1177.65495901 Ry
     estimated scf accuracy    <       0.63393639 Ry

     iteration # 53     ecut=    30.00 Ry     beta= 0.70
     Davidson diagonalization with overlap

---- Real-time Memory Report at c_bands before calling an iterative solver
           725 MiB given to the printing process from OS
             0 MiB allocation reported by mallinfo(arena+hblkhd)
        139641 MiB available memory on the node where the printing process lives
------------------
     ethr =  8.75E-04,  avg # of iterations =  2.0

     total cpu time spent up to now is       80.5 secs

     total energy              =   -1177.66744983 Ry
     estimated scf accuracy    <       0.35199978 Ry

     iteration # 54     ecut=    30.00 Ry     beta= 0.70
     Davidson diagonalization with overlap

---- Real-time Memory Report at c_bands before calling an iterative solver
           725 MiB given to the printing process from OS
             0 MiB allocation reported by mallinfo(arena+hblkhd)
        139641 MiB available memory on the node where the printing process lives
------------------
     ethr =  8.75E-04,  avg # of iterations =  8.0

     total cpu time spent up to now is       81.8 secs

     total energy              =   -1177.76659854 Ry
     estimated scf accuracy    <       0.36124600 Ry

     iteration # 55     ecut=    30.00 Ry     beta= 0.70
     Davidson diagonalization with overlap

---- Real-time Memory Report at c_bands before calling an iterative solver
           725 MiB given to the printing process from OS
             0 MiB allocation reported by mallinfo(arena+hblkhd)
        139642 MiB available memory on the node where the printing process lives
------------------
     ethr =  8.75E-04,  avg # of iterations =  1.0

     total cpu time spent up to now is       83.1 secs

     total energy              =   -1177.74021132 Ry
     estimated scf accuracy    <       0.37073151 Ry

     iteration # 56     ecut=    30.00 Ry     beta= 0.70
     Davidson diagonalization with overlap

---- Real-time Memory Report at c_bands before calling an iterative solver
           725 MiB given to the printing process from OS
             0 MiB allocation reported by mallinfo(arena+hblkhd)
        139642 MiB available memory on the node where the printing process lives
------------------
     ethr =  8.75E-04,  avg # of iterations =  1.0

     total cpu time spent up to now is       84.4 secs

     total energy              =   -1177.75181251 Ry
     estimated scf accuracy    <       0.37431682 Ry

     iteration # 57     ecut=    30.00 Ry     beta= 0.70
     Davidson diagonalization with overlap

---- Real-time Memory Report at c_bands before calling an iterative solver
           725 MiB given to the printing process from OS
             0 MiB allocation reported by mallinfo(arena+hblkhd)
        139642 MiB available memory on the node where the printing process lives
------------------
     ethr =  8.75E-04,  avg # of iterations =  1.0

     total cpu time spent up to now is       85.7 secs

     total energy              =   -1177.73527882 Ry
     estimated scf accuracy    <       0.28794910 Ry

     iteration # 58     ecut=    30.00 Ry     beta= 0.70
     Davidson diagonalization with overlap

---- Real-time Memory Report at c_bands before calling an iterative solver
           725 MiB given to the printing process from OS
             0 MiB allocation reported by mallinfo(arena+hblkhd)
        139642 MiB available memory on the node where the printing process lives
------------------
     ethr =  7.58E-04,  avg # of iterations =  1.0

     total cpu time spent up to now is       87.0 secs

     total energy              =   -1177.73721236 Ry
     estimated scf accuracy    <       0.23685815 Ry

     iteration # 59     ecut=    30.00 Ry     beta= 0.70
     Davidson diagonalization with overlap

---- Real-time Memory Report at c_bands before calling an iterative solver
           725 MiB given to the printing process from OS
             0 MiB allocation reported by mallinfo(arena+hblkhd)
        139642 MiB available memory on the node where the printing process lives
------------------
     ethr =  6.23E-04,  avg # of iterations =  1.0

     total cpu time spent up to now is       88.3 secs

     total energy              =   -1177.70121101 Ry
     estimated scf accuracy    <       0.19536378 Ry

     iteration # 60     ecut=    30.00 Ry     beta= 0.70
     Davidson diagonalization with overlap

---- Real-time Memory Report at c_bands before calling an iterative solver
           725 MiB given to the printing process from OS
             0 MiB allocation reported by mallinfo(arena+hblkhd)
        139643 MiB available memory on the node where the printing process lives
------------------
     ethr =  5.14E-04,  avg # of iterations = 16.0

     total cpu time spent up to now is       90.0 secs

     total energy              =   -1176.56529387 Ry
     estimated scf accuracy    <      96.40210621 Ry

     iteration # 61     ecut=    30.00 Ry     beta= 0.70
     Davidson diagonalization with overlap

---- Real-time Memory Report at c_bands before calling an iterative solver
           725 MiB given to the printing process from OS
             0 MiB allocation reported by mallinfo(arena+hblkhd)
        139642 MiB available memory on the node where the printing process lives
------------------
     ethr =  5.14E-04,  avg # of iterations = 10.0

     total cpu time spent up to now is       91.4 secs

     total energy              =   -1177.71223710 Ry
     estimated scf accuracy    <       0.04372794 Ry

     iteration # 62     ecut=    30.00 Ry     beta= 0.70
     Davidson diagonalization with overlap

---- Real-time Memory Report at c_bands before calling an iterative solver
           725 MiB given to the printing process from OS
             0 MiB allocation reported by mallinfo(arena+hblkhd)
        139643 MiB available memory on the node where the printing process lives
------------------
     ethr =  1.15E-04,  avg # of iterations = 17.0

     total cpu time spent up to now is       92.9 secs

     total energy              =   -1177.72177162 Ry
     estimated scf accuracy    <       0.15656745 Ry

     iteration # 63     ecut=    30.00 Ry     beta= 0.70
     Davidson diagonalization with overlap

---- Real-time Memory Report at c_bands before calling an iterative solver
           725 MiB given to the printing process from OS
             0 MiB allocation reported by mallinfo(arena+hblkhd)
        139643 MiB available memory on the node where the printing process lives
------------------
     ethr =  1.15E-04,  avg # of iterations =  7.0

     total cpu time spent up to now is       94.3 secs

     total energy              =   -1177.53893907 Ry
     estimated scf accuracy    <      19.10770884 Ry

     iteration # 64     ecut=    30.00 Ry     beta= 0.70
     Davidson diagonalization with overlap

---- Real-time Memory Report at c_bands before calling an iterative solver
           725 MiB given to the printing process from OS
             0 MiB allocation reported by mallinfo(arena+hblkhd)
        139620 MiB available memory on the node where the printing process lives
------------------
     ethr =  1.15E-04,  avg # of iterations =  8.0

     total cpu time spent up to now is       95.7 secs

     total energy              =   -1177.73679438 Ry
     estimated scf accuracy    <       0.17861159 Ry

     iteration # 65     ecut=    30.00 Ry     beta= 0.70
     Davidson diagonalization with overlap

---- Real-time Memory Report at c_bands before calling an iterative solver
           725 MiB given to the printing process from OS
             0 MiB allocation reported by mallinfo(arena+hblkhd)
        139619 MiB available memory on the node where the printing process lives
------------------
     ethr =  1.15E-04,  avg # of iterations =  1.0

     total cpu time spent up to now is       97.0 secs

     total energy              =   -1177.74055021 Ry
     estimated scf accuracy    <       0.14169356 Ry

     iteration # 66     ecut=    30.00 Ry     beta= 0.70
     Davidson diagonalization with overlap

---- Real-time Memory Report at c_bands before calling an iterative solver
           725 MiB given to the printing process from OS
             0 MiB allocation reported by mallinfo(arena+hblkhd)
        139619 MiB available memory on the node where the printing process lives
------------------
     ethr =  1.15E-04,  avg # of iterations =  1.0

     total cpu time spent up to now is       98.3 secs

     total energy              =   -1177.73857537 Ry
     estimated scf accuracy    <       0.13105269 Ry

     iteration # 67     ecut=    30.00 Ry     beta= 0.70
     Davidson diagonalization with overlap

---- Real-time Memory Report at c_bands before calling an iterative solver
           725 MiB given to the printing process from OS
             0 MiB allocation reported by mallinfo(arena+hblkhd)
        139620 MiB available memory on the node where the printing process lives
------------------
     ethr =  1.15E-04,  avg # of iterations =  1.0

     total cpu time spent up to now is       99.6 secs

     total energy              =   -1177.73757014 Ry
     estimated scf accuracy    <       0.13883249 Ry

     iteration # 68     ecut=    30.00 Ry     beta= 0.70
     Davidson diagonalization with overlap

---- Real-time Memory Report at c_bands before calling an iterative solver
           725 MiB given to the printing process from OS
             0 MiB allocation reported by mallinfo(arena+hblkhd)
        139620 MiB available memory on the node where the printing process lives
------------------
     ethr =  1.15E-04,  avg # of iterations =  1.0

     total cpu time spent up to now is      100.8 secs

     total energy              =   -1177.74002978 Ry
     estimated scf accuracy    <       0.14020477 Ry

     iteration # 69     ecut=    30.00 Ry     beta= 0.70
     Davidson diagonalization with overlap

---- Real-time Memory Report at c_bands before calling an iterative solver
           725 MiB given to the printing process from OS
             0 MiB allocation reported by mallinfo(arena+hblkhd)
        139619 MiB available memory on the node where the printing process lives
------------------
     ethr =  1.15E-04,  avg # of iterations =  1.0

     total cpu time spent up to now is      102.2 secs

     total energy              =   -1177.71662028 Ry
     estimated scf accuracy    <       0.11170112 Ry

     iteration # 70     ecut=    30.00 Ry     beta= 0.70
     Davidson diagonalization with overlap

---- Real-time Memory Report at c_bands before calling an iterative solver
           725 MiB given to the printing process from OS
             0 MiB allocation reported by mallinfo(arena+hblkhd)
        139619 MiB available memory on the node where the printing process lives
------------------
     ethr =  1.15E-04,  avg # of iterations = 17.0

     total cpu time spent up to now is      103.7 secs

     total energy              =   -1177.60614784 Ry
     estimated scf accuracy    <       7.24111166 Ry

     iteration # 71     ecut=    30.00 Ry     beta= 0.70
     Davidson diagonalization with overlap

---- Real-time Memory Report at c_bands before calling an iterative solver
           725 MiB given to the printing process from OS
             0 MiB allocation reported by mallinfo(arena+hblkhd)
        139619 MiB available memory on the node where the printing process lives
------------------
     ethr =  1.15E-04,  avg # of iterations = 11.0

     total cpu time spent up to now is      105.3 secs

     total energy              =   -1177.73627106 Ry
     estimated scf accuracy    <       0.06520524 Ry

     iteration # 72     ecut=    30.00 Ry     beta= 0.70
     Davidson diagonalization with overlap

---- Real-time Memory Report at c_bands before calling an iterative solver
           725 MiB given to the printing process from OS
             0 MiB allocation reported by mallinfo(arena+hblkhd)
        139620 MiB available memory on the node where the printing process lives
------------------
     ethr =  1.15E-04,  avg # of iterations =  2.0

     total cpu time spent up to now is      106.6 secs

     total energy              =   -1177.72589084 Ry
     estimated scf accuracy    <       0.04881518 Ry

     iteration # 73     ecut=    30.00 Ry     beta= 0.70
     Davidson diagonalization with overlap

---- Real-time Memory Report at c_bands before calling an iterative solver
           725 MiB given to the printing process from OS
             0 MiB allocation reported by mallinfo(arena+hblkhd)
        139620 MiB available memory on the node where the printing process lives
------------------
     ethr =  1.15E-04,  avg # of iterations = 16.0

     total cpu time spent up to now is      108.0 secs

     total energy              =   -1177.66201900 Ry
     estimated scf accuracy    <      17.37133538 Ry

     iteration # 74     ecut=    30.00 Ry     beta= 0.70
     Davidson diagonalization with overlap

---- Real-time Memory Report at c_bands before calling an iterative solver
           725 MiB given to the printing process from OS
             0 MiB allocation reported by mallinfo(arena+hblkhd)
        139620 MiB available memory on the node where the printing process lives
------------------
     ethr =  1.15E-04,  avg # of iterations =  2.0

     total cpu time spent up to now is      109.3 secs

     total energy              =   -1177.73004747 Ry
     estimated scf accuracy    <       0.12120279 Ry

     iteration # 75     ecut=    30.00 Ry     beta= 0.70
     Davidson diagonalization with overlap

---- Real-time Memory Report at c_bands before calling an iterative solver
           725 MiB given to the printing process from OS
             0 MiB allocation reported by mallinfo(arena+hblkhd)
        139620 MiB available memory on the node where the printing process lives
------------------
     ethr =  1.15E-04,  avg # of iterations =  1.0

     total cpu time spent up to now is      110.6 secs

     total energy              =   -1177.73156675 Ry
     estimated scf accuracy    <       0.03591050 Ry

     iteration # 76     ecut=    30.00 Ry     beta= 0.70
     Davidson diagonalization with overlap

---- Real-time Memory Report at c_bands before calling an iterative solver
           725 MiB given to the printing process from OS
             0 MiB allocation reported by mallinfo(arena+hblkhd)
        139619 MiB available memory on the node where the printing process lives
------------------
     ethr =  9.45E-05,  avg # of iterations =  4.0

     total cpu time spent up to now is      111.9 secs

     total energy              =   -1177.73350810 Ry
     estimated scf accuracy    <       0.02440736 Ry

     iteration # 77     ecut=    30.00 Ry     beta= 0.70
     Davidson diagonalization with overlap

---- Real-time Memory Report at c_bands before calling an iterative solver
           725 MiB given to the printing process from OS
             0 MiB allocation reported by mallinfo(arena+hblkhd)
        139627 MiB available memory on the node where the printing process lives
------------------
     ethr =  6.42E-05,  avg # of iterations =  2.0

     total cpu time spent up to now is      113.2 secs

     total energy              =   -1177.73339825 Ry
     estimated scf accuracy    <       0.02276845 Ry

     iteration # 78     ecut=    30.00 Ry     beta= 0.70
     Davidson diagonalization with overlap

---- Real-time Memory Report at c_bands before calling an iterative solver
           725 MiB given to the printing process from OS
             0 MiB allocation reported by mallinfo(arena+hblkhd)
        139628 MiB available memory on the node where the printing process lives
------------------
     ethr =  5.99E-05,  avg # of iterations =  1.0

     total cpu time spent up to now is      114.5 secs

     total energy              =   -1177.73522249 Ry
     estimated scf accuracy    <       0.03798515 Ry

     iteration # 79     ecut=    30.00 Ry     beta= 0.70
     Davidson diagonalization with overlap

---- Real-time Memory Report at c_bands before calling an iterative solver
           725 MiB given to the printing process from OS
             0 MiB allocation reported by mallinfo(arena+hblkhd)
        139627 MiB available memory on the node where the printing process lives
------------------
     ethr =  5.99E-05,  avg # of iterations =  1.0

     total cpu time spent up to now is      115.8 secs

     total energy              =   -1177.73144703 Ry
     estimated scf accuracy    <       0.03561556 Ry

     iteration # 80     ecut=    30.00 Ry     beta= 0.70
     Davidson diagonalization with overlap

---- Real-time Memory Report at c_bands before calling an iterative solver
           725 MiB given to the printing process from OS
             0 MiB allocation reported by mallinfo(arena+hblkhd)
        139627 MiB available memory on the node where the printing process lives
------------------
     c_bands:  1 eigenvalues not converged
     ethr =  5.99E-05,  avg # of iterations = 20.0

     total cpu time spent up to now is      117.4 secs

     total energy              =   -1177.56217336 Ry
     estimated scf accuracy    <      12.02068466 Ry

     iteration # 81     ecut=    30.00 Ry     beta= 0.70
     Davidson diagonalization with overlap

---- Real-time Memory Report at c_bands before calling an iterative solver
           725 MiB given to the printing process from OS
             0 MiB allocation reported by mallinfo(arena+hblkhd)
        139627 MiB available memory on the node where the printing process lives
------------------
     ethr =  5.99E-05,  avg # of iterations = 13.0

     total cpu time spent up to now is      119.0 secs

     total energy              =   -1177.73626430 Ry
     estimated scf accuracy    <       0.05549502 Ry

     iteration # 82     ecut=    30.00 Ry     beta= 0.70
     Davidson diagonalization with overlap

---- Real-time Memory Report at c_bands before calling an iterative solver
           725 MiB given to the printing process from OS
             0 MiB allocation reported by mallinfo(arena+hblkhd)
        139625 MiB available memory on the node where the printing process lives
------------------
     ethr =  5.99E-05,  avg # of iterations =  1.0

     total cpu time spent up to now is      120.3 secs

     total energy              =   -1177.73279731 Ry
     estimated scf accuracy    <       0.06182866 Ry

     iteration # 83     ecut=    30.00 Ry     beta= 0.70
     Davidson diagonalization with overlap

---- Real-time Memory Report at c_bands before calling an iterative solver
           725 MiB given to the printing process from OS
             0 MiB allocation reported by mallinfo(arena+hblkhd)
        139625 MiB available memory on the node where the printing process lives
------------------
     ethr =  5.99E-05,  avg # of iterations =  1.0

     total cpu time spent up to now is      121.6 secs

     total energy              =   -1177.70821772 Ry
     estimated scf accuracy    <       6.82074287 Ry

     iteration # 84     ecut=    30.00 Ry     beta= 0.70
     Davidson diagonalization with overlap

---- Real-time Memory Report at c_bands before calling an iterative solver
           725 MiB given to the printing process from OS
             0 MiB allocation reported by mallinfo(arena+hblkhd)
        139626 MiB available memory on the node where the printing process lives
------------------
     ethr =  5.99E-05,  avg # of iterations =  1.0

     total cpu time spent up to now is      122.9 secs

     total energy              =   -1177.73526186 Ry
     estimated scf accuracy    <       0.03432949 Ry

     iteration # 85     ecut=    30.00 Ry     beta= 0.70
     Davidson diagonalization with overlap

---- Real-time Memory Report at c_bands before calling an iterative solver
           725 MiB given to the printing process from OS
             0 MiB allocation reported by mallinfo(arena+hblkhd)
        139625 MiB available memory on the node where the printing process lives
------------------
     ethr =  5.99E-05,  avg # of iterations =  1.0

     total cpu time spent up to now is      124.2 secs

     total energy              =   -1177.73534739 Ry
     estimated scf accuracy    <       0.04776119 Ry

     iteration # 86     ecut=    30.00 Ry     beta= 0.70
     Davidson diagonalization with overlap

---- Real-time Memory Report at c_bands before calling an iterative solver
           725 MiB given to the printing process from OS
             0 MiB allocation reported by mallinfo(arena+hblkhd)
        139625 MiB available memory on the node where the printing process lives
------------------
     ethr =  5.99E-05,  avg # of iterations =  1.0

     total cpu time spent up to now is      125.5 secs

     total energy              =   -1177.73512274 Ry
     estimated scf accuracy    <       0.03255275 Ry

     iteration # 87     ecut=    30.00 Ry     beta= 0.70
     Davidson diagonalization with overlap

---- Real-time Memory Report at c_bands before calling an iterative solver
           725 MiB given to the printing process from OS
             0 MiB allocation reported by mallinfo(arena+hblkhd)
        139626 MiB available memory on the node where the printing process lives
------------------
     ethr =  5.99E-05,  avg # of iterations =  1.0

     total cpu time spent up to now is      126.8 secs

     total energy              =   -1177.73479089 Ry
     estimated scf accuracy    <       0.04594260 Ry

     iteration # 88     ecut=    30.00 Ry     beta= 0.70
     Davidson diagonalization with overlap

---- Real-time Memory Report at c_bands before calling an iterative solver
           725 MiB given to the printing process from OS
             0 MiB allocation reported by mallinfo(arena+hblkhd)
        139626 MiB available memory on the node where the printing process lives
------------------
     ethr =  5.99E-05,  avg # of iterations =  1.0

     total cpu time spent up to now is      128.1 secs

     total energy              =   -1177.73622615 Ry
     estimated scf accuracy    <       0.04532017 Ry

     iteration # 89     ecut=    30.00 Ry     beta= 0.70
     Davidson diagonalization with overlap

---- Real-time Memory Report at c_bands before calling an iterative solver
           725 MiB given to the printing process from OS
             0 MiB allocation reported by mallinfo(arena+hblkhd)
        139626 MiB available memory on the node where the printing process lives
------------------
     ethr =  5.99E-05,  avg # of iterations =  1.0

     total cpu time spent up to now is      129.4 secs

     total energy              =   -1177.73587636 Ry
     estimated scf accuracy    <       0.04440120 Ry

     iteration # 90     ecut=    30.00 Ry     beta= 0.70
     Davidson diagonalization with overlap

---- Real-time Memory Report at c_bands before calling an iterative solver
           725 MiB given to the printing process from OS
             0 MiB allocation reported by mallinfo(arena+hblkhd)
        139626 MiB available memory on the node where the printing process lives
------------------
     ethr =  5.99E-05,  avg # of iterations =  1.0

     total cpu time spent up to now is      130.7 secs

     total energy              =   -1177.73535746 Ry
     estimated scf accuracy    <       0.06929530 Ry

     iteration # 91     ecut=    30.00 Ry     beta= 0.70
     Davidson diagonalization with overlap

---- Real-time Memory Report at c_bands before calling an iterative solver
           725 MiB given to the printing process from OS
             0 MiB allocation reported by mallinfo(arena+hblkhd)
        139626 MiB available memory on the node where the printing process lives
------------------
     ethr =  5.99E-05,  avg # of iterations =  1.0

     total cpu time spent up to now is      132.0 secs

     total energy              =   -1177.73574646 Ry
     estimated scf accuracy    <       0.04264718 Ry

     iteration # 92     ecut=    30.00 Ry     beta= 0.70
     Davidson diagonalization with overlap

---- Real-time Memory Report at c_bands before calling an iterative solver
           725 MiB given to the printing process from OS
             0 MiB allocation reported by mallinfo(arena+hblkhd)
        139625 MiB available memory on the node where the printing process lives
------------------
     ethr =  5.99E-05,  avg # of iterations =  1.0

     total cpu time spent up to now is      133.3 secs

     total energy              =   -1177.72644108 Ry
     estimated scf accuracy    <       0.04211160 Ry

     iteration # 93     ecut=    30.00 Ry     beta= 0.70
     Davidson diagonalization with overlap

---- Real-time Memory Report at c_bands before calling an iterative solver
           725 MiB given to the printing process from OS
             0 MiB allocation reported by mallinfo(arena+hblkhd)
        139626 MiB available memory on the node where the printing process lives
------------------
     ethr =  5.99E-05,  avg # of iterations = 10.0

     total cpu time spent up to now is      134.7 secs

     total energy              =   -1177.68066325 Ry
     estimated scf accuracy    <      20.60189197 Ry

     iteration # 94     ecut=    30.00 Ry     beta= 0.70
     Davidson diagonalization with overlap

---- Real-time Memory Report at c_bands before calling an iterative solver
           725 MiB given to the printing process from OS
             0 MiB allocation reported by mallinfo(arena+hblkhd)
        139626 MiB available memory on the node where the printing process lives
------------------
     ethr =  5.99E-05,  avg # of iterations = 14.0

     total cpu time spent up to now is      136.1 secs

     total energy              =   -1177.73404700 Ry
     estimated scf accuracy    <       0.02180778 Ry

     iteration # 95     ecut=    30.00 Ry     beta= 0.70
     Davidson diagonalization with overlap

---- Real-time Memory Report at c_bands before calling an iterative solver
           725 MiB given to the printing process from OS
             0 MiB allocation reported by mallinfo(arena+hblkhd)
        139627 MiB available memory on the node where the printing process lives
------------------
     ethr =  5.74E-05,  avg # of iterations =  1.0

     total cpu time spent up to now is      137.4 secs

     total energy              =   -1177.73419524 Ry
     estimated scf accuracy    <       0.01825901 Ry

     iteration # 96     ecut=    30.00 Ry     beta= 0.70
     Davidson diagonalization with overlap

---- Real-time Memory Report at c_bands before calling an iterative solver
           725 MiB given to the printing process from OS
             0 MiB allocation reported by mallinfo(arena+hblkhd)
        139627 MiB available memory on the node where the printing process lives
------------------
     ethr =  4.81E-05,  avg # of iterations =  1.0

     total cpu time spent up to now is      138.7 secs

     total energy              =   -1177.72457866 Ry
     estimated scf accuracy    <       0.01631858 Ry

     iteration # 97     ecut=    30.00 Ry     beta= 0.70
     Davidson diagonalization with overlap

---- Real-time Memory Report at c_bands before calling an iterative solver
           725 MiB given to the printing process from OS
             0 MiB allocation reported by mallinfo(arena+hblkhd)
        139627 MiB available memory on the node where the printing process lives
------------------
     ethr =  4.29E-05,  avg # of iterations = 15.0

     total cpu time spent up to now is      140.1 secs

     total energy              =   -1177.73932067 Ry
     estimated scf accuracy    <       0.11934924 Ry

     iteration # 98     ecut=    30.00 Ry     beta= 0.70
     Davidson diagonalization with overlap

---- Real-time Memory Report at c_bands before calling an iterative solver
           725 MiB given to the printing process from OS
             0 MiB allocation reported by mallinfo(arena+hblkhd)
        139628 MiB available memory on the node where the printing process lives
------------------
     ethr =  4.29E-05,  avg # of iterations =  2.0

     total cpu time spent up to now is      141.4 secs

     total energy              =   -1177.73493207 Ry
     estimated scf accuracy    <       0.10427400 Ry

     iteration # 99     ecut=    30.00 Ry     beta= 0.70
     Davidson diagonalization with overlap

---- Real-time Memory Report at c_bands before calling an iterative solver
           725 MiB given to the printing process from OS
             0 MiB allocation reported by mallinfo(arena+hblkhd)
        139628 MiB available memory on the node where the printing process lives
------------------
     ethr =  4.29E-05,  avg # of iterations =  1.0

     total cpu time spent up to now is      142.7 secs

     total energy              =   -1177.73336995 Ry
     estimated scf accuracy    <       0.08039043 Ry

     iteration #100     ecut=    30.00 Ry     beta= 0.70
     Davidson diagonalization with overlap

---- Real-time Memory Report at c_bands before calling an iterative solver
           725 MiB given to the printing process from OS
             0 MiB allocation reported by mallinfo(arena+hblkhd)
        139627 MiB available memory on the node where the printing process lives
------------------
     ethr =  4.29E-05,  avg # of iterations =  1.0

     total cpu time spent up to now is      144.0 secs

     total energy              =   -1177.73419177 Ry
     estimated scf accuracy    <       0.02606486 Ry

     End of self-consistent calculation

     convergence NOT achieved after 100 iterations: stopping

     Writing config to output data dir new_calculations/myprefix.save/
