
     Program PWSCF v.7.0 starts on 21May2023 at  5: 9: 3 

     This program is part of the open-source Quantum ESPRESSO suite
     for quantum simulation of materials; please cite
         "P. Giannozzi et al., J. Phys.:Condens. Matter 21 395502 (2009);
         "P. Giannozzi et al., J. Phys.:Condens. Matter 29 465901 (2017);
         "P. Giannozzi et al., J. Chem. Phys. 152 154105 (2020);
          URL http://www.quantum-espresso.org", 
     in publications or presentations arising from this work. More details at
     http://www.quantum-espresso.org/quote

     Parallel version (MPI & OpenMP), running on      32 processor cores
     Number of MPI processes:                 1
     Threads/MPI process:                    32

     MPI processes distributed on     1 nodes
     173028 MiB available memory on the printing compute node when the environment starts
 
     Reading input from espresso_4946.pwi
Warning: card &CELL ignored
Warning: card / ignored

     Current dimensions of program PWSCF are:
     Max number of different atomic species (ntypx) = 10
     Max number of k-points (npk) =  40000
     Max angular momentum in pseudopotentials (lmaxx) =  4
     file C.pbe-n-kjpaw_psl.1.0.0.UPF: wavefunction(s)  2S 2P renormalized

     gamma-point specific algorithms are used
     Message from routine setup:
     using ibrav=0 with symmetry is DISCOURAGED, use correct ibrav instead

     Subspace diagonalization in iterative solution of the eigenvalue problem:
     a serial algorithm will be used

 
     G-vector sticks info
     --------------------
     sticks:   dense  smooth     PW     G-vecs:    dense   smooth      PW
     Sum        1585     807    199                36963    13075    1631
 
     Using Slab Decomposition
 


     bravais-lattice index     =            0
     lattice parameter (alat)  =      13.3508  a.u.
     unit-cell volume          =     588.8943 (a.u.)^3
     number of atoms/cell      =            7
     number of atomic types    =            3
     number of electrons       =        53.00
     number of Kohn-Sham states=           32
     kinetic-energy cutoff     =      30.0000  Ry
     charge density cutoff     =     240.0000  Ry
     scf convergence threshold =      1.0E-06
     mixing beta               =       0.7000
     number of iterations used =            8  plain     mixing
     Exchange-correlation= SLA  PW   PBX  PBC
                           (   1   4   3   4   0   0   0)

     celldm(1)=  13.350827  celldm(2)=   0.000000  celldm(3)=   0.000000
     celldm(4)=   0.000000  celldm(5)=   0.000000  celldm(6)=   0.000000

     crystal axes: (cart. coord. in units of alat)
               a(1) = (   1.000000   0.000000   0.000000 )  
               a(2) = (  -0.882670   0.469994   0.000000 )  
               a(3) = (   0.000000   0.000000   0.526527 )  

     reciprocal axes: (cart. coord. in units 2 pi/alat)
               b(1) = (  1.000000  1.878043  0.000000 )  
               b(2) = (  0.000000  2.127686  0.000000 )  
               b(3) = (  0.000000  0.000000  1.899239 )  


     PseudoPot. # 1 for Gd read from file:
     /home/pragov/projects/rrg-bengioy-ad/pragov/crystal_structure_design/SSSP/Gd.GGA-PBE-paw-v1.0.UPF
     MD5 check sum: 3e8e0d208da550914ae52eaf991d13de
     Pseudo is Projector augmented-wave + core cor, Zval = 18.0
     Generated using ATOMPAW code
     Shape of augmentation charge: BESSEL
     Using radial grid of 1110 points,  8 beta functions with: 
                l(1) =   0
                l(2) =   0
                l(3) =   1
                l(4) =   1
                l(5) =   2
                l(6) =   2
                l(7) =   3
                l(8) =   3
     Q(r) pseudized with 0 coefficients 


     PseudoPot. # 2 for B  read from file:
     /home/pragov/projects/rrg-bengioy-ad/pragov/crystal_structure_design/SSSP/b_pbe_v1.4.uspp.F.UPF
     MD5 check sum: cc6de2960df11db49a60e589f9ebb39b
     Pseudo is Ultrasoft + core correction, Zval =  3.0
     Generated by new atomic code, or converted to UPF format
     Using radial grid of  781 points,  4 beta functions with: 
                l(1) =   0
                l(2) =   0
                l(3) =   1
                l(4) =   1
     Q(r) pseudized with  8 coefficients,  rinner =    1.100   1.100   1.100


     PseudoPot. # 3 for C  read from file:
     /home/pragov/projects/rrg-bengioy-ad/pragov/crystal_structure_design/SSSP/C.pbe-n-kjpaw_psl.1.0.0.UPF
     MD5 check sum: 5d2aebdfa2cae82b50a7e79e9516da0f
     Pseudo is Projector augmented-wave + core cor, Zval =  4.0
     Generated using "atomic" code by A. Dal Corso  v.5.1
     Shape of augmentation charge: PSQ
     Using radial grid of 1073 points,  4 beta functions with: 
                l(1) =   0
                l(2) =   0
                l(3) =   1
                l(4) =   1
     Q(r) pseudized with 0 coefficients 


     atomic species   valence    mass     pseudopotential
        Gd            18.00   157.25000     Gd( 1.00)
        B              3.00    10.81000     B ( 1.00)
        C              4.00    12.01100     C ( 1.00)

      4 Sym. Ops., with inversion, found


                                    s                        frac. trans.

      isym =  1     identity                                     

 cryst.   s( 1) = (     1          0          0      )
                  (     0          1          0      )
                  (     0          0          1      )

 cart.    s( 1) = (  1.0000000 -0.0000000  0.0000000 )
                  (  0.0000000  1.0000000  0.0000000 )
                  (  0.0000000  0.0000000  1.0000000 )


      isym =  2     180 deg rotation - cart. axis [0,0,1]        

 cryst.   s( 2) = (    -1          0          0      )
                  (     0         -1          0      )
                  (     0          0          1      )

 cart.    s( 2) = ( -1.0000000  0.0000000  0.0000000 )
                  (  0.0000000 -1.0000000  0.0000000 )
                  (  0.0000000  0.0000000  1.0000000 )


      isym =  3     inversion                                    

 cryst.   s( 3) = (    -1          0          0      )
                  (     0         -1          0      )
                  (     0          0         -1      )

 cart.    s( 3) = ( -1.0000000  0.0000000  0.0000000 )
                  (  0.0000000 -1.0000000  0.0000000 )
                  (  0.0000000  0.0000000 -1.0000000 )


      isym =  4     inv. 180 deg rotation - cart. axis [0,0,1]   

 cryst.   s( 4) = (     1          0          0      )
                  (     0          1          0      )
                  (     0          0         -1      )

 cart.    s( 4) = (  1.0000000 -0.0000000  0.0000000 )
                  (  0.0000000  1.0000000  0.0000000 )
                  (  0.0000000  0.0000000 -1.0000000 )


   Cartesian axes

     site n.     atom                  positions (alat units)
         1           Gd  tau(   1) = (   0.7461183   0.0633797   0.0000000  )
         2           Gd  tau(   2) = (  -0.6287878   0.4066145   0.0000000  )
         3           B   tau(   3) = (  -0.3505782   0.3371616   0.2632633  )
         4           B   tau(   4) = (   0.4679086   0.1328326   0.2632633  )
         5           B   tau(   5) = (   0.0586652   0.2349971   0.2632633  )
         6           C   tau(   6) = (  -0.1393408   0.2844278   0.2632633  )
         7           C   tau(   7) = (   0.2566712   0.1855664   0.2632633  )

   Crystallographic axes

     site n.     atom                  positions (cryst. coord.)
         1           Gd  tau(   1) = (  0.8651480  0.1348520  0.0000000  )
         2           Gd  tau(   2) = (  0.1348520  0.8651480  0.0000000  )
         3           B   tau(   3) = (  0.2826260  0.7173740  0.5000000  )
         4           B   tau(   4) = (  0.7173740  0.2826260  0.5000000  )
         5           B   tau(   5) = (  0.5000000  0.5000000  0.5000000  )
         6           C   tau(   6) = (  0.3948270  0.6051730  0.5000000  )
         7           C   tau(   7) = (  0.6051730  0.3948270  0.5000000  )

     number of k points=     1  Methfessel-Paxton smearing, width (Ry)=  0.0010
                       cart. coord. in units 2pi/alat
        k(    1) = (   0.0000000   0.0000000   0.0000000), wk =   2.0000000

                       cryst. coord.
        k(    1) = (   0.0000000   0.0000000   0.0000000), wk =   2.0000000

     Dense  grid:    18482 G-vectors     FFT dimensions: (  72,  72,  36)

     Smooth grid:     6538 G-vectors     FFT dimensions: (  48,  48,  25)

     Dynamical RAM for                 wfc:       0.40 MB

     Dynamical RAM for     wfc (w. buffer):       0.40 MB

     Dynamical RAM for           str. fact:       0.85 MB

     Dynamical RAM for           local pot:       0.00 MB

     Dynamical RAM for          nlocal pot:       1.30 MB

     Dynamical RAM for                qrad:       8.96 MB

     Dynamical RAM for          rho,v,vnew:       5.12 MB

     Dynamical RAM for               rhoin:       1.71 MB

     Dynamical RAM for            rho*nmix:       4.51 MB

     Dynamical RAM for           G-vectors:       1.11 MB

     Dynamical RAM for          h,s,v(r/c):       0.09 MB

     Dynamical RAM for          <psi|beta>:       0.03 MB

     Dynamical RAM for                 psi:       0.80 MB

     Dynamical RAM for                hpsi:       0.80 MB

     Dynamical RAM for                spsi:       0.80 MB

     Dynamical RAM for      wfcinit/wfcrot:       2.26 MB

     Dynamical RAM for           addusdens:     157.36 MB

     Dynamical RAM for          addusforce:     158.67 MB

     Dynamical RAM for         addusstress:     164.13 MB

     Estimated static dynamical RAM per process >      27.68 MB

     Estimated max dynamical RAM per process >     196.32 MB

     Check: negative core charge=   -0.000012

     Initial potential from superposition of free atoms

     starting charge      52.9887, renormalised to      53.0000
     Starting wfcs are   84 randomized atomic wfcs
     Checking if some PAW data can be deallocated... 

     total cpu time spent up to now is        5.3 secs

     Self-consistent Calculation

     iteration #  1     ecut=    30.00 Ry     beta= 0.70
     Davidson diagonalization with overlap

---- Real-time Memory Report at c_bands before calling an iterative solver
           491 MiB given to the printing process from OS
             0 MiB allocation reported by mallinfo(arena+hblkhd)
        172728 MiB available memory on the node where the printing process lives
------------------
     ethr =  1.00E-02,  avg # of iterations =  2.0

     total cpu time spent up to now is        6.2 secs

     total energy              =   -1421.26501914 Ry
     estimated scf accuracy    <       1.52383296 Ry

     iteration #  2     ecut=    30.00 Ry     beta= 0.70
     Davidson diagonalization with overlap

---- Real-time Memory Report at c_bands before calling an iterative solver
           656 MiB given to the printing process from OS
             0 MiB allocation reported by mallinfo(arena+hblkhd)
        172696 MiB available memory on the node where the printing process lives
------------------
     ethr =  2.88E-03,  avg # of iterations =  9.0

     total cpu time spent up to now is        7.0 secs

     total energy              =   -1420.05793963 Ry
     estimated scf accuracy    <      22.53611730 Ry

     iteration #  3     ecut=    30.00 Ry     beta= 0.70
     Davidson diagonalization with overlap

---- Real-time Memory Report at c_bands before calling an iterative solver
           664 MiB given to the printing process from OS
             0 MiB allocation reported by mallinfo(arena+hblkhd)
        172692 MiB available memory on the node where the printing process lives
------------------
     ethr =  2.88E-03,  avg # of iterations =  6.0

     total cpu time spent up to now is        7.9 secs

     total energy              =   -1419.51944993 Ry
     estimated scf accuracy    <      37.25015055 Ry

     iteration #  4     ecut=    30.00 Ry     beta= 0.70
     Davidson diagonalization with overlap

---- Real-time Memory Report at c_bands before calling an iterative solver
           664 MiB given to the printing process from OS
             0 MiB allocation reported by mallinfo(arena+hblkhd)
        172689 MiB available memory on the node where the printing process lives
------------------
     ethr =  2.88E-03,  avg # of iterations = 10.0

     total cpu time spent up to now is        8.7 secs

     total energy              =   -1422.00543870 Ry
     estimated scf accuracy    <      67.99827977 Ry

     iteration #  5     ecut=    30.00 Ry     beta= 0.70
     Davidson diagonalization with overlap

---- Real-time Memory Report at c_bands before calling an iterative solver
           664 MiB given to the printing process from OS
             0 MiB allocation reported by mallinfo(arena+hblkhd)
        172690 MiB available memory on the node where the printing process lives
------------------
     ethr =  2.88E-03,  avg # of iterations =  2.0

     total cpu time spent up to now is        9.5 secs

     total energy              =   -1422.35277908 Ry
     estimated scf accuracy    <      12.34520704 Ry

     iteration #  6     ecut=    30.00 Ry     beta= 0.70
     Davidson diagonalization with overlap

---- Real-time Memory Report at c_bands before calling an iterative solver
           664 MiB given to the printing process from OS
             0 MiB allocation reported by mallinfo(arena+hblkhd)
        172690 MiB available memory on the node where the printing process lives
------------------
     ethr =  2.88E-03,  avg # of iterations =  2.0

     total cpu time spent up to now is       10.3 secs

     total energy              =   -1422.37177355 Ry
     estimated scf accuracy    <       5.00866529 Ry

     iteration #  7     ecut=    30.00 Ry     beta= 0.70
     Davidson diagonalization with overlap

---- Real-time Memory Report at c_bands before calling an iterative solver
           664 MiB given to the printing process from OS
             0 MiB allocation reported by mallinfo(arena+hblkhd)
        172690 MiB available memory on the node where the printing process lives
------------------
     ethr =  2.88E-03,  avg # of iterations =  1.0

     total cpu time spent up to now is       11.0 secs

     total energy              =   -1422.29328665 Ry
     estimated scf accuracy    <       4.01463026 Ry

     iteration #  8     ecut=    30.00 Ry     beta= 0.70
     Davidson diagonalization with overlap

---- Real-time Memory Report at c_bands before calling an iterative solver
           664 MiB given to the printing process from OS
             0 MiB allocation reported by mallinfo(arena+hblkhd)
        172692 MiB available memory on the node where the printing process lives
------------------
     ethr =  2.88E-03,  avg # of iterations =  2.0

     total cpu time spent up to now is       11.8 secs

     total energy              =   -1422.33651570 Ry
     estimated scf accuracy    <       1.66089989 Ry

     iteration #  9     ecut=    30.00 Ry     beta= 0.70
     Davidson diagonalization with overlap

---- Real-time Memory Report at c_bands before calling an iterative solver
           665 MiB given to the printing process from OS
             0 MiB allocation reported by mallinfo(arena+hblkhd)
        172690 MiB available memory on the node where the printing process lives
------------------
     ethr =  2.88E-03,  avg # of iterations =  2.0

     total cpu time spent up to now is       12.6 secs

     total energy              =   -1422.41978902 Ry
     estimated scf accuracy    <       1.20772680 Ry

     iteration # 10     ecut=    30.00 Ry     beta= 0.70
     Davidson diagonalization with overlap

---- Real-time Memory Report at c_bands before calling an iterative solver
           665 MiB given to the printing process from OS
             0 MiB allocation reported by mallinfo(arena+hblkhd)
        172691 MiB available memory on the node where the printing process lives
------------------
     ethr =  2.28E-03,  avg # of iterations =  2.0

     total cpu time spent up to now is       13.4 secs

     total energy              =   -1422.43301763 Ry
     estimated scf accuracy    <       0.92227287 Ry

     iteration # 11     ecut=    30.00 Ry     beta= 0.70
     Davidson diagonalization with overlap

---- Real-time Memory Report at c_bands before calling an iterative solver
           666 MiB given to the printing process from OS
             0 MiB allocation reported by mallinfo(arena+hblkhd)
        172691 MiB available memory on the node where the printing process lives
------------------
     ethr =  1.74E-03,  avg # of iterations =  1.0

     total cpu time spent up to now is       14.2 secs

     total energy              =   -1422.36934451 Ry
     estimated scf accuracy    <       1.23484863 Ry

     iteration # 12     ecut=    30.00 Ry     beta= 0.70
     Davidson diagonalization with overlap

---- Real-time Memory Report at c_bands before calling an iterative solver
           666 MiB given to the printing process from OS
             0 MiB allocation reported by mallinfo(arena+hblkhd)
        172692 MiB available memory on the node where the printing process lives
------------------
     ethr =  1.74E-03,  avg # of iterations =  1.0

     total cpu time spent up to now is       14.9 secs

     total energy              =   -1422.43847154 Ry
     estimated scf accuracy    <       0.09065323 Ry

     iteration # 13     ecut=    30.00 Ry     beta= 0.70
     Davidson diagonalization with overlap

---- Real-time Memory Report at c_bands before calling an iterative solver
           666 MiB given to the printing process from OS
             0 MiB allocation reported by mallinfo(arena+hblkhd)
        172692 MiB available memory on the node where the printing process lives
------------------
     ethr =  1.71E-04,  avg # of iterations =  2.0

     total cpu time spent up to now is       15.7 secs

     total energy              =   -1422.43810159 Ry
     estimated scf accuracy    <       0.16024712 Ry

     iteration # 14     ecut=    30.00 Ry     beta= 0.70
     Davidson diagonalization with overlap

---- Real-time Memory Report at c_bands before calling an iterative solver
           666 MiB given to the printing process from OS
             0 MiB allocation reported by mallinfo(arena+hblkhd)
        172691 MiB available memory on the node where the printing process lives
------------------
     ethr =  1.71E-04,  avg # of iterations =  2.0

     total cpu time spent up to now is       16.5 secs

     total energy              =   -1422.43929743 Ry
     estimated scf accuracy    <       0.39330453 Ry

     iteration # 15     ecut=    30.00 Ry     beta= 0.70
     Davidson diagonalization with overlap

---- Real-time Memory Report at c_bands before calling an iterative solver
           666 MiB given to the printing process from OS
             0 MiB allocation reported by mallinfo(arena+hblkhd)
        172691 MiB available memory on the node where the printing process lives
------------------
     ethr =  1.71E-04,  avg # of iterations =  9.0

     total cpu time spent up to now is       17.3 secs

     total energy              =   -1422.46397014 Ry
     estimated scf accuracy    <       2.42463183 Ry

     iteration # 16     ecut=    30.00 Ry     beta= 0.70
     Davidson diagonalization with overlap

---- Real-time Memory Report at c_bands before calling an iterative solver
           666 MiB given to the printing process from OS
             0 MiB allocation reported by mallinfo(arena+hblkhd)
        172692 MiB available memory on the node where the printing process lives
------------------
     ethr =  1.71E-04,  avg # of iterations =  2.0

     total cpu time spent up to now is       18.1 secs

     total energy              =   -1422.42580394 Ry
     estimated scf accuracy    <       0.71686689 Ry

     iteration # 17     ecut=    30.00 Ry     beta= 0.70
     Davidson diagonalization with overlap

---- Real-time Memory Report at c_bands before calling an iterative solver
           666 MiB given to the printing process from OS
             0 MiB allocation reported by mallinfo(arena+hblkhd)
        172691 MiB available memory on the node where the printing process lives
------------------
     ethr =  1.71E-04,  avg # of iterations =  1.0

     total cpu time spent up to now is       18.9 secs

     total energy              =   -1422.44366402 Ry
     estimated scf accuracy    <       2.70084971 Ry

     iteration # 18     ecut=    30.00 Ry     beta= 0.70
     Davidson diagonalization with overlap

---- Real-time Memory Report at c_bands before calling an iterative solver
           666 MiB given to the printing process from OS
             0 MiB allocation reported by mallinfo(arena+hblkhd)
        172692 MiB available memory on the node where the printing process lives
------------------
     ethr =  1.71E-04,  avg # of iterations =  1.0

     total cpu time spent up to now is       19.6 secs

     total energy              =   -1422.43504447 Ry
     estimated scf accuracy    <       0.21283638 Ry

     iteration # 19     ecut=    30.00 Ry     beta= 0.70
     Davidson diagonalization with overlap

---- Real-time Memory Report at c_bands before calling an iterative solver
           666 MiB given to the printing process from OS
             0 MiB allocation reported by mallinfo(arena+hblkhd)
        172692 MiB available memory on the node where the printing process lives
------------------
     ethr =  1.71E-04,  avg # of iterations =  2.0

     total cpu time spent up to now is       20.4 secs

     total energy              =   -1422.43088098 Ry
     estimated scf accuracy    <       2.16977827 Ry

     iteration # 20     ecut=    30.00 Ry     beta= 0.70
     Davidson diagonalization with overlap

---- Real-time Memory Report at c_bands before calling an iterative solver
           666 MiB given to the printing process from OS
             0 MiB allocation reported by mallinfo(arena+hblkhd)
        172692 MiB available memory on the node where the printing process lives
------------------
     ethr =  1.71E-04,  avg # of iterations =  1.0

     total cpu time spent up to now is       21.2 secs

     total energy              =   -1422.43811032 Ry
     estimated scf accuracy    <       0.19116994 Ry

     iteration # 21     ecut=    30.00 Ry     beta= 0.70
     Davidson diagonalization with overlap

---- Real-time Memory Report at c_bands before calling an iterative solver
           666 MiB given to the printing process from OS
             0 MiB allocation reported by mallinfo(arena+hblkhd)
        172694 MiB available memory on the node where the printing process lives
------------------
     ethr =  1.71E-04,  avg # of iterations = 11.0

     total cpu time spent up to now is       22.0 secs

     total energy              =   -1422.39273326 Ry
     estimated scf accuracy    <      10.94950893 Ry

     iteration # 22     ecut=    30.00 Ry     beta= 0.70
     Davidson diagonalization with overlap

---- Real-time Memory Report at c_bands before calling an iterative solver
           666 MiB given to the printing process from OS
             0 MiB allocation reported by mallinfo(arena+hblkhd)
        172693 MiB available memory on the node where the printing process lives
------------------
     ethr =  1.71E-04,  avg # of iterations =  6.0

     total cpu time spent up to now is       22.8 secs

     total energy              =   -1422.44080241 Ry
     estimated scf accuracy    <       0.42639380 Ry

     iteration # 23     ecut=    30.00 Ry     beta= 0.70
     Davidson diagonalization with overlap

---- Real-time Memory Report at c_bands before calling an iterative solver
           666 MiB given to the printing process from OS
             0 MiB allocation reported by mallinfo(arena+hblkhd)
        172693 MiB available memory on the node where the printing process lives
------------------
     ethr =  1.71E-04,  avg # of iterations =  1.0

     total cpu time spent up to now is       23.6 secs

     total energy              =   -1422.43125912 Ry
     estimated scf accuracy    <       2.34005368 Ry

     iteration # 24     ecut=    30.00 Ry     beta= 0.70
     Davidson diagonalization with overlap

---- Real-time Memory Report at c_bands before calling an iterative solver
           666 MiB given to the printing process from OS
             0 MiB allocation reported by mallinfo(arena+hblkhd)
        172693 MiB available memory on the node where the printing process lives
------------------
     ethr =  1.71E-04,  avg # of iterations =  3.0

     total cpu time spent up to now is       24.4 secs

     total energy              =   -1422.44210339 Ry
     estimated scf accuracy    <       0.61236436 Ry

     iteration # 25     ecut=    30.00 Ry     beta= 0.70
     Davidson diagonalization with overlap

---- Real-time Memory Report at c_bands before calling an iterative solver
           666 MiB given to the printing process from OS
             0 MiB allocation reported by mallinfo(arena+hblkhd)
        172693 MiB available memory on the node where the printing process lives
------------------
     ethr =  1.71E-04,  avg # of iterations =  2.0

     total cpu time spent up to now is       25.1 secs

     total energy              =   -1422.43600018 Ry
     estimated scf accuracy    <       1.89237710 Ry

     iteration # 26     ecut=    30.00 Ry     beta= 0.70
     Davidson diagonalization with overlap

---- Real-time Memory Report at c_bands before calling an iterative solver
           666 MiB given to the printing process from OS
             0 MiB allocation reported by mallinfo(arena+hblkhd)
        172694 MiB available memory on the node where the printing process lives
------------------
     ethr =  1.71E-04,  avg # of iterations =  1.0

     total cpu time spent up to now is       25.9 secs

     total energy              =   -1422.43527849 Ry
     estimated scf accuracy    <       0.06820192 Ry

     iteration # 27     ecut=    30.00 Ry     beta= 0.70
     Davidson diagonalization with overlap

---- Real-time Memory Report at c_bands before calling an iterative solver
           666 MiB given to the printing process from OS
             0 MiB allocation reported by mallinfo(arena+hblkhd)
        172694 MiB available memory on the node where the printing process lives
------------------
     ethr =  1.29E-04,  avg # of iterations = 10.0

     total cpu time spent up to now is       26.7 secs

     total energy              =   -1422.42535908 Ry
     estimated scf accuracy    <       2.74733194 Ry

     iteration # 28     ecut=    30.00 Ry     beta= 0.70
     Davidson diagonalization with overlap

---- Real-time Memory Report at c_bands before calling an iterative solver
           666 MiB given to the printing process from OS
             0 MiB allocation reported by mallinfo(arena+hblkhd)
        172691 MiB available memory on the node where the printing process lives
------------------
     ethr =  1.29E-04,  avg # of iterations =  1.0

     total cpu time spent up to now is       27.5 secs

     total energy              =   -1422.44596943 Ry
     estimated scf accuracy    <       0.07978388 Ry

     iteration # 29     ecut=    30.00 Ry     beta= 0.70
     Davidson diagonalization with overlap

---- Real-time Memory Report at c_bands before calling an iterative solver
           666 MiB given to the printing process from OS
             0 MiB allocation reported by mallinfo(arena+hblkhd)
        172687 MiB available memory on the node where the printing process lives
------------------
     ethr =  1.29E-04,  avg # of iterations =  7.0

     total cpu time spent up to now is       28.3 secs

     total energy              =   -1422.40329271 Ry
     estimated scf accuracy    <       3.04425251 Ry

     iteration # 30     ecut=    30.00 Ry     beta= 0.70
     Davidson diagonalization with overlap

---- Real-time Memory Report at c_bands before calling an iterative solver
           666 MiB given to the printing process from OS
             0 MiB allocation reported by mallinfo(arena+hblkhd)
        172694 MiB available memory on the node where the printing process lives
------------------
     ethr =  1.29E-04,  avg # of iterations =  5.0

     total cpu time spent up to now is       29.1 secs

     total energy              =   -1422.44333902 Ry
     estimated scf accuracy    <       0.24679025 Ry

     iteration # 31     ecut=    30.00 Ry     beta= 0.70
     Davidson diagonalization with overlap

---- Real-time Memory Report at c_bands before calling an iterative solver
           666 MiB given to the printing process from OS
             0 MiB allocation reported by mallinfo(arena+hblkhd)
        172695 MiB available memory on the node where the printing process lives
------------------
     ethr =  1.29E-04,  avg # of iterations =  2.0

     total cpu time spent up to now is       29.9 secs

     total energy              =   -1422.44819871 Ry
     estimated scf accuracy    <       0.10508055 Ry

     iteration # 32     ecut=    30.00 Ry     beta= 0.70
     Davidson diagonalization with overlap

---- Real-time Memory Report at c_bands before calling an iterative solver
           666 MiB given to the printing process from OS
             0 MiB allocation reported by mallinfo(arena+hblkhd)
        172695 MiB available memory on the node where the printing process lives
------------------
     ethr =  1.29E-04,  avg # of iterations =  1.0

     total cpu time spent up to now is       30.7 secs

     total energy              =   -1422.44577606 Ry
     estimated scf accuracy    <       0.08819558 Ry

     iteration # 33     ecut=    30.00 Ry     beta= 0.70
     Davidson diagonalization with overlap

---- Real-time Memory Report at c_bands before calling an iterative solver
           666 MiB given to the printing process from OS
             0 MiB allocation reported by mallinfo(arena+hblkhd)
        172694 MiB available memory on the node where the printing process lives
------------------
     ethr =  1.29E-04,  avg # of iterations =  1.0

     total cpu time spent up to now is       31.5 secs

     total energy              =   -1422.43684361 Ry
     estimated scf accuracy    <       0.48579566 Ry

     iteration # 34     ecut=    30.00 Ry     beta= 0.70
     Davidson diagonalization with overlap

---- Real-time Memory Report at c_bands before calling an iterative solver
           666 MiB given to the printing process from OS
             0 MiB allocation reported by mallinfo(arena+hblkhd)
        172695 MiB available memory on the node where the printing process lives
------------------
     ethr =  1.29E-04,  avg # of iterations =  2.0

     total cpu time spent up to now is       32.2 secs

     total energy              =   -1422.44678363 Ry
     estimated scf accuracy    <       0.04383505 Ry

     iteration # 35     ecut=    30.00 Ry     beta= 0.70
     Davidson diagonalization with overlap

---- Real-time Memory Report at c_bands before calling an iterative solver
           666 MiB given to the printing process from OS
             0 MiB allocation reported by mallinfo(arena+hblkhd)
        172694 MiB available memory on the node where the printing process lives
------------------
     ethr =  8.27E-05,  avg # of iterations =  2.0

     total cpu time spent up to now is       33.1 secs

     total energy              =   -1422.43832147 Ry
     estimated scf accuracy    <       0.84530834 Ry

     iteration # 36     ecut=    30.00 Ry     beta= 0.70
     Davidson diagonalization with overlap

---- Real-time Memory Report at c_bands before calling an iterative solver
           666 MiB given to the printing process from OS
             0 MiB allocation reported by mallinfo(arena+hblkhd)
        172695 MiB available memory on the node where the printing process lives
------------------
     ethr =  8.27E-05,  avg # of iterations =  1.0

     total cpu time spent up to now is       34.0 secs

     total energy              =   -1422.41923055 Ry
     estimated scf accuracy    <       0.16671551 Ry

     iteration # 37     ecut=    30.00 Ry     beta= 0.70
     Davidson diagonalization with overlap

---- Real-time Memory Report at c_bands before calling an iterative solver
           666 MiB given to the printing process from OS
             0 MiB allocation reported by mallinfo(arena+hblkhd)
        172695 MiB available memory on the node where the printing process lives
------------------
     ethr =  8.27E-05,  avg # of iterations =  3.0

     total cpu time spent up to now is       34.8 secs

     total energy              =   -1422.44145124 Ry
     estimated scf accuracy    <       0.96774843 Ry

     iteration # 38     ecut=    30.00 Ry     beta= 0.70
     Davidson diagonalization with overlap

---- Real-time Memory Report at c_bands before calling an iterative solver
           666 MiB given to the printing process from OS
             0 MiB allocation reported by mallinfo(arena+hblkhd)
        172694 MiB available memory on the node where the printing process lives
------------------
     ethr =  8.27E-05,  avg # of iterations =  1.0

     total cpu time spent up to now is       35.8 secs

     total energy              =   -1422.44666929 Ry
     estimated scf accuracy    <       0.00838978 Ry

     iteration # 39     ecut=    30.00 Ry     beta= 0.70
     Davidson diagonalization with overlap

---- Real-time Memory Report at c_bands before calling an iterative solver
           666 MiB given to the printing process from OS
             0 MiB allocation reported by mallinfo(arena+hblkhd)
        172695 MiB available memory on the node where the printing process lives
------------------
     ethr =  1.58E-05,  avg # of iterations =  7.0

     total cpu time spent up to now is       36.9 secs

     total energy              =   -1422.43099905 Ry
     estimated scf accuracy    <       3.40516377 Ry

     iteration # 40     ecut=    30.00 Ry     beta= 0.70
     Davidson diagonalization with overlap

---- Real-time Memory Report at c_bands before calling an iterative solver
           666 MiB given to the printing process from OS
             0 MiB allocation reported by mallinfo(arena+hblkhd)
        172695 MiB available memory on the node where the printing process lives
------------------
     ethr =  1.58E-05,  avg # of iterations =  8.0

     total cpu time spent up to now is       37.7 secs

     total energy              =   -1422.44621181 Ry
     estimated scf accuracy    <       0.01170374 Ry

     iteration # 41     ecut=    30.00 Ry     beta= 0.70
     Davidson diagonalization with overlap

---- Real-time Memory Report at c_bands before calling an iterative solver
           666 MiB given to the printing process from OS
             0 MiB allocation reported by mallinfo(arena+hblkhd)
        172696 MiB available memory on the node where the printing process lives
------------------
     ethr =  1.58E-05,  avg # of iterations =  2.0

     total cpu time spent up to now is       38.5 secs

     total energy              =   -1422.44768266 Ry
     estimated scf accuracy    <       0.14964143 Ry

     iteration # 42     ecut=    30.00 Ry     beta= 0.70
     Davidson diagonalization with overlap

---- Real-time Memory Report at c_bands before calling an iterative solver
           666 MiB given to the printing process from OS
             0 MiB allocation reported by mallinfo(arena+hblkhd)
        172696 MiB available memory on the node where the printing process lives
------------------
     ethr =  1.58E-05,  avg # of iterations =  1.0

     total cpu time spent up to now is       39.3 secs

     total energy              =   -1422.44623187 Ry
     estimated scf accuracy    <       0.11638325 Ry

     iteration # 43     ecut=    30.00 Ry     beta= 0.70
     Davidson diagonalization with overlap

---- Real-time Memory Report at c_bands before calling an iterative solver
           666 MiB given to the printing process from OS
             0 MiB allocation reported by mallinfo(arena+hblkhd)
        172696 MiB available memory on the node where the printing process lives
------------------
     ethr =  1.58E-05,  avg # of iterations =  1.0

     total cpu time spent up to now is       40.0 secs

     total energy              =   -1422.44553927 Ry
     estimated scf accuracy    <       0.26074123 Ry

     iteration # 44     ecut=    30.00 Ry     beta= 0.70
     Davidson diagonalization with overlap

---- Real-time Memory Report at c_bands before calling an iterative solver
           667 MiB given to the printing process from OS
             0 MiB allocation reported by mallinfo(arena+hblkhd)
        172698 MiB available memory on the node where the printing process lives
------------------
     ethr =  1.58E-05,  avg # of iterations =  1.0

     total cpu time spent up to now is       40.8 secs

     total energy              =   -1422.44697086 Ry
     estimated scf accuracy    <       0.03582775 Ry

     iteration # 45     ecut=    30.00 Ry     beta= 0.70
     Davidson diagonalization with overlap

---- Real-time Memory Report at c_bands before calling an iterative solver
           667 MiB given to the printing process from OS
             0 MiB allocation reported by mallinfo(arena+hblkhd)
        172696 MiB available memory on the node where the printing process lives
------------------
     ethr =  1.58E-05,  avg # of iterations =  3.0

     total cpu time spent up to now is       41.6 secs

     total energy              =   -1422.44465357 Ry
     estimated scf accuracy    <       0.06052732 Ry

     iteration # 46     ecut=    30.00 Ry     beta= 0.70
     Davidson diagonalization with overlap

---- Real-time Memory Report at c_bands before calling an iterative solver
           667 MiB given to the printing process from OS
             0 MiB allocation reported by mallinfo(arena+hblkhd)
        172697 MiB available memory on the node where the printing process lives
------------------
     ethr =  1.58E-05,  avg # of iterations =  7.0

     total cpu time spent up to now is       42.3 secs

     total energy              =   -1422.42326306 Ry
     estimated scf accuracy    <       0.43865834 Ry

     iteration # 47     ecut=    30.00 Ry     beta= 0.70
     Davidson diagonalization with overlap

---- Real-time Memory Report at c_bands before calling an iterative solver
           667 MiB given to the printing process from OS
             0 MiB allocation reported by mallinfo(arena+hblkhd)
        172698 MiB available memory on the node where the printing process lives
------------------
     ethr =  1.58E-05,  avg # of iterations =  6.0

     total cpu time spent up to now is       43.1 secs

     total energy              =   -1422.42947082 Ry
     estimated scf accuracy    <       1.11758825 Ry

     iteration # 48     ecut=    30.00 Ry     beta= 0.70
     Davidson diagonalization with overlap

---- Real-time Memory Report at c_bands before calling an iterative solver
           667 MiB given to the printing process from OS
             0 MiB allocation reported by mallinfo(arena+hblkhd)
        172699 MiB available memory on the node where the printing process lives
------------------
     ethr =  1.58E-05,  avg # of iterations =  6.0

     total cpu time spent up to now is       43.9 secs

     total energy              =   -1422.44549546 Ry
     estimated scf accuracy    <       0.01472068 Ry

     iteration # 49     ecut=    30.00 Ry     beta= 0.70
     Davidson diagonalization with overlap

---- Real-time Memory Report at c_bands before calling an iterative solver
           667 MiB given to the printing process from OS
             0 MiB allocation reported by mallinfo(arena+hblkhd)
        172700 MiB available memory on the node where the printing process lives
------------------
     ethr =  1.58E-05,  avg # of iterations = 10.0

     total cpu time spent up to now is       44.7 secs

     total energy              =   -1422.42529899 Ry
     estimated scf accuracy    <       3.44009402 Ry

     iteration # 50     ecut=    30.00 Ry     beta= 0.70
     Davidson diagonalization with overlap

---- Real-time Memory Report at c_bands before calling an iterative solver
           667 MiB given to the printing process from OS
             0 MiB allocation reported by mallinfo(arena+hblkhd)
        172699 MiB available memory on the node where the printing process lives
------------------
     ethr =  1.58E-05,  avg # of iterations =  8.0

     total cpu time spent up to now is       45.5 secs

     total energy              =   -1422.43992394 Ry
     estimated scf accuracy    <       0.27654726 Ry

     iteration # 51     ecut=    30.00 Ry     beta= 0.70
     Davidson diagonalization with overlap

---- Real-time Memory Report at c_bands before calling an iterative solver
           667 MiB given to the printing process from OS
             0 MiB allocation reported by mallinfo(arena+hblkhd)
        172700 MiB available memory on the node where the printing process lives
------------------
     ethr =  1.58E-05,  avg # of iterations =  7.0

     total cpu time spent up to now is       46.3 secs

     total energy              =   -1422.44770570 Ry
     estimated scf accuracy    <       0.04528618 Ry

     iteration # 52     ecut=    30.00 Ry     beta= 0.70
     Davidson diagonalization with overlap

---- Real-time Memory Report at c_bands before calling an iterative solver
           667 MiB given to the printing process from OS
             0 MiB allocation reported by mallinfo(arena+hblkhd)
        172701 MiB available memory on the node where the printing process lives
------------------
     ethr =  1.58E-05,  avg # of iterations =  2.0

     total cpu time spent up to now is       47.1 secs

     total energy              =   -1422.44366443 Ry
     estimated scf accuracy    <       0.53146798 Ry

     iteration # 53     ecut=    30.00 Ry     beta= 0.70
     Davidson diagonalization with overlap

---- Real-time Memory Report at c_bands before calling an iterative solver
           667 MiB given to the printing process from OS
             0 MiB allocation reported by mallinfo(arena+hblkhd)
        172701 MiB available memory on the node where the printing process lives
------------------
     ethr =  1.58E-05,  avg # of iterations =  1.0

     total cpu time spent up to now is       47.8 secs

     total energy              =   -1422.44625614 Ry
     estimated scf accuracy    <       0.31260346 Ry

     iteration # 54     ecut=    30.00 Ry     beta= 0.70
     Davidson diagonalization with overlap

---- Real-time Memory Report at c_bands before calling an iterative solver
           667 MiB given to the printing process from OS
             0 MiB allocation reported by mallinfo(arena+hblkhd)
        172701 MiB available memory on the node where the printing process lives
------------------
     ethr =  1.58E-05,  avg # of iterations =  1.0

     total cpu time spent up to now is       48.6 secs

     total energy              =   -1422.44603812 Ry
     estimated scf accuracy    <       0.16901708 Ry

     iteration # 55     ecut=    30.00 Ry     beta= 0.70
     Davidson diagonalization with overlap

---- Real-time Memory Report at c_bands before calling an iterative solver
           667 MiB given to the printing process from OS
             0 MiB allocation reported by mallinfo(arena+hblkhd)
        172702 MiB available memory on the node where the printing process lives
------------------
     ethr =  1.58E-05,  avg # of iterations =  1.0

     total cpu time spent up to now is       49.3 secs

     total energy              =   -1422.44495642 Ry
     estimated scf accuracy    <       0.05021548 Ry

     iteration # 56     ecut=    30.00 Ry     beta= 0.70
     Davidson diagonalization with overlap

---- Real-time Memory Report at c_bands before calling an iterative solver
           667 MiB given to the printing process from OS
             0 MiB allocation reported by mallinfo(arena+hblkhd)
        172702 MiB available memory on the node where the printing process lives
------------------
     ethr =  1.58E-05,  avg # of iterations =  6.0

     total cpu time spent up to now is       50.1 secs

     total energy              =   -1422.43643879 Ry
     estimated scf accuracy    <       0.26954843 Ry

     iteration # 57     ecut=    30.00 Ry     beta= 0.70
     Davidson diagonalization with overlap

---- Real-time Memory Report at c_bands before calling an iterative solver
           667 MiB given to the printing process from OS
             0 MiB allocation reported by mallinfo(arena+hblkhd)
        172704 MiB available memory on the node where the printing process lives
------------------
     ethr =  1.58E-05,  avg # of iterations =  6.0

     total cpu time spent up to now is       50.9 secs

     total energy              =   -1422.43167228 Ry
     estimated scf accuracy    <       1.13003812 Ry

     iteration # 58     ecut=    30.00 Ry     beta= 0.70
     Davidson diagonalization with overlap

---- Real-time Memory Report at c_bands before calling an iterative solver
           667 MiB given to the printing process from OS
             0 MiB allocation reported by mallinfo(arena+hblkhd)
        172704 MiB available memory on the node where the printing process lives
------------------
     ethr =  1.58E-05,  avg # of iterations =  7.0

     total cpu time spent up to now is       51.7 secs

     total energy              =   -1422.44405179 Ry
     estimated scf accuracy    <       0.05425884 Ry

     iteration # 59     ecut=    30.00 Ry     beta= 0.70
     Davidson diagonalization with overlap

---- Real-time Memory Report at c_bands before calling an iterative solver
           667 MiB given to the printing process from OS
             0 MiB allocation reported by mallinfo(arena+hblkhd)
        172704 MiB available memory on the node where the printing process lives
------------------
     ethr =  1.58E-05,  avg # of iterations =  8.0

     total cpu time spent up to now is       52.5 secs

     total energy              =   -1422.42972734 Ry
     estimated scf accuracy    <       3.63180356 Ry

     iteration # 60     ecut=    30.00 Ry     beta= 0.70
     Davidson diagonalization with overlap

---- Real-time Memory Report at c_bands before calling an iterative solver
           667 MiB given to the printing process from OS
             0 MiB allocation reported by mallinfo(arena+hblkhd)
        172704 MiB available memory on the node where the printing process lives
------------------
     ethr =  1.58E-05,  avg # of iterations =  8.0

     total cpu time spent up to now is       53.3 secs

     total energy              =   -1422.43793423 Ry
     estimated scf accuracy    <       0.29080194 Ry

     iteration # 61     ecut=    30.00 Ry     beta= 0.70
     Davidson diagonalization with overlap

---- Real-time Memory Report at c_bands before calling an iterative solver
           667 MiB given to the printing process from OS
             0 MiB allocation reported by mallinfo(arena+hblkhd)
        172704 MiB available memory on the node where the printing process lives
------------------
     ethr =  1.58E-05,  avg # of iterations =  2.0

     total cpu time spent up to now is       54.0 secs

     total energy              =   -1422.44729586 Ry
     estimated scf accuracy    <       0.25983457 Ry

     iteration # 62     ecut=    30.00 Ry     beta= 0.70
     Davidson diagonalization with overlap

---- Real-time Memory Report at c_bands before calling an iterative solver
           667 MiB given to the printing process from OS
             0 MiB allocation reported by mallinfo(arena+hblkhd)
        172705 MiB available memory on the node where the printing process lives
------------------
     ethr =  1.58E-05,  avg # of iterations =  8.0

     total cpu time spent up to now is       54.8 secs

     total energy              =   -1422.43534013 Ry
     estimated scf accuracy    <       1.24065133 Ry

     iteration # 63     ecut=    30.00 Ry     beta= 0.70
     Davidson diagonalization with overlap

---- Real-time Memory Report at c_bands before calling an iterative solver
           667 MiB given to the printing process from OS
             0 MiB allocation reported by mallinfo(arena+hblkhd)
        172705 MiB available memory on the node where the printing process lives
------------------
     ethr =  1.58E-05,  avg # of iterations = 10.0

     total cpu time spent up to now is       55.6 secs

     total energy              =   -1422.44402538 Ry
     estimated scf accuracy    <       0.49280021 Ry

     iteration # 64     ecut=    30.00 Ry     beta= 0.70
     Davidson diagonalization with overlap

---- Real-time Memory Report at c_bands before calling an iterative solver
           667 MiB given to the printing process from OS
             0 MiB allocation reported by mallinfo(arena+hblkhd)
        172705 MiB available memory on the node where the printing process lives
------------------
     ethr =  1.58E-05,  avg # of iterations =  1.0

     total cpu time spent up to now is       56.4 secs

     total energy              =   -1422.44774947 Ry
     estimated scf accuracy    <       0.16402817 Ry

     iteration # 65     ecut=    30.00 Ry     beta= 0.70
     Davidson diagonalization with overlap

---- Real-time Memory Report at c_bands before calling an iterative solver
           667 MiB given to the printing process from OS
             0 MiB allocation reported by mallinfo(arena+hblkhd)
        172705 MiB available memory on the node where the printing process lives
------------------
     ethr =  1.58E-05,  avg # of iterations =  2.0

     total cpu time spent up to now is       57.1 secs

     total energy              =   -1422.44357012 Ry
     estimated scf accuracy    <       0.19823658 Ry

     iteration # 66     ecut=    30.00 Ry     beta= 0.70
     Davidson diagonalization with overlap

---- Real-time Memory Report at c_bands before calling an iterative solver
           667 MiB given to the printing process from OS
             0 MiB allocation reported by mallinfo(arena+hblkhd)
        172705 MiB available memory on the node where the printing process lives
------------------
     ethr =  1.58E-05,  avg # of iterations =  7.0

     total cpu time spent up to now is       57.9 secs

     total energy              =   -1422.44720155 Ry
     estimated scf accuracy    <       0.01880498 Ry

     iteration # 67     ecut=    30.00 Ry     beta= 0.70
     Davidson diagonalization with overlap

---- Real-time Memory Report at c_bands before calling an iterative solver
           667 MiB given to the printing process from OS
             0 MiB allocation reported by mallinfo(arena+hblkhd)
        172705 MiB available memory on the node where the printing process lives
------------------
     ethr =  1.58E-05,  avg # of iterations =  7.0

     total cpu time spent up to now is       58.7 secs

     total energy              =   -1422.42858765 Ry
     estimated scf accuracy    <       4.01253338 Ry

     iteration # 68     ecut=    30.00 Ry     beta= 0.70
     Davidson diagonalization with overlap

---- Real-time Memory Report at c_bands before calling an iterative solver
           667 MiB given to the printing process from OS
             0 MiB allocation reported by mallinfo(arena+hblkhd)
        172705 MiB available memory on the node where the printing process lives
------------------
     ethr =  1.58E-05,  avg # of iterations =  7.0

     total cpu time spent up to now is       59.5 secs

     total energy              =   -1422.44106950 Ry
     estimated scf accuracy    <       1.03210592 Ry

     iteration # 69     ecut=    30.00 Ry     beta= 0.70
     Davidson diagonalization with overlap

---- Real-time Memory Report at c_bands before calling an iterative solver
           667 MiB given to the printing process from OS
             0 MiB allocation reported by mallinfo(arena+hblkhd)
        172705 MiB available memory on the node where the printing process lives
------------------
     ethr =  1.58E-05,  avg # of iterations =  7.0

     total cpu time spent up to now is       60.3 secs

     total energy              =   -1422.41648235 Ry
     estimated scf accuracy    <       3.59612385 Ry

     iteration # 70     ecut=    30.00 Ry     beta= 0.70
     Davidson diagonalization with overlap

---- Real-time Memory Report at c_bands before calling an iterative solver
           667 MiB given to the printing process from OS
             0 MiB allocation reported by mallinfo(arena+hblkhd)
        172705 MiB available memory on the node where the printing process lives
------------------
     ethr =  1.58E-05,  avg # of iterations =  9.0

     total cpu time spent up to now is       61.1 secs

     total energy              =   -1422.43278293 Ry
     estimated scf accuracy    <       0.22421804 Ry

     iteration # 71     ecut=    30.00 Ry     beta= 0.70
     Davidson diagonalization with overlap

---- Real-time Memory Report at c_bands before calling an iterative solver
           667 MiB given to the printing process from OS
             0 MiB allocation reported by mallinfo(arena+hblkhd)
        172706 MiB available memory on the node where the printing process lives
------------------
     ethr =  1.58E-05,  avg # of iterations =  7.0

     total cpu time spent up to now is       61.9 secs

     total energy              =   -1422.44684005 Ry
     estimated scf accuracy    <       0.00716471 Ry

     iteration # 72     ecut=    30.00 Ry     beta= 0.70
     Davidson diagonalization with overlap

---- Real-time Memory Report at c_bands before calling an iterative solver
           667 MiB given to the printing process from OS
             0 MiB allocation reported by mallinfo(arena+hblkhd)
        172705 MiB available memory on the node where the printing process lives
------------------
     ethr =  1.35E-05,  avg # of iterations =  7.0

     total cpu time spent up to now is       62.7 secs

     total energy              =   -1422.44019111 Ry
     estimated scf accuracy    <       1.73015773 Ry

     iteration # 73     ecut=    30.00 Ry     beta= 0.70
     Davidson diagonalization with overlap

---- Real-time Memory Report at c_bands before calling an iterative solver
           667 MiB given to the printing process from OS
             0 MiB allocation reported by mallinfo(arena+hblkhd)
        172705 MiB available memory on the node where the printing process lives
------------------
     ethr =  1.35E-05,  avg # of iterations =  7.0

     total cpu time spent up to now is       63.5 secs

     total energy              =   -1422.44543143 Ry
     estimated scf accuracy    <       0.13583355 Ry

     iteration # 74     ecut=    30.00 Ry     beta= 0.70
     Davidson diagonalization with overlap

---- Real-time Memory Report at c_bands before calling an iterative solver
           667 MiB given to the printing process from OS
             0 MiB allocation reported by mallinfo(arena+hblkhd)
        172705 MiB available memory on the node where the printing process lives
------------------
     ethr =  1.35E-05,  avg # of iterations =  2.0

     total cpu time spent up to now is       64.3 secs

     total energy              =   -1422.44658184 Ry
     estimated scf accuracy    <       0.01737375 Ry

     iteration # 75     ecut=    30.00 Ry     beta= 0.70
     Davidson diagonalization with overlap

---- Real-time Memory Report at c_bands before calling an iterative solver
           667 MiB given to the printing process from OS
             0 MiB allocation reported by mallinfo(arena+hblkhd)
        172702 MiB available memory on the node where the printing process lives
------------------
     ethr =  1.35E-05,  avg # of iterations =  1.0

     total cpu time spent up to now is       65.1 secs

     total energy              =   -1422.44712352 Ry
     estimated scf accuracy    <       0.00653608 Ry

     iteration # 76     ecut=    30.00 Ry     beta= 0.70
     Davidson diagonalization with overlap

---- Real-time Memory Report at c_bands before calling an iterative solver
           667 MiB given to the printing process from OS
             0 MiB allocation reported by mallinfo(arena+hblkhd)
        172703 MiB available memory on the node where the printing process lives
------------------
     ethr =  1.23E-05,  avg # of iterations =  1.0

     total cpu time spent up to now is       65.8 secs

     total energy              =   -1422.44658356 Ry
     estimated scf accuracy    <       0.00767709 Ry

     iteration # 77     ecut=    30.00 Ry     beta= 0.70
     Davidson diagonalization with overlap

---- Real-time Memory Report at c_bands before calling an iterative solver
           667 MiB given to the printing process from OS
             0 MiB allocation reported by mallinfo(arena+hblkhd)
        172704 MiB available memory on the node where the printing process lives
------------------
     ethr =  1.23E-05,  avg # of iterations =  7.0

     total cpu time spent up to now is       66.6 secs

     total energy              =   -1422.43212642 Ry
     estimated scf accuracy    <       1.17507264 Ry

     iteration # 78     ecut=    30.00 Ry     beta= 0.70
     Davidson diagonalization with overlap

---- Real-time Memory Report at c_bands before calling an iterative solver
           667 MiB given to the printing process from OS
             0 MiB allocation reported by mallinfo(arena+hblkhd)
        172704 MiB available memory on the node where the printing process lives
------------------
     ethr =  1.23E-05,  avg # of iterations = 10.0

     total cpu time spent up to now is       67.4 secs

     total energy              =   -1422.42799995 Ry
     estimated scf accuracy    <       3.05159848 Ry

     iteration # 79     ecut=    30.00 Ry     beta= 0.70
     Davidson diagonalization with overlap

---- Real-time Memory Report at c_bands before calling an iterative solver
           667 MiB given to the printing process from OS
             0 MiB allocation reported by mallinfo(arena+hblkhd)
        172706 MiB available memory on the node where the printing process lives
------------------
     ethr =  1.23E-05,  avg # of iterations =  9.0

     total cpu time spent up to now is       68.2 secs

     total energy              =   -1422.43746676 Ry
     estimated scf accuracy    <       2.21407728 Ry

     iteration # 80     ecut=    30.00 Ry     beta= 0.70
     Davidson diagonalization with overlap

---- Real-time Memory Report at c_bands before calling an iterative solver
           667 MiB given to the printing process from OS
             0 MiB allocation reported by mallinfo(arena+hblkhd)
        172705 MiB available memory on the node where the printing process lives
------------------
     ethr =  1.23E-05,  avg # of iterations =  7.0

     total cpu time spent up to now is       69.0 secs

     total energy              =   -1422.44348950 Ry
     estimated scf accuracy    <       0.04369762 Ry

     iteration # 81     ecut=    30.00 Ry     beta= 0.70
     Davidson diagonalization with overlap

---- Real-time Memory Report at c_bands before calling an iterative solver
           667 MiB given to the printing process from OS
             0 MiB allocation reported by mallinfo(arena+hblkhd)
        172706 MiB available memory on the node where the printing process lives
------------------
     ethr =  1.23E-05,  avg # of iterations =  1.0

     total cpu time spent up to now is       69.8 secs

     total energy              =   -1422.44644429 Ry
     estimated scf accuracy    <       0.02255380 Ry

     iteration # 82     ecut=    30.00 Ry     beta= 0.70
     Davidson diagonalization with overlap

---- Real-time Memory Report at c_bands before calling an iterative solver
           667 MiB given to the printing process from OS
             0 MiB allocation reported by mallinfo(arena+hblkhd)
        172708 MiB available memory on the node where the printing process lives
------------------
     ethr =  1.23E-05,  avg # of iterations =  2.0

     total cpu time spent up to now is       70.6 secs

     total energy              =   -1422.44590232 Ry
     estimated scf accuracy    <       0.12319851 Ry

     iteration # 83     ecut=    30.00 Ry     beta= 0.70
     Davidson diagonalization with overlap

---- Real-time Memory Report at c_bands before calling an iterative solver
           667 MiB given to the printing process from OS
             0 MiB allocation reported by mallinfo(arena+hblkhd)
        172709 MiB available memory on the node where the printing process lives
------------------
     ethr =  1.23E-05,  avg # of iterations =  1.0

     total cpu time spent up to now is       71.3 secs

     total energy              =   -1422.44639530 Ry
     estimated scf accuracy    <       0.03580052 Ry

     iteration # 84     ecut=    30.00 Ry     beta= 0.70
     Davidson diagonalization with overlap

---- Real-time Memory Report at c_bands before calling an iterative solver
           667 MiB given to the printing process from OS
             0 MiB allocation reported by mallinfo(arena+hblkhd)
        172709 MiB available memory on the node where the printing process lives
------------------
     ethr =  1.23E-05,  avg # of iterations =  2.0

     total cpu time spent up to now is       72.1 secs

     total energy              =   -1422.44658760 Ry
     estimated scf accuracy    <       0.01545697 Ry

     iteration # 85     ecut=    30.00 Ry     beta= 0.70
     Davidson diagonalization with overlap

---- Real-time Memory Report at c_bands before calling an iterative solver
           667 MiB given to the printing process from OS
             0 MiB allocation reported by mallinfo(arena+hblkhd)
        172710 MiB available memory on the node where the printing process lives
------------------
     ethr =  1.23E-05,  avg # of iterations =  1.0

     total cpu time spent up to now is       72.9 secs

     total energy              =   -1422.44595256 Ry
     estimated scf accuracy    <       0.10221444 Ry

     iteration # 86     ecut=    30.00 Ry     beta= 0.70
     Davidson diagonalization with overlap

---- Real-time Memory Report at c_bands before calling an iterative solver
           667 MiB given to the printing process from OS
             0 MiB allocation reported by mallinfo(arena+hblkhd)
        172710 MiB available memory on the node where the printing process lives
------------------
     ethr =  1.23E-05,  avg # of iterations =  1.0

     total cpu time spent up to now is       73.6 secs

     total energy              =   -1422.44656005 Ry
     estimated scf accuracy    <       0.00722704 Ry

     iteration # 87     ecut=    30.00 Ry     beta= 0.70
     Davidson diagonalization with overlap

---- Real-time Memory Report at c_bands before calling an iterative solver
           667 MiB given to the printing process from OS
             0 MiB allocation reported by mallinfo(arena+hblkhd)
        172710 MiB available memory on the node where the printing process lives
------------------
     ethr =  1.23E-05,  avg # of iterations =  5.0

     total cpu time spent up to now is       74.4 secs

     total energy              =   -1422.44051535 Ry
     estimated scf accuracy    <       0.26513716 Ry

     iteration # 88     ecut=    30.00 Ry     beta= 0.70
     Davidson diagonalization with overlap

---- Real-time Memory Report at c_bands before calling an iterative solver
           667 MiB given to the printing process from OS
             0 MiB allocation reported by mallinfo(arena+hblkhd)
        172710 MiB available memory on the node where the printing process lives
------------------
     ethr =  1.23E-05,  avg # of iterations =  7.0

     total cpu time spent up to now is       75.2 secs

     total energy              =   -1422.43575554 Ry
     estimated scf accuracy    <       1.66755216 Ry

     iteration # 89     ecut=    30.00 Ry     beta= 0.70
     Davidson diagonalization with overlap

---- Real-time Memory Report at c_bands before calling an iterative solver
           667 MiB given to the printing process from OS
             0 MiB allocation reported by mallinfo(arena+hblkhd)
        172711 MiB available memory on the node where the printing process lives
------------------
     ethr =  1.23E-05,  avg # of iterations =  9.0

     total cpu time spent up to now is       76.0 secs

     total energy              =   -1422.43657220 Ry
     estimated scf accuracy    <       4.20566292 Ry

     iteration # 90     ecut=    30.00 Ry     beta= 0.70
     Davidson diagonalization with overlap

---- Real-time Memory Report at c_bands before calling an iterative solver
           667 MiB given to the printing process from OS
             0 MiB allocation reported by mallinfo(arena+hblkhd)
        172710 MiB available memory on the node where the printing process lives
------------------
     ethr =  1.23E-05,  avg # of iterations =  9.0

     total cpu time spent up to now is       76.8 secs

     total energy              =   -1422.43976358 Ry
     estimated scf accuracy    <       0.11286409 Ry

     iteration # 91     ecut=    30.00 Ry     beta= 0.70
     Davidson diagonalization with overlap

---- Real-time Memory Report at c_bands before calling an iterative solver
           667 MiB given to the printing process from OS
             0 MiB allocation reported by mallinfo(arena+hblkhd)
        172710 MiB available memory on the node where the printing process lives
------------------
     ethr =  1.23E-05,  avg # of iterations =  2.0

     total cpu time spent up to now is       77.5 secs

     total energy              =   -1422.44599384 Ry
     estimated scf accuracy    <       0.03681640 Ry

     iteration # 92     ecut=    30.00 Ry     beta= 0.70
     Davidson diagonalization with overlap

---- Real-time Memory Report at c_bands before calling an iterative solver
           667 MiB given to the printing process from OS
             0 MiB allocation reported by mallinfo(arena+hblkhd)
        172710 MiB available memory on the node where the printing process lives
------------------
     ethr =  1.23E-05,  avg # of iterations =  2.0

     total cpu time spent up to now is       78.3 secs

     total energy              =   -1422.44341424 Ry
     estimated scf accuracy    <       0.20098813 Ry

     iteration # 93     ecut=    30.00 Ry     beta= 0.70
     Davidson diagonalization with overlap

---- Real-time Memory Report at c_bands before calling an iterative solver
           667 MiB given to the printing process from OS
             0 MiB allocation reported by mallinfo(arena+hblkhd)
        172710 MiB available memory on the node where the printing process lives
------------------
     ethr =  1.23E-05,  avg # of iterations =  2.0

     total cpu time spent up to now is       79.1 secs

     total energy              =   -1422.44400609 Ry
     estimated scf accuracy    <       0.19323587 Ry

     iteration # 94     ecut=    30.00 Ry     beta= 0.70
     Davidson diagonalization with overlap

---- Real-time Memory Report at c_bands before calling an iterative solver
           667 MiB given to the printing process from OS
             0 MiB allocation reported by mallinfo(arena+hblkhd)
        172712 MiB available memory on the node where the printing process lives
------------------
     ethr =  1.23E-05,  avg # of iterations =  7.0

     total cpu time spent up to now is       79.9 secs

     total energy              =   -1422.44475033 Ry
     estimated scf accuracy    <       0.07285102 Ry

     iteration # 95     ecut=    30.00 Ry     beta= 0.70
     Davidson diagonalization with overlap

---- Real-time Memory Report at c_bands before calling an iterative solver
           667 MiB given to the printing process from OS
             0 MiB allocation reported by mallinfo(arena+hblkhd)
        172711 MiB available memory on the node where the printing process lives
------------------
     ethr =  1.23E-05,  avg # of iterations =  1.0

     total cpu time spent up to now is       80.7 secs

     total energy              =   -1422.44561073 Ry
     estimated scf accuracy    <       0.03607981 Ry

     iteration # 96     ecut=    30.00 Ry     beta= 0.70
     Davidson diagonalization with overlap

---- Real-time Memory Report at c_bands before calling an iterative solver
           667 MiB given to the printing process from OS
             0 MiB allocation reported by mallinfo(arena+hblkhd)
        172711 MiB available memory on the node where the printing process lives
------------------
     ethr =  1.23E-05,  avg # of iterations =  3.0

     total cpu time spent up to now is       81.6 secs

     total energy              =   -1422.44566409 Ry
     estimated scf accuracy    <       0.05013886 Ry

     iteration # 97     ecut=    30.00 Ry     beta= 0.70
     Davidson diagonalization with overlap

---- Real-time Memory Report at c_bands before calling an iterative solver
           667 MiB given to the printing process from OS
             0 MiB allocation reported by mallinfo(arena+hblkhd)
        172711 MiB available memory on the node where the printing process lives
------------------
     ethr =  1.23E-05,  avg # of iterations =  7.0

     total cpu time spent up to now is       82.4 secs

     total energy              =   -1422.43166054 Ry
     estimated scf accuracy    <       1.08459856 Ry

     iteration # 98     ecut=    30.00 Ry     beta= 0.70
     Davidson diagonalization with overlap

---- Real-time Memory Report at c_bands before calling an iterative solver
           667 MiB given to the printing process from OS
             0 MiB allocation reported by mallinfo(arena+hblkhd)
        172711 MiB available memory on the node where the printing process lives
------------------
     ethr =  1.23E-05,  avg # of iterations =  7.0

     total cpu time spent up to now is       83.2 secs

     total energy              =   -1422.44251597 Ry
     estimated scf accuracy    <       2.40926248 Ry

     iteration # 99     ecut=    30.00 Ry     beta= 0.70
     Davidson diagonalization with overlap

---- Real-time Memory Report at c_bands before calling an iterative solver
           667 MiB given to the printing process from OS
             0 MiB allocation reported by mallinfo(arena+hblkhd)
        172712 MiB available memory on the node where the printing process lives
------------------
     ethr =  1.23E-05,  avg # of iterations =  1.0

     total cpu time spent up to now is       83.9 secs

     total energy              =   -1422.44084934 Ry
     estimated scf accuracy    <       3.30274914 Ry

     iteration #100     ecut=    30.00 Ry     beta= 0.70
     Davidson diagonalization with overlap

---- Real-time Memory Report at c_bands before calling an iterative solver
           667 MiB given to the printing process from OS
             0 MiB allocation reported by mallinfo(arena+hblkhd)
        172712 MiB available memory on the node where the printing process lives
------------------
     ethr =  1.23E-05,  avg # of iterations =  4.0

     total cpu time spent up to now is       84.7 secs

     total energy              =   -1422.44382595 Ry
     estimated scf accuracy    <       0.01616535 Ry

     End of self-consistent calculation

     convergence NOT achieved after 100 iterations: stopping

     Writing config to output data dir new_calculations/myprefix.save/
     Message from routine punch:
     wavefunctions written to file
