
     Program PWSCF v.7.1 starts on 14Jul2023 at 18:34:20 

     This program is part of the open-source Quantum ESPRESSO suite
     for quantum simulation of materials; please cite
         "P. Giannozzi et al., J. Phys.:Condens. Matter 21 395502 (2009);
         "P. Giannozzi et al., J. Phys.:Condens. Matter 29 465901 (2017);
         "P. Giannozzi et al., J. Chem. Phys. 152 154105 (2020);
          URL http://www.quantum-espresso.org", 
     in publications or presentations arising from this work. More details at
     http://www.quantum-espresso.org/quote

     Parallel version (MPI & OpenMP), running on      32 processor cores
     Number of MPI processes:                 8
     Threads/MPI process:                     4

     MPI processes distributed on     1 nodes
     234976 MiB available memory on the printing compute node when the environment starts
 
     Reading input from espresso_21341.pwi
Warning: card &CELL ignored
Warning: card / ignored

     Current dimensions of program PWSCF are:
     Max number of different atomic species (ntypx) = 10
     Max number of k-points (npk) =  40000
     Max angular momentum in pseudopotentials (lmaxx) =  4
     Message from routine setup:
     using ibrav=0 with symmetry is DISCOURAGED, use correct ibrav instead
 
     K-points division:     npool     =       2
     R & G space division:  proc/nbgrp/npool/nimage =       4
     Subspace diagonalization in iterative solution of the eigenvalue problem:
     a serial algorithm will be used

 
     Parallelization info
     --------------------
     sticks:   dense  smooth     PW     G-vecs:    dense   smooth      PW
     Min         349     174     50                16281     5751     889
     Max         351     175     51                16282     5753     892
     Sum        1399     699    203                65125    23007    3563
 
     Using Slab Decomposition
 


     bravais-lattice index     =            0
     lattice parameter (alat)  =       8.3108  a.u.
     unit-cell volume          =    1037.3531 (a.u.)^3
     number of atoms/cell      =           12
     number of atomic types    =            3
     number of electrons       =        32.00
     number of Kohn-Sham states=           64
     kinetic-energy cutoff     =      30.0000  Ry
     charge density cutoff     =     240.0000  Ry
     scf convergence threshold =      1.0E-06
     mixing beta               =       0.7000
     number of iterations used =            8  plain     mixing
     Exchange-correlation= PBE
                           (   1   4   3   4   0   0   0)

     celldm(1)=   8.310804  celldm(2)=   0.000000  celldm(3)=   0.000000
     celldm(4)=   0.000000  celldm(5)=   0.000000  celldm(6)=   0.000000

     crystal axes: (cart. coord. in units of alat)
               a(1) = (   1.000000   0.000000   0.000000 )  
               a(2) = (   0.000000   1.060217   0.000000 )  
               a(3) = (   0.000000   0.324630   1.704523 )  

     reciprocal axes: (cart. coord. in units 2 pi/alat)
               b(1) = (  1.000000  0.000000  0.000000 )  
               b(2) = (  0.000000  0.943203 -0.179635 )  
               b(3) = (  0.000000  0.000000  0.586674 )  


     PseudoPot. # 1 for Na read from file:
     /lustre07/scratch/pragov/crystal_structure_design/utils/SSSP/na_pbe_v1.5.uspp.F.UPF
     MD5 check sum: 44600605ef58000f06b90626533354dc
     Pseudo is Ultrasoft, Zval =  9.0
     Generated by new atomic code, or converted to UPF format
     Using radial grid of  819 points,  5 beta functions with: 
                l(1) =   0
                l(2) =   0
                l(3) =   1
                l(4) =   1
                l(5) =   2
     Q(r) pseudized with  8 coefficients,  rinner =    1.250   1.250   1.250
                                                       1.250   1.250

     PseudoPot. # 2 for B  read from file:
     /lustre07/scratch/pragov/crystal_structure_design/utils/SSSP/b_pbe_v1.4.uspp.F.UPF
     MD5 check sum: cc6de2960df11db49a60e589f9ebb39b
     Pseudo is Ultrasoft + core correction, Zval =  3.0
     Generated by new atomic code, or converted to UPF format
     Using radial grid of  781 points,  4 beta functions with: 
                l(1) =   0
                l(2) =   0
                l(3) =   1
                l(4) =   1
     Q(r) pseudized with  8 coefficients,  rinner =    1.100   1.100   1.100


     PseudoPot. # 3 for H  read from file:
     /lustre07/scratch/pragov/crystal_structure_design/utils/SSSP/H.pbe-rrkjus_psl.1.0.0.UPF
     MD5 check sum: f52b6d4d1c606e5624b1dc7b2218f220
     Pseudo is Ultrasoft, Zval =  1.0
     Generated using "atomic" code by A. Dal Corso  v.5.1
     Using radial grid of  929 points,  2 beta functions with: 
                l(1) =   0
                l(2) =   0
     Q(r) pseudized with 0 coefficients 


     atomic species   valence    mass     pseudopotential
        Na             9.00    22.98977     Na( 1.00)
        B              3.00    10.81000     B ( 1.00)
        H              1.00     1.00800     H ( 1.00)

      2 Sym. Ops. (no inversion) found


                                    s                        frac. trans.

      isym =  1     identity                                     

 cryst.   s( 1) = (     1          0          0      )
                  (     0          1          0      )
                  (     0          0          1      )

 cart.    s( 1) = (  1.0000000  0.0000000  0.0000000 )
                  (  0.0000000  1.0000000  0.0000000 )
                  (  0.0000000  0.0000000  1.0000000 )


      isym =  2     inv. 180 deg rotation - cart. axis [1,0,0]   

 cryst.   s( 2) = (    -1          0          0      )
                  (     0          1          0      )
                  (     0          0          1      )

 cart.    s( 2) = ( -1.0000000  0.0000000  0.0000000 )
                  (  0.0000000  1.0000000  0.0000000 )
                  (  0.0000000  0.0000000  1.0000000 )


   Cartesian axes

     site n.     atom                  positions (alat units)
         1           Na  tau(   1) = (   0.0000000   0.9225160   0.1321415  )
         2           Na  tau(   2) = (   0.0000000   0.2243001   1.0013324  )
         3           B   tau(   3) = (   0.0000000   0.7800617   0.6843916  )
         4           B   tau(   4) = (   0.5000000   1.2644537   1.4463203  )
         5           H   tau(   5) = (   0.2791220   1.0941123   1.4330063  )
         6           H   tau(   6) = (   0.7208780   1.0941123   1.4330063  )
         7           H   tau(   7) = (   0.7695120   0.9225525   0.6157794  )
         8           H   tau(   8) = (   0.2304880   0.9225525   0.6157794  )
         9           H   tau(   9) = (   0.0000000   0.7413646   0.9601715  )
        10           H   tau(  10) = (   0.0000000   0.5359753   0.5468843  )
        11           H   tau(  11) = (   0.5000000   0.3510338   1.6854615  )
        12           H   tau(  12) = (   0.5000000   0.3852813   1.2342265  )

   Crystallographic axes

     site n.     atom                  positions (cryst. coord.)
         1           Na  tau(   1) = (  0.0000000  0.8463830  0.0775240  )
         2           Na  tau(   2) = (  0.0000000  0.0316860  0.5874560  )
         3           B   tau(   3) = (  0.0000000  0.6128160  0.4015150  )
         4           B   tau(   4) = (  0.5000000  0.9328270  0.8485190  )
         5           H   tau(   5) = (  0.2791220  0.7745520  0.8407080  )
         6           H   tau(   6) = (  0.7208780  0.7745520  0.8407080  )
         7           H   tau(   7) = (  0.7695120  0.7595390  0.3612620  )
         8           H   tau(   8) = (  0.2304880  0.7595390  0.3612620  )
         9           H   tau(   9) = (  0.0000000  0.5267770  0.5633080  )
        10           H   tau(  10) = (  0.0000000  0.4072940  0.3208430  )
        11           H   tau(  11) = (  0.5000000  0.0283280  0.9888170  )
        12           H   tau(  12) = (  0.5000000  0.1416880  0.7240890  )

     number of k points=    10
                       cart. coord. in units 2pi/alat
        k(    1) = (   0.0000000   0.0000000   0.0000000), wk =   0.0740741
        k(    2) = (   0.0000000   0.0000000   0.1955581), wk =   0.1481481
        k(    3) = (   0.0000000   0.3144012  -0.0598784), wk =   0.1481481
        k(    4) = (   0.0000000   0.3144012   0.1356797), wk =   0.1481481
        k(    5) = (   0.0000000   0.3144012  -0.2554365), wk =   0.1481481
        k(    6) = (   0.3333333   0.0000000   0.0000000), wk =   0.1481481
        k(    7) = (   0.3333333   0.0000000   0.1955581), wk =   0.2962963
        k(    8) = (   0.3333333   0.3144012  -0.0598784), wk =   0.2962963
        k(    9) = (   0.3333333   0.3144012   0.1356797), wk =   0.2962963
        k(   10) = (   0.3333333   0.3144012  -0.2554365), wk =   0.2962963

                       cryst. coord.
        k(    1) = (   0.0000000   0.0000000   0.0000000), wk =   0.0740741
        k(    2) = (   0.0000000   0.0000000   0.3333333), wk =   0.1481481
        k(    3) = (   0.0000000   0.3333333   0.0000000), wk =   0.1481481
        k(    4) = (   0.0000000   0.3333333   0.3333333), wk =   0.1481481
        k(    5) = (   0.0000000   0.3333333  -0.3333333), wk =   0.1481481
        k(    6) = (   0.3333333   0.0000000   0.0000000), wk =   0.1481481
        k(    7) = (   0.3333333   0.0000000   0.3333333), wk =   0.2962963
        k(    8) = (   0.3333333   0.3333333   0.0000000), wk =   0.2962963
        k(    9) = (   0.3333333   0.3333333   0.3333333), wk =   0.2962963
        k(   10) = (   0.3333333   0.3333333  -0.3333333), wk =   0.2962963

     Dense  grid:    65125 G-vectors     FFT dimensions: (  45,  45,  72)

     Smooth grid:    23007 G-vectors     FFT dimensions: (  30,  32,  54)

     Dynamical RAM for                 wfc:       0.70 MB

     Dynamical RAM for     wfc (w. buffer):       4.21 MB

     Dynamical RAM for           str. fact:       0.75 MB

     Dynamical RAM for           local pot:       0.00 MB

     Dynamical RAM for          nlocal pot:       0.64 MB

     Dynamical RAM for                qrad:       2.67 MB

     Dynamical RAM for          rho,v,vnew:       1.58 MB

     Dynamical RAM for               rhoin:       0.53 MB

     Dynamical RAM for            rho*nmix:       3.98 MB

     Dynamical RAM for           G-vectors:       0.98 MB

     Dynamical RAM for          h,s,v(r/c):       0.75 MB

     Dynamical RAM for          <psi|beta>:       0.06 MB

     Dynamical RAM for                 psi:       1.40 MB

     Dynamical RAM for                hpsi:       1.40 MB

     Dynamical RAM for                spsi:       1.40 MB

     Dynamical RAM for      wfcinit/wfcrot:       1.50 MB

     Dynamical RAM for           addusdens:      14.29 MB

     Estimated static dynamical RAM per process >      13.73 MB

     Estimated max dynamical RAM per process >      31.99 MB

     Estimated total dynamical RAM >     240.00 MB

     Initial potential from superposition of free atoms

     starting charge      31.9868, renormalised to      32.0000
     Starting wfcs are   26 randomized atomic wfcs +   38 random wfcs

     total cpu time spent up to now is        0.6 secs

     Self-consistent Calculation

     iteration #  1     ecut=    30.00 Ry     beta= 0.70
     Davidson diagonalization with overlap

---- Real-time Memory Report at c_bands before calling an iterative solver
           200 MiB given to the printing process from OS
             0 MiB allocation reported by mallinfo(arena+hblkhd)
        234715 MiB available memory on the node where the printing process lives
------------------
     ethr =  1.00E-02,  avg # of iterations =  7.6

     total cpu time spent up to now is        1.4 secs

     total energy              =    -212.66410365 Ry
     estimated scf accuracy    <       1.39065087 Ry

     iteration #  2     ecut=    30.00 Ry     beta= 0.70
     Davidson diagonalization with overlap

---- Real-time Memory Report at c_bands before calling an iterative solver
           219 MiB given to the printing process from OS
             0 MiB allocation reported by mallinfo(arena+hblkhd)
        234646 MiB available memory on the node where the printing process lives
------------------
     ethr =  4.35E-03,  avg # of iterations =  2.0

     total cpu time spent up to now is        1.7 secs

     total energy              =    -212.96631466 Ry
     estimated scf accuracy    <       0.35061488 Ry

     iteration #  3     ecut=    30.00 Ry     beta= 0.70
     Davidson diagonalization with overlap

---- Real-time Memory Report at c_bands before calling an iterative solver
           223 MiB given to the printing process from OS
             0 MiB allocation reported by mallinfo(arena+hblkhd)
        234608 MiB available memory on the node where the printing process lives
------------------
     ethr =  1.10E-03,  avg # of iterations =  1.0

     total cpu time spent up to now is        2.0 secs

     total energy              =    -213.03822306 Ry
     estimated scf accuracy    <       0.00576781 Ry

     iteration #  4     ecut=    30.00 Ry     beta= 0.70
     Davidson diagonalization with overlap

---- Real-time Memory Report at c_bands before calling an iterative solver
           223 MiB given to the printing process from OS
             0 MiB allocation reported by mallinfo(arena+hblkhd)
        234609 MiB available memory on the node where the printing process lives
------------------
     ethr =  1.80E-05,  avg # of iterations =  7.3

     total cpu time spent up to now is        2.5 secs

     total energy              =    -213.03931112 Ry
     estimated scf accuracy    <       0.00018880 Ry

     iteration #  5     ecut=    30.00 Ry     beta= 0.70
     Davidson diagonalization with overlap

---- Real-time Memory Report at c_bands before calling an iterative solver
           223 MiB given to the printing process from OS
             0 MiB allocation reported by mallinfo(arena+hblkhd)
        234607 MiB available memory on the node where the printing process lives
------------------
     ethr =  5.90E-07,  avg # of iterations =  2.6

     total cpu time spent up to now is        2.8 secs

     total energy              =    -213.03935936 Ry
     estimated scf accuracy    <       0.00001938 Ry

     iteration #  6     ecut=    30.00 Ry     beta= 0.70
     Davidson diagonalization with overlap

---- Real-time Memory Report at c_bands before calling an iterative solver
           224 MiB given to the printing process from OS
             0 MiB allocation reported by mallinfo(arena+hblkhd)
        234607 MiB available memory on the node where the printing process lives
------------------
     ethr =  6.06E-08,  avg # of iterations =  1.0

     total cpu time spent up to now is        3.1 secs

     End of self-consistent calculation

          k = 0.0000 0.0000 0.0000 (  2877 PWs)   bands (ev):

   -52.2342 -51.9679 -24.1815 -24.1261 -24.1229 -23.8829 -23.8778 -23.8595
    -9.0711  -8.5629  -4.3186  -3.6552  -3.4304  -3.2877  -3.2340  -2.8236
     2.6685   3.8278   5.0666   5.6540   6.5544   7.0379   7.3253   7.6790
     7.7235   8.2539   8.9449   9.4392   9.8206   9.9907  10.5077  11.1248
    11.6332  11.7406  12.8912  12.9760  13.1638  13.8222  14.2086  14.7382
    15.0096  15.4853  15.7107  15.8732  16.7432  17.3556  17.7074  18.5834
    18.6251  18.6317  19.1195  19.5813  20.6553  20.6851  20.9941  21.3716
    21.6521  21.9527  23.4925  23.6073  23.8453  23.8466  24.4562  24.6977

     occupation numbers 
     1.0000   1.0000   1.0000   1.0000   1.0000   1.0000   1.0000   1.0000
     1.0000   1.0000   1.0000   1.0000   1.0000   1.0000   1.0000   1.0000
     0.0000   0.0000   0.0000   0.0000   0.0000   0.0000   0.0000   0.0000
     0.0000   0.0000   0.0000   0.0000   0.0000   0.0000   0.0000   0.0000
     0.0000   0.0000   0.0000   0.0000   0.0000   0.0000   0.0000   0.0000
     0.0000   0.0000   0.0000   0.0000   0.0000   0.0000   0.0000   0.0000
     0.0000   0.0000   0.0000   0.0000   0.0000   0.0000   0.0000   0.0000
     0.0000   0.0000   0.0000   0.0000   0.0000   0.0000   0.0000   0.0000

          k = 0.0000 0.0000 0.1956 (  2883 PWs)   bands (ev):

   -52.2343 -51.9680 -24.1829 -24.1253 -24.1232 -23.8825 -23.8781 -23.8609
    -8.9897  -8.6684  -4.0989  -3.6886  -3.5625  -3.3433  -3.2254  -2.8344
     3.0309   3.8619   4.6617   5.5966   6.1129   6.4134   7.4111   7.8682
     8.2828   8.5604   9.1347   9.2718  10.0177  10.1570  10.6442  11.1933
    11.8190  12.1449  12.4643  12.6169  13.2848  13.6733  14.1289  14.1479
    15.1557  15.6941  15.6987  16.1173  16.4127  17.1042  17.5653  17.8185
    18.5794  18.7191  19.1237  20.6734  20.7384  21.2823  21.3780  21.3868
    21.9100  22.4688  22.6473  22.7513  23.2561  23.3558  23.8396  24.2287

     occupation numbers 
     1.0000   1.0000   1.0000   1.0000   1.0000   1.0000   1.0000   1.0000
     1.0000   1.0000   1.0000   1.0000   1.0000   1.0000   1.0000   1.0000
     0.0000   0.0000   0.0000   0.0000   0.0000   0.0000   0.0000   0.0000
     0.0000   0.0000   0.0000   0.0000   0.0000   0.0000   0.0000   0.0000
     0.0000   0.0000   0.0000   0.0000   0.0000   0.0000   0.0000   0.0000
     0.0000   0.0000   0.0000   0.0000   0.0000   0.0000   0.0000   0.0000
     0.0000   0.0000   0.0000   0.0000   0.0000   0.0000   0.0000   0.0000
     0.0000   0.0000   0.0000   0.0000   0.0000   0.0000   0.0000   0.0000

          k = 0.0000 0.3144-0.0599 (  2884 PWs)   bands (ev):

   -52.2343 -51.9679 -24.1826 -24.1259 -24.1233 -23.8828 -23.8782 -23.8627
    -8.8900  -8.5196  -4.2787  -3.9541  -3.8283  -3.3862  -3.1886  -2.7892
     3.4428   4.3778   4.9131   5.1865   5.8376   6.6024   6.8074   7.5673
     8.1426   8.5836   8.6637   9.2730  10.1436  10.3273  10.8501  11.3138
    11.8312  12.2012  12.4702  13.3266  13.4486  14.2530  14.5396  15.0080
    15.4751  15.5103  15.9030  16.3216  17.1376  17.6183  17.6373  18.3024
    18.4270  19.2329  19.4930  19.7733  20.5568  20.8817  20.9077  21.1806
    21.6781  22.0460  22.5834  22.7616  23.1781  23.5098  23.7937  24.1163

     occupation numbers 
     1.0000   1.0000   1.0000   1.0000   1.0000   1.0000   1.0000   1.0000
     1.0000   1.0000   1.0000   1.0000   1.0000   1.0000   1.0000   1.0000
     0.0000   0.0000   0.0000   0.0000   0.0000   0.0000   0.0000   0.0000
     0.0000   0.0000   0.0000   0.0000   0.0000   0.0000   0.0000   0.0000
     0.0000   0.0000   0.0000   0.0000   0.0000   0.0000   0.0000   0.0000
     0.0000   0.0000   0.0000   0.0000   0.0000   0.0000   0.0000   0.0000
     0.0000   0.0000   0.0000   0.0000   0.0000   0.0000   0.0000   0.0000
     0.0000   0.0000   0.0000   0.0000   0.0000   0.0000   0.0000   0.0000

          k = 0.0000 0.3144 0.1357 (  2878 PWs)   bands (ev):

   -52.2342 -51.9679 -24.1828 -24.1252 -24.1229 -23.8824 -23.8778 -23.8629
    -8.8707  -8.5396  -4.2551  -4.1299  -3.7634  -3.2651  -3.1838  -2.7958
     3.4557   4.4088   4.6410   5.2013   5.8773   6.5152   7.0965   7.5100
     7.6358   8.9235   9.0207   9.4404   9.7592  10.5407  10.6583  11.2870
    11.9608  12.4029  12.9258  13.0866  13.3660  14.1034  14.3727  15.0156
    15.1070  15.2976  16.0133  16.8193  17.0679  17.0801  17.9205  18.5175
    18.5755  19.0414  19.3986  19.8383  20.2726  20.6092  20.6817  21.1854
    22.1515  22.1944  22.8350  22.9813  23.4688  23.5250  23.8147  23.8212

     occupation numbers 
     1.0000   1.0000   1.0000   1.0000   1.0000   1.0000   1.0000   1.0000
     1.0000   1.0000   1.0000   1.0000   1.0000   1.0000   1.0000   1.0000
     0.0000   0.0000   0.0000   0.0000   0.0000   0.0000   0.0000   0.0000
     0.0000   0.0000   0.0000   0.0000   0.0000   0.0000   0.0000   0.0000
     0.0000   0.0000   0.0000   0.0000   0.0000   0.0000   0.0000   0.0000
     0.0000   0.0000   0.0000   0.0000   0.0000   0.0000   0.0000   0.0000
     0.0000   0.0000   0.0000   0.0000   0.0000   0.0000   0.0000   0.0000
     0.0000   0.0000   0.0000   0.0000   0.0000   0.0000   0.0000   0.0000

          k = 0.0000 0.3144-0.2554 (  2863 PWs)   bands (ev):

   -52.2340 -51.9677 -24.1820 -24.1245 -24.1222 -23.8821 -23.8770 -23.8616
    -8.8233  -8.5969  -4.2831  -4.0271  -3.6576  -3.4485  -3.1819  -2.7970
     3.4375   4.4931   4.6780   5.3747   5.7848   6.3017   6.8957   7.5557
     7.7889   8.7343   9.2587   9.2863  10.0347  10.2422  10.5974  11.5253
    11.6864  12.4700  12.9889  13.4402  14.0226  14.1842  14.4783  14.6013
    14.9897  15.3967  15.5667  16.2646  17.0577  17.4909  17.5479  18.3304
    18.6732  18.8273  19.2557  19.9974  20.1091  20.6801  21.5156  21.5948
    21.9719  22.1903  22.4980  22.8071  23.4086  23.4962  23.9160  24.3970

     occupation numbers 
     1.0000   1.0000   1.0000   1.0000   1.0000   1.0000   1.0000   1.0000
     1.0000   1.0000   1.0000   1.0000   1.0000   1.0000   1.0000   1.0000
     0.0000   0.0000   0.0000   0.0000   0.0000   0.0000   0.0000   0.0000
     0.0000   0.0000   0.0000   0.0000   0.0000   0.0000   0.0000   0.0000
     0.0000   0.0000   0.0000   0.0000   0.0000   0.0000   0.0000   0.0000
     0.0000   0.0000   0.0000   0.0000   0.0000   0.0000   0.0000   0.0000
     0.0000   0.0000   0.0000   0.0000   0.0000   0.0000   0.0000   0.0000
     0.0000   0.0000   0.0000   0.0000   0.0000   0.0000   0.0000   0.0000

          k = 0.3333 0.0000 0.0000 (  2880 PWs)   bands (ev):

   -52.2343 -51.9680 -24.1832 -24.1268 -24.1251 -23.8823 -23.8806 -23.8612
    -8.7705  -8.4731  -4.3101  -3.9385  -3.7242  -3.5351  -3.3535  -3.1056
     3.5147   4.6784   5.2943   5.7257   6.0169   6.0341   6.8498   7.2677
     7.9886   8.2654   8.8231   9.4700   9.6447   9.9364  10.3515  11.4540
    11.5474  11.9017  13.2281  13.6390  13.7799  13.9933  14.4423  14.8236
    15.2256  15.9718  16.3280  16.5542  17.2002  17.8161  18.0315  18.6804
    18.8567  19.3234  19.4269  20.0773  20.7883  21.1530  21.4407  21.6767
    22.0948  22.3890  22.5899  23.1557  23.3094  23.7430  23.7929  24.0745

     occupation numbers 
     1.0000   1.0000   1.0000   1.0000   1.0000   1.0000   1.0000   1.0000
     1.0000   1.0000   1.0000   1.0000   1.0000   1.0000   1.0000   1.0000
     0.0000   0.0000   0.0000   0.0000   0.0000   0.0000   0.0000   0.0000
     0.0000   0.0000   0.0000   0.0000   0.0000   0.0000   0.0000   0.0000
     0.0000   0.0000   0.0000   0.0000   0.0000   0.0000   0.0000   0.0000
     0.0000   0.0000   0.0000   0.0000   0.0000   0.0000   0.0000   0.0000
     0.0000   0.0000   0.0000   0.0000   0.0000   0.0000   0.0000   0.0000
     0.0000   0.0000   0.0000   0.0000   0.0000   0.0000   0.0000   0.0000

          k = 0.3333 0.0000 0.1956 (  2882 PWs)   bands (ev):

   -52.2344 -51.9680 -24.1831 -24.1271 -24.1248 -23.8824 -23.8809 -23.8612
    -8.7242  -8.5222  -4.3888  -4.0029  -3.6486  -3.4492  -3.3510  -3.0897
     3.6083   4.6420   5.1105   5.5011   6.0036   6.1573   6.8706   7.3847
     7.5685   8.3833   8.7261   9.2523   9.6967  10.3054  10.9424  11.3369
    11.7928  12.4055  13.1222  13.6337  13.7090  14.1658  14.3197  14.7230
    15.2111  15.8937  16.0768  16.3344  17.1302  17.5233  17.5738  18.4030
    19.0091  19.4692  19.7207  20.0371  20.2284  20.7751  21.1853  21.6834
    21.7575  22.2061  22.4049  23.2234  23.7315  24.0861  24.2961  24.7067

     occupation numbers 
     1.0000   1.0000   1.0000   1.0000   1.0000   1.0000   1.0000   1.0000
     1.0000   1.0000   1.0000   1.0000   1.0000   1.0000   1.0000   1.0000
     0.0000   0.0000   0.0000   0.0000   0.0000   0.0000   0.0000   0.0000
     0.0000   0.0000   0.0000   0.0000   0.0000   0.0000   0.0000   0.0000
     0.0000   0.0000   0.0000   0.0000   0.0000   0.0000   0.0000   0.0000
     0.0000   0.0000   0.0000   0.0000   0.0000   0.0000   0.0000   0.0000
     0.0000   0.0000   0.0000   0.0000   0.0000   0.0000   0.0000   0.0000
     0.0000   0.0000   0.0000   0.0000   0.0000   0.0000   0.0000   0.0000

          k = 0.3333 0.3144-0.0599 (  2884 PWs)   bands (ev):

   -52.2343 -51.9680 -24.1828 -24.1275 -24.1255 -23.8826 -23.8814 -23.8629
    -8.6316  -8.3906  -4.2417  -3.9116  -3.7725  -3.7109  -3.5936  -3.2912
     3.5284   4.1884   5.0961   5.2239   5.9138   6.5373   6.8208   7.1646
     8.1632   8.5228   8.9076   9.4143  10.1197  11.0561  11.3187  11.8758
    12.4073  12.6908  12.8170  13.4664  13.8366  14.3225  14.4165  14.9531
    15.2844  15.7622  16.0528  16.8557  17.0094  17.2162  18.0065  18.3574
    18.7245  19.0762  19.2628  19.9460  20.2649  20.5808  20.8765  21.3227
    21.7821  22.0610  22.2965  22.5191  22.9103  23.0926  23.4079  23.8245

     occupation numbers 
     1.0000   1.0000   1.0000   1.0000   1.0000   1.0000   1.0000   1.0000
     1.0000   1.0000   1.0000   1.0000   1.0000   1.0000   1.0000   1.0000
     0.0000   0.0000   0.0000   0.0000   0.0000   0.0000   0.0000   0.0000
     0.0000   0.0000   0.0000   0.0000   0.0000   0.0000   0.0000   0.0000
     0.0000   0.0000   0.0000   0.0000   0.0000   0.0000   0.0000   0.0000
     0.0000   0.0000   0.0000   0.0000   0.0000   0.0000   0.0000   0.0000
     0.0000   0.0000   0.0000   0.0000   0.0000   0.0000   0.0000   0.0000
     0.0000   0.0000   0.0000   0.0000   0.0000   0.0000   0.0000   0.0000

          k = 0.3333 0.3144 0.1357 (  2891 PWs)   bands (ev):

   -52.2344 -51.9681 -24.1826 -24.1283 -24.1258 -23.8833 -23.8821 -23.8626
    -8.6223  -8.3984  -4.3040  -3.9960  -3.7231  -3.6820  -3.4953  -3.3066
     3.4747   4.2693   5.0519   5.3809   5.8653   6.3504   6.7926   7.1240
     8.0432   8.5618   9.1321   9.3390  10.1238  10.5916  11.7247  11.9247
    12.2260  12.8509  13.1653  13.3725  13.9331  14.1491  14.8929  15.1245
    15.3268  15.9147  16.0735  16.4608  17.1230  17.3331  17.7115  18.1098
    18.5698  19.2573  19.4731  19.6341  20.0954  20.5445  20.8104  21.0483
    21.4288  21.7814  22.0252  22.2327  22.6698  23.1128  23.3891  23.9832

     occupation numbers 
     1.0000   1.0000   1.0000   1.0000   1.0000   1.0000   1.0000   1.0000
     1.0000   1.0000   1.0000   1.0000   1.0000   1.0000   1.0000   1.0000
     0.0000   0.0000   0.0000   0.0000   0.0000   0.0000   0.0000   0.0000
     0.0000   0.0000   0.0000   0.0000   0.0000   0.0000   0.0000   0.0000
     0.0000   0.0000   0.0000   0.0000   0.0000   0.0000   0.0000   0.0000
     0.0000   0.0000   0.0000   0.0000   0.0000   0.0000   0.0000   0.0000
     0.0000   0.0000   0.0000   0.0000   0.0000   0.0000   0.0000   0.0000
     0.0000   0.0000   0.0000   0.0000   0.0000   0.0000   0.0000   0.0000

          k = 0.3333 0.3144-0.2554 (  2871 PWs)   bands (ev):

   -52.2342 -51.9678 -24.1818 -24.1273 -24.1246 -23.8821 -23.8811 -23.8618
    -8.6005  -8.4210  -4.3079  -4.0075  -3.7427  -3.6638  -3.5018  -3.2727
     3.7060   4.3119   4.6431   5.3678   5.7006   6.3474   6.8088   7.3839
     7.5042   8.8025   9.3303   9.9190  10.4622  10.7487  11.2145  11.7486
    12.3066  12.4536  13.3420  13.5788  13.7685  14.0461  14.8345  15.0637
    15.3381  15.7972  15.8691  16.6862  17.0043  17.4484  17.7062  18.1239
    18.4096  18.8316  19.3271  19.7229  20.1618  20.4070  20.8008  20.9766
    21.3021  22.0365  22.4172  22.5869  23.0081  23.2746  23.8172  23.9723

     occupation numbers 
     1.0000   1.0000   1.0000   1.0000   1.0000   1.0000   1.0000   1.0000
     1.0000   1.0000   1.0000   1.0000   1.0000   1.0000   1.0000   1.0000
     0.0000   0.0000   0.0000   0.0000   0.0000   0.0000   0.0000   0.0000
     0.0000   0.0000   0.0000   0.0000   0.0000   0.0000   0.0000   0.0000
     0.0000   0.0000   0.0000   0.0000   0.0000   0.0000   0.0000   0.0000
     0.0000   0.0000   0.0000   0.0000   0.0000   0.0000   0.0000   0.0000
     0.0000   0.0000   0.0000   0.0000   0.0000   0.0000   0.0000   0.0000
     0.0000   0.0000   0.0000   0.0000   0.0000   0.0000   0.0000   0.0000

     highest occupied, lowest unoccupied level (ev):    -2.7892    2.6685

!    total energy              =    -213.03936326 Ry
     estimated scf accuracy    <       0.00000099 Ry

     The total energy is the sum of the following terms:
     one-electron contribution =    -204.76043758 Ry
     hartree contribution      =     106.52505098 Ry
     xc contribution           =     -40.43553697 Ry
     ewald contribution        =     -74.36843969 Ry

     convergence has been achieved in   6 iterations

     Writing all to output data dir bands_nm/myprefix.save/
