
     Program PWSCF v.7.1 starts on 14Jul2023 at 17:31:49 

     This program is part of the open-source Quantum ESPRESSO suite
     for quantum simulation of materials; please cite
         "P. Giannozzi et al., J. Phys.:Condens. Matter 21 395502 (2009);
         "P. Giannozzi et al., J. Phys.:Condens. Matter 29 465901 (2017);
         "P. Giannozzi et al., J. Chem. Phys. 152 154105 (2020);
          URL http://www.quantum-espresso.org", 
     in publications or presentations arising from this work. More details at
     http://www.quantum-espresso.org/quote

     Parallel version (MPI & OpenMP), running on      32 processor cores
     Number of MPI processes:                 8
     Threads/MPI process:                     4

     MPI processes distributed on     1 nodes
     243603 MiB available memory on the printing compute node when the environment starts
 
     Reading input from espresso_20454.pwi
Warning: card &CELL ignored
Warning: card / ignored

     Current dimensions of program PWSCF are:
     Max number of different atomic species (ntypx) = 10
     Max number of k-points (npk) =  40000
     Max angular momentum in pseudopotentials (lmaxx) =  4
     file C.pbe-n-kjpaw_psl.1.0.0.UPF: wavefunction(s)  2S 2P renormalized
     Message from routine setup:
     using ibrav=0 with symmetry is DISCOURAGED, use correct ibrav instead
 
     K-points division:     npool     =       2
     R & G space division:  proc/nbgrp/npool/nimage =       4
     Subspace diagonalization in iterative solution of the eigenvalue problem:
     a serial algorithm will be used

 
     Parallelization info
     --------------------
     sticks:   dense  smooth     PW     G-vecs:    dense   smooth      PW
     Min         479     240     71                11325     4016     657
     Max         480     241     72                11328     4017     658
     Sum        1917     961    285                45303    16065    2629
 
     Using Slab Decomposition
 


     bravais-lattice index     =            0
     lattice parameter (alat)  =      10.0411  a.u.
     unit-cell volume          =     722.7429 (a.u.)^3
     number of atoms/cell      =           10
     number of atomic types    =            3
     number of electrons       =        48.00
     number of Kohn-Sham states=           64
     kinetic-energy cutoff     =      30.0000  Ry
     charge density cutoff     =     240.0000  Ry
     scf convergence threshold =      1.0E-06
     mixing beta               =       0.7000
     number of iterations used =            8  plain     mixing
     Exchange-correlation= SLA  PW   PBX  PBC
                           (   1   4   3   4   0   0   0)

     celldm(1)=  10.041122  celldm(2)=   0.000000  celldm(3)=   0.000000
     celldm(4)=   0.000000  celldm(5)=   0.000000  celldm(6)=   0.000000

     crystal axes: (cart. coord. in units of alat)
               a(1) = (   1.000000   0.000000   0.000000 )  
               a(2) = (  -0.019701   0.999806   0.000000 )  
               a(3) = (  -0.490150  -0.499903   0.714038 )  

     reciprocal axes: (cart. coord. in units 2 pi/alat)
               b(1) = (  1.000000  0.019705  0.700243 )  
               b(2) = (  0.000000  1.000194  0.700243 )  
               b(3) = (  0.000000  0.000000  1.400486 )  


     PseudoPot. # 1 for Ca read from file:
     /lustre07/scratch/pragov/crystal_structure_design/utils/SSSP/Ca_pbe_v1.uspp.F.UPF
     MD5 check sum: 403a4c14b9e4d4dfdc3024c9a3812218
     Pseudo is Ultrasoft + core correction, Zval = 10.0
     Generated by new atomic code, or converted to UPF format
     Using radial grid of  845 points,  6 beta functions with: 
                l(1) =   0
                l(2) =   0
                l(3) =   1
                l(4) =   1
                l(5) =   2
                l(6) =   2
     Q(r) pseudized with  8 coefficients,  rinner =    1.500   1.500   1.500
                                                       1.500   1.500

     PseudoPot. # 2 for B  read from file:
     /lustre07/scratch/pragov/crystal_structure_design/utils/SSSP/b_pbe_v1.4.uspp.F.UPF
     MD5 check sum: cc6de2960df11db49a60e589f9ebb39b
     Pseudo is Ultrasoft + core correction, Zval =  3.0
     Generated by new atomic code, or converted to UPF format
     Using radial grid of  781 points,  4 beta functions with: 
                l(1) =   0
                l(2) =   0
                l(3) =   1
                l(4) =   1
     Q(r) pseudized with  8 coefficients,  rinner =    1.100   1.100   1.100


     PseudoPot. # 3 for C  read from file:
     /lustre07/scratch/pragov/crystal_structure_design/utils/SSSP/C.pbe-n-kjpaw_psl.1.0.0.UPF
     MD5 check sum: 5d2aebdfa2cae82b50a7e79e9516da0f
     Pseudo is Projector augmented-wave + core cor, Zval =  4.0
     Generated using "atomic" code by A. Dal Corso  v.5.1
     Shape of augmentation charge: PSQ
     Using radial grid of 1073 points,  4 beta functions with: 
                l(1) =   0
                l(2) =   0
                l(3) =   1
                l(4) =   1
     Q(r) pseudized with 0 coefficients 


     atomic species   valence    mass     pseudopotential
        Ca            10.00    40.07800     Ca( 1.00)
        B              3.00    10.81000     B ( 1.00)
        C              4.00    12.01100     C ( 1.00)

      4 Sym. Ops., with inversion, found ( 2 have fractional translation)


                                    s                        frac. trans.

      isym =  1     identity                                     

 cryst.   s( 1) = (     1          0          0      )
                  (     0          1          0      )
                  (     0          0          1      )

 cart.    s( 1) = (  1.0000000  0.0000000  0.0000000 )
                  (  0.0000000  1.0000000  0.0000000 )
                  (  0.0000000  0.0000000  1.0000000 )


      isym =  2     180 deg rotation - cart. axis [0,0,1]        

 cryst.   s( 2) = (    -1          0          0      )    f =( -0.5000000 )
                  (     0         -1          0      )       (  0.5000000 )
                  (     1          1          1      )       (  0.0000000 )

 cart.    s( 2) = ( -1.0000000  0.0000000  0.0000000 )    f =( -0.5098504 )
                  (  0.0000000 -1.0000000  0.0000000 )       (  0.4999030 )
                  (  0.0000000  0.0000000  1.0000000 )       (  0.0000000 )


      isym =  3     inversion                                    

 cryst.   s( 3) = (    -1          0          0      )
                  (     0         -1          0      )
                  (     0          0         -1      )

 cart.    s( 3) = ( -1.0000000  0.0000000  0.0000000 )
                  (  0.0000000 -1.0000000  0.0000000 )
                  (  0.0000000  0.0000000 -1.0000000 )


      isym =  4     inv. 180 deg rotation - cart. axis [0,0,1]   

 cryst.   s( 4) = (     1          0          0      )    f =( -0.5000000 )
                  (     0          1          0      )       (  0.5000000 )
                  (    -1         -1         -1      )       (  0.0000000 )

 cart.    s( 4) = (  1.0000000  0.0000000 -0.0000000 )    f =( -0.5098504 )
                  (  0.0000000  1.0000000 -0.0000000 )       (  0.4999030 )
                  (  0.0000000  0.0000000 -1.0000000 )       (  0.0000000 )


   Cartesian axes

     site n.     atom                  positions (alat units)
         1           Ca  tau(   1) = (   0.7352245   0.7498544   0.0000000  )
         2           Ca  tau(   2) = (   0.2450748   0.2499515   0.0000000  )
         3           B   tau(   3) = (   0.2352249   0.7498549   0.1586114  )
         4           B   tau(   4) = (   0.6034047   0.3888575   0.3570190  )
         5           B   tau(   5) = (  -0.1132551   0.1110454   0.3570190  )
         6           B   tau(   6) = (   0.2549247  -0.2499520   0.5554267  )
         7           C   tau(   7) = (   0.3976638   0.5905844   0.3570190  )
         8           C   tau(   8) = (  -0.2549247   0.2499520   0.5845123  )
         9           C   tau(   9) = (   0.0924858  -0.0906814   0.3570190  )
        10           C   tau(  10) = (   0.7450743   0.2499510   0.1295258  )

   Crystallographic axes

     site n.     atom                  positions (cryst. coord.)
         1           Ca  tau(   1) = (  0.7500000  0.7500000  0.0000000  )
         2           Ca  tau(   2) = (  0.2500000  0.2500000  0.0000000  )
         3           B   tau(   3) = (  0.3610670  0.8610670  0.2221330  )
         4           B   tau(   4) = (  0.8610670  0.6389330  0.5000000  )
         5           B   tau(   5) = (  0.1389330  0.3610670  0.5000000  )
         6           B   tau(   6) = (  0.6389330  0.1389330  0.7778670  )
         7           C   tau(   7) = (  0.6593010  0.8406990  0.5000000  )
         8           C   tau(   8) = (  0.1593010  0.6593010  0.8186010  )
         9           C   tau(   9) = (  0.3406990  0.1593010  0.5000000  )
        10           C   tau(  10) = (  0.8406990  0.3406990  0.1813990  )

     number of k points=    10
                       cart. coord. in units 2pi/alat
        k(    1) = (   0.0000000   0.0000000   0.0000000), wk =   0.0740741
        k(    2) = (   0.0000000   0.0000000   0.4668285), wk =   0.1481481
        k(    3) = (   0.0000000   0.3333980   0.2334143), wk =   0.2962963
        k(    4) = (   0.0000000   0.3333980   0.7002428), wk =   0.1481481
        k(    5) = (   0.3333333   0.0065682   0.2334143), wk =   0.2962963
        k(    6) = (   0.3333333   0.0065682   0.7002428), wk =   0.1481481
        k(    7) = (   0.3333333   0.3399662   0.4668285), wk =   0.2962963
        k(    8) = (   0.3333333   0.3399662  -0.0000000), wk =   0.1481481
        k(    9) = (   0.3333333  -0.3268299  -0.0000000), wk =   0.1481481
        k(   10) = (   0.3333333  -0.3268299   0.4668285), wk =   0.2962963

                       cryst. coord.
        k(    1) = (   0.0000000   0.0000000   0.0000000), wk =   0.0740741
        k(    2) = (   0.0000000   0.0000000   0.3333333), wk =   0.1481481
        k(    3) = (   0.0000000   0.3333333   0.0000000), wk =   0.2962963
        k(    4) = (   0.0000000   0.3333333   0.3333333), wk =   0.1481481
        k(    5) = (   0.3333333   0.0000000   0.0000000), wk =   0.2962963
        k(    6) = (   0.3333333   0.0000000   0.3333333), wk =   0.1481481
        k(    7) = (   0.3333333   0.3333333   0.0000000), wk =   0.2962963
        k(    8) = (   0.3333333   0.3333333  -0.3333333), wk =   0.1481481
        k(    9) = (   0.3333333  -0.3333333   0.0000000), wk =   0.1481481
        k(   10) = (   0.3333333  -0.3333333   0.3333333), wk =   0.2962963

     Dense  grid:    45303 G-vectors     FFT dimensions: (  50,  50,  50)

     Smooth grid:    16065 G-vectors     FFT dimensions: (  36,  36,  36)

     Dynamical RAM for                 wfc:       0.49 MB

     Dynamical RAM for     wfc (w. buffer):       2.94 MB

     Dynamical RAM for           str. fact:       0.52 MB

     Dynamical RAM for           local pot:       0.00 MB

     Dynamical RAM for          nlocal pot:       0.76 MB

     Dynamical RAM for                qrad:       3.73 MB

     Dynamical RAM for          rho,v,vnew:       1.26 MB

     Dynamical RAM for               rhoin:       0.42 MB

     Dynamical RAM for            rho*nmix:       2.77 MB

     Dynamical RAM for           G-vectors:       0.68 MB

     Dynamical RAM for          h,s,v(r/c):       0.75 MB

     Dynamical RAM for          <psi|beta>:       0.10 MB

     Dynamical RAM for                 psi:       0.98 MB

     Dynamical RAM for                hpsi:       0.98 MB

     Dynamical RAM for                spsi:       0.98 MB

     Dynamical RAM for      wfcinit/wfcrot:       1.07 MB

     Dynamical RAM for           addusdens:      16.51 MB

     Estimated static dynamical RAM per process >      12.24 MB

     Estimated max dynamical RAM per process >      31.52 MB

     Estimated total dynamical RAM >     241.07 MB

     Check: negative core charge=   -0.000018

     Initial potential from superposition of free atoms

     starting charge      47.9878, renormalised to      48.0000
     Starting wfcs are   52 randomized atomic wfcs +   12 random wfcs
     Checking if some PAW data can be deallocated... 
       PAW data deallocated on    4 nodes for type:  3

     total cpu time spent up to now is        0.6 secs

     Self-consistent Calculation

     iteration #  1     ecut=    30.00 Ry     beta= 0.70
     Davidson diagonalization with overlap

---- Real-time Memory Report at c_bands before calling an iterative solver
           202 MiB given to the printing process from OS
             0 MiB allocation reported by mallinfo(arena+hblkhd)
        243336 MiB available memory on the node where the printing process lives
------------------
     ethr =  1.00E-02,  avg # of iterations =  6.4

     total cpu time spent up to now is        1.2 secs

     total energy              =    -248.88181537 Ry
     estimated scf accuracy    <       1.53087344 Ry

     iteration #  2     ecut=    30.00 Ry     beta= 0.70
     Davidson diagonalization with overlap

---- Real-time Memory Report at c_bands before calling an iterative solver
           221 MiB given to the printing process from OS
             0 MiB allocation reported by mallinfo(arena+hblkhd)
        243253 MiB available memory on the node where the printing process lives
------------------
     ethr =  3.19E-03,  avg # of iterations =  2.9

     total cpu time spent up to now is        1.5 secs

     total energy              =    -249.17055511 Ry
     estimated scf accuracy    <       0.94909247 Ry

     iteration #  3     ecut=    30.00 Ry     beta= 0.70
     Davidson diagonalization with overlap

---- Real-time Memory Report at c_bands before calling an iterative solver
           223 MiB given to the printing process from OS
             0 MiB allocation reported by mallinfo(arena+hblkhd)
        243231 MiB available memory on the node where the printing process lives
------------------
     ethr =  1.98E-03,  avg # of iterations =  1.2

     total cpu time spent up to now is        1.8 secs

     total energy              =    -249.40592600 Ry
     estimated scf accuracy    <       0.02567044 Ry

     iteration #  4     ecut=    30.00 Ry     beta= 0.70
     Davidson diagonalization with overlap

---- Real-time Memory Report at c_bands before calling an iterative solver
           224 MiB given to the printing process from OS
             0 MiB allocation reported by mallinfo(arena+hblkhd)
        243229 MiB available memory on the node where the printing process lives
------------------
     ethr =  5.35E-05,  avg # of iterations =  8.1

     total cpu time spent up to now is        2.3 secs

     total energy              =    -249.41085281 Ry
     estimated scf accuracy    <       0.00102962 Ry

     iteration #  5     ecut=    30.00 Ry     beta= 0.70
     Davidson diagonalization with overlap

---- Real-time Memory Report at c_bands before calling an iterative solver
           224 MiB given to the printing process from OS
             0 MiB allocation reported by mallinfo(arena+hblkhd)
        243225 MiB available memory on the node where the printing process lives
------------------
     ethr =  2.15E-06,  avg # of iterations =  7.5

     total cpu time spent up to now is        2.8 secs

     total energy              =    -249.41102425 Ry
     estimated scf accuracy    <       0.00020699 Ry

     iteration #  6     ecut=    30.00 Ry     beta= 0.70
     Davidson diagonalization with overlap

---- Real-time Memory Report at c_bands before calling an iterative solver
           225 MiB given to the printing process from OS
             0 MiB allocation reported by mallinfo(arena+hblkhd)
        243226 MiB available memory on the node where the printing process lives
------------------
     ethr =  4.31E-07,  avg # of iterations =  2.0

     total cpu time spent up to now is        3.2 secs

     total energy              =    -249.41106701 Ry
     estimated scf accuracy    <       0.00008613 Ry

     iteration #  7     ecut=    30.00 Ry     beta= 0.70
     Davidson diagonalization with overlap

---- Real-time Memory Report at c_bands before calling an iterative solver
           225 MiB given to the printing process from OS
             0 MiB allocation reported by mallinfo(arena+hblkhd)
        243226 MiB available memory on the node where the printing process lives
------------------
     ethr =  1.79E-07,  avg # of iterations =  1.0

     total cpu time spent up to now is        3.5 secs

     total energy              =    -249.41108428 Ry
     estimated scf accuracy    <       0.00000571 Ry

     iteration #  8     ecut=    30.00 Ry     beta= 0.70
     Davidson diagonalization with overlap

---- Real-time Memory Report at c_bands before calling an iterative solver
           225 MiB given to the printing process from OS
             0 MiB allocation reported by mallinfo(arena+hblkhd)
        243238 MiB available memory on the node where the printing process lives
------------------
     ethr =  1.19E-08,  avg # of iterations =  1.0

     total cpu time spent up to now is        3.8 secs

     End of self-consistent calculation

          k = 0.0000 0.0000 0.0000 (  2029 PWs)   bands (ev):

   -31.4281 -31.4001 -12.5948 -12.5321 -12.5320 -12.4558 -12.4448 -12.4446
    -5.8710  -3.7438  -2.3369  -2.3364   1.0257   1.8184   2.8492   2.8493
     3.1819   4.8361   5.6743   6.8350   6.8357   7.8117   8.0690   8.0696
    10.1193  11.4802  12.0955  12.0959  12.8586  14.0709  14.4941  14.4941
    14.7288  14.7977  14.9127  15.4102  15.9778  16.1723  16.1729  16.2850
    16.2852  17.0622  17.4971  19.2477  20.1469  20.7087  20.8606  20.8606
    21.3173  21.7250  21.7260  22.8290  23.4283  23.4599  23.4914  23.4916
    26.4683  26.6924  26.6937  27.0062  27.5202  28.4034  28.4035  28.5209

     occupation numbers 
     1.0000   1.0000   1.0000   1.0000   1.0000   1.0000   1.0000   1.0000
     1.0000   1.0000   1.0000   1.0000   1.0000   1.0000   1.0000   1.0000
     1.0000   1.0000   1.0000   1.0000   1.0000   1.0000   1.0000   1.0000
     0.0000   0.0000   0.0000   0.0000   0.0000   0.0000   0.0000   0.0000
     0.0000   0.0000   0.0000   0.0000   0.0000   0.0000   0.0000   0.0000
     0.0000   0.0000   0.0000   0.0000   0.0000   0.0000   0.0000   0.0000
     0.0000   0.0000   0.0000   0.0000   0.0000   0.0000   0.0000   0.0000
     0.0000   0.0000   0.0000   0.0000   0.0000   0.0000   0.0000   0.0000

          k = 0.0000 0.0000 0.4668 (  2014 PWs)   bands (ev):

   -31.4217 -31.4061 -12.6293 -12.5735 -12.5460 -12.4401 -12.4371 -12.4343
    -5.1519  -4.5836  -2.3465  -2.3440   0.8343   1.6724   3.4287   4.2198
     4.5464   5.0383   5.2016   5.9793   5.9862   5.9873   7.2556   8.3798
     9.9749  10.8011  12.8191  13.0180  13.8020  13.8600  14.2219  14.3745
    14.7426  14.8047  14.9258  15.0047  15.0133  15.7341  16.3986  16.9190
    17.0758  18.3194  18.4675  19.0190  19.1505  19.5821  20.0477  20.4889
    22.1282  22.1494  22.4972  22.7364  24.1501  24.5050  24.7447  25.5439
    25.6409  25.9049  26.4229  26.9795  27.8351  27.9200  28.0977  28.7670

     occupation numbers 
     1.0000   1.0000   1.0000   1.0000   1.0000   1.0000   1.0000   1.0000
     1.0000   1.0000   1.0000   1.0000   1.0000   1.0000   1.0000   1.0000
     1.0000   1.0000   1.0000   1.0000   1.0000   1.0000   1.0000   1.0000
     0.0000   0.0000   0.0000   0.0000   0.0000   0.0000   0.0000   0.0000
     0.0000   0.0000   0.0000   0.0000   0.0000   0.0000   0.0000   0.0000
     0.0000   0.0000   0.0000   0.0000   0.0000   0.0000   0.0000   0.0000
     0.0000   0.0000   0.0000   0.0000   0.0000   0.0000   0.0000   0.0000
     0.0000   0.0000   0.0000   0.0000   0.0000   0.0000   0.0000   0.0000

          k = 0.0000 0.3334 0.2334 (  2007 PWs)   bands (ev):

   -31.4209 -31.4069 -12.5730 -12.5177 -12.5150 -12.5079 -12.4739 -12.4712
    -5.3807  -4.4451  -2.0956  -1.8940   0.4979   0.7778   3.6287   4.0737
     4.2974   4.4761   4.8480   6.3458   7.1570   7.2446   7.3202   8.0702
     9.3647  11.4170  11.8330  13.0950  13.8439  13.9741  14.2369  14.2791
    14.2796  14.3710  15.0454  15.3985  15.4343  15.9421  17.0403  17.3701
    18.0054  18.0925  18.3934  18.4317  19.0131  19.6695  20.2933  20.8695
    21.0422  21.1948  21.8963  22.1675  22.5787  23.6035  24.7526  25.0389
    25.0447  26.4779  26.6058  27.3627  28.2184  28.4636  28.8310  29.7521

     occupation numbers 
     1.0000   1.0000   1.0000   1.0000   1.0000   1.0000   1.0000   1.0000
     1.0000   1.0000   1.0000   1.0000   1.0000   1.0000   1.0000   1.0000
     1.0000   1.0000   1.0000   1.0000   1.0000   1.0000   1.0000   1.0000
     0.0000   0.0000   0.0000   0.0000   0.0000   0.0000   0.0000   0.0000
     0.0000   0.0000   0.0000   0.0000   0.0000   0.0000   0.0000   0.0000
     0.0000   0.0000   0.0000   0.0000   0.0000   0.0000   0.0000   0.0000
     0.0000   0.0000   0.0000   0.0000   0.0000   0.0000   0.0000   0.0000
     0.0000   0.0000   0.0000   0.0000   0.0000   0.0000   0.0000   0.0000

          k = 0.0000 0.3334 0.7002 (  2019 PWs)   bands (ev):

   -31.4146 -31.4130 -12.6044 -12.5922 -12.5307 -12.4827 -12.4601 -12.4145
    -4.9775  -4.5957  -2.6573  -2.1045   0.8672   1.7183   3.3662   3.9522
     4.2420   4.9432   5.3215   5.8170   6.0376   7.0424   7.1461   7.3526
    10.9357  11.5545  12.1690  12.8121  13.2279  13.9483  14.0049  14.2666
    14.4547  14.5594  14.6306  15.6530  15.8466  16.1803  16.6025  16.6919
    16.9094  17.9877  18.5148  18.9743  19.7599  19.9029  20.2602  20.8440
    21.5492  22.2450  22.2572  22.6326  22.7009  23.7092  24.4361  24.9967
    25.9183  25.9307  26.3771  27.2384  27.6284  28.0128  28.3179  28.8731

     occupation numbers 
     1.0000   1.0000   1.0000   1.0000   1.0000   1.0000   1.0000   1.0000
     1.0000   1.0000   1.0000   1.0000   1.0000   1.0000   1.0000   1.0000
     1.0000   1.0000   1.0000   1.0000   1.0000   1.0000   1.0000   1.0000
     0.0000   0.0000   0.0000   0.0000   0.0000   0.0000   0.0000   0.0000
     0.0000   0.0000   0.0000   0.0000   0.0000   0.0000   0.0000   0.0000
     0.0000   0.0000   0.0000   0.0000   0.0000   0.0000   0.0000   0.0000
     0.0000   0.0000   0.0000   0.0000   0.0000   0.0000   0.0000   0.0000
     0.0000   0.0000   0.0000   0.0000   0.0000   0.0000   0.0000   0.0000

          k = 0.3333 0.0066 0.2334 (  2007 PWs)   bands (ev):

   -31.4209 -31.4069 -12.5730 -12.5177 -12.5150 -12.5079 -12.4739 -12.4712
    -5.3807  -4.4451  -2.0956  -1.8940   0.4979   0.7778   3.6287   4.0737
     4.2974   4.4761   4.8480   6.3458   7.1570   7.2446   7.3202   8.0702
     9.3647  11.4170  11.8330  13.0950  13.8439  13.9741  14.2369  14.2791
    14.2796  14.3710  15.0454  15.3985  15.4343  15.9421  17.0403  17.3701
    18.0054  18.0925  18.3934  18.4317  19.0131  19.6695  20.2933  20.8695
    21.0422  21.1948  21.8963  22.1675  22.5787  23.6035  24.7526  25.0389
    25.0447  26.4779  26.6058  27.3627  28.2184  28.4636  28.8310  29.7521

     occupation numbers 
     1.0000   1.0000   1.0000   1.0000   1.0000   1.0000   1.0000   1.0000
     1.0000   1.0000   1.0000   1.0000   1.0000   1.0000   1.0000   1.0000
     1.0000   1.0000   1.0000   1.0000   1.0000   1.0000   1.0000   1.0000
     0.0000   0.0000   0.0000   0.0000   0.0000   0.0000   0.0000   0.0000
     0.0000   0.0000   0.0000   0.0000   0.0000   0.0000   0.0000   0.0000
     0.0000   0.0000   0.0000   0.0000   0.0000   0.0000   0.0000   0.0000
     0.0000   0.0000   0.0000   0.0000   0.0000   0.0000   0.0000   0.0000
     0.0000   0.0000   0.0000   0.0000   0.0000   0.0000   0.0000   0.0000

          k = 0.3333 0.0066 0.7002 (  2019 PWs)   bands (ev):

   -31.4146 -31.4130 -12.6044 -12.5922 -12.5307 -12.4827 -12.4601 -12.4145
    -4.9775  -4.5957  -2.6573  -2.1045   0.8672   1.7183   3.3662   3.9522
     4.2420   4.9432   5.3215   5.8170   6.0376   7.0424   7.1461   7.3526
    10.9357  11.5545  12.1690  12.8121  13.2279  13.9483  14.0049  14.2666
    14.4547  14.5594  14.6306  15.6530  15.8466  16.1803  16.6025  16.6919
    16.9094  17.9877  18.5148  18.9743  19.7599  19.9029  20.2602  20.8440
    21.5492  22.2450  22.2572  22.6326  22.7009  23.7092  24.4361  24.9967
    25.9183  25.9307  26.3771  27.2384  27.6284  28.0128  28.3179  28.8731

     occupation numbers 
     1.0000   1.0000   1.0000   1.0000   1.0000   1.0000   1.0000   1.0000
     1.0000   1.0000   1.0000   1.0000   1.0000   1.0000   1.0000   1.0000
     1.0000   1.0000   1.0000   1.0000   1.0000   1.0000   1.0000   1.0000
     0.0000   0.0000   0.0000   0.0000   0.0000   0.0000   0.0000   0.0000
     0.0000   0.0000   0.0000   0.0000   0.0000   0.0000   0.0000   0.0000
     0.0000   0.0000   0.0000   0.0000   0.0000   0.0000   0.0000   0.0000
     0.0000   0.0000   0.0000   0.0000   0.0000   0.0000   0.0000   0.0000
     0.0000   0.0000   0.0000   0.0000   0.0000   0.0000   0.0000   0.0000

          k = 0.3333 0.3400 0.4668 (  2019 PWs)   bands (ev):

   -31.4146 -31.4130 -12.6044 -12.5921 -12.5308 -12.4827 -12.4602 -12.4144
    -4.9776  -4.5956  -2.6578  -2.1042   0.8681   1.7174   3.3663   3.9521
     4.2416   4.9432   5.3219   5.8173   6.0384   7.0427   7.1455   7.3520
    10.9361  11.5538  12.1685  12.8123  13.2281  13.9484  14.0047  14.2664
    14.4548  14.5596  14.6306  15.6530  15.8468  16.1799  16.6028  16.6915
    16.9097  17.9872  18.5147  18.9741  19.7599  19.9032  20.2607  20.8444
    21.5495  22.2453  22.2570  22.6327  22.7007  23.7094  24.4361  24.9970
    25.9181  25.9307  26.3763  27.2384  27.6283  28.0131  28.3181  28.8726

     occupation numbers 
     1.0000   1.0000   1.0000   1.0000   1.0000   1.0000   1.0000   1.0000
     1.0000   1.0000   1.0000   1.0000   1.0000   1.0000   1.0000   1.0000
     1.0000   1.0000   1.0000   1.0000   1.0000   1.0000   1.0000   1.0000
     0.0000   0.0000   0.0000   0.0000   0.0000   0.0000   0.0000   0.0000
     0.0000   0.0000   0.0000   0.0000   0.0000   0.0000   0.0000   0.0000
     0.0000   0.0000   0.0000   0.0000   0.0000   0.0000   0.0000   0.0000
     0.0000   0.0000   0.0000   0.0000   0.0000   0.0000   0.0000   0.0000
     0.0000   0.0000   0.0000   0.0000   0.0000   0.0000   0.0000   0.0000

          k = 0.3333 0.3400-0.0000 (  2012 PWs)   bands (ev):

   -31.4192 -31.4084 -12.6422 -12.5716 -12.5714 -12.4615 -12.4237 -12.4236
    -5.4354  -3.9016  -2.2242  -2.2238   1.2412   1.9952   2.5816   2.7293
     2.7295   3.0216   7.1205   7.1533   7.1539   7.9742   7.9748   8.0378
     9.0495  12.2150  12.2158  12.7082  12.7359  14.0050  14.0990  14.2802
    14.2806  14.3030  15.4638  15.4641  15.9634  16.4563  17.3373  17.3378
    17.9937  18.0561  18.0776  18.0777  18.7130  19.0603  19.4505  19.6763
    19.7760  21.4105  21.4674  23.1544  23.1546  24.1217  24.1221  24.8566
    26.2813  26.2825  26.2989  27.5076  28.3066  28.7662  29.0433  29.0433

     occupation numbers 
     1.0000   1.0000   1.0000   1.0000   1.0000   1.0000   1.0000   1.0000
     1.0000   1.0000   1.0000   1.0000   1.0000   1.0000   1.0000   1.0000
     1.0000   1.0000   1.0000   1.0000   1.0000   1.0000   1.0000   1.0000
     0.0000   0.0000   0.0000   0.0000   0.0000   0.0000   0.0000   0.0000
     0.0000   0.0000   0.0000   0.0000   0.0000   0.0000   0.0000   0.0000
     0.0000   0.0000   0.0000   0.0000   0.0000   0.0000   0.0000   0.0000
     0.0000   0.0000   0.0000   0.0000   0.0000   0.0000   0.0000   0.0000
     0.0000   0.0000   0.0000   0.0000   0.0000   0.0000   0.0000   0.0000

          k = 0.3333-0.3268-0.0000 (  2014 PWs)   bands (ev):

   -31.4217 -31.4061 -12.6293 -12.5734 -12.5461 -12.4401 -12.4369 -12.4344
    -5.1517  -4.5838  -2.3461  -2.3443   0.8335   1.6731   3.4288   4.2201
     4.5460   5.0385   5.2019   5.9791   5.9864   5.9869   7.2562   8.3797
     9.9739  10.8008  12.8194  13.0182  13.8017  13.8598  14.2219  14.3743
    14.7424  14.8047  14.9263  15.0048  15.0132  15.7345  16.3990  16.9191
    17.0750  18.3193  18.4679  19.0191  19.1509  19.5818  20.0472  20.4888
    22.1289  22.1494  22.4975  22.7364  24.1498  24.5050  24.7447  25.5440
    25.6413  25.9044  26.4226  26.9809  27.8351  27.9201  28.0978  28.7669

     occupation numbers 
     1.0000   1.0000   1.0000   1.0000   1.0000   1.0000   1.0000   1.0000
     1.0000   1.0000   1.0000   1.0000   1.0000   1.0000   1.0000   1.0000
     1.0000   1.0000   1.0000   1.0000   1.0000   1.0000   1.0000   1.0000
     0.0000   0.0000   0.0000   0.0000   0.0000   0.0000   0.0000   0.0000
     0.0000   0.0000   0.0000   0.0000   0.0000   0.0000   0.0000   0.0000
     0.0000   0.0000   0.0000   0.0000   0.0000   0.0000   0.0000   0.0000
     0.0000   0.0000   0.0000   0.0000   0.0000   0.0000   0.0000   0.0000
     0.0000   0.0000   0.0000   0.0000   0.0000   0.0000   0.0000   0.0000

          k = 0.3333-0.3268 0.4668 (  1999 PWs)   bands (ev):

   -31.4154 -31.4122 -12.6723 -12.5572 -12.5496 -12.4488 -12.4456 -12.4255
    -5.0649  -4.5588  -2.0091  -1.9899   0.4333   1.0313   3.0959   3.4363
     3.9138   4.3624   5.9325   6.3804   7.0743   7.3868   7.6650   7.7176
    10.5051  10.5087  12.0497  12.8506  13.2965  13.4867  13.8723  13.9945
    14.7433  14.7866  15.0873  15.6650  16.0502  16.2975  16.6320  17.5967
    17.8899  17.9299  18.0869  18.8897  19.5891  19.7694  19.9140  20.5734
    21.5217  21.6816  21.8701  22.4421  23.1370  23.1444  23.6813  24.3459
    24.7150  25.1478  26.6457  27.8437  28.0585  28.4274  28.5240  29.2793

     occupation numbers 
     1.0000   1.0000   1.0000   1.0000   1.0000   1.0000   1.0000   1.0000
     1.0000   1.0000   1.0000   1.0000   1.0000   1.0000   1.0000   1.0000
     1.0000   1.0000   1.0000   1.0000   1.0000   1.0000   1.0000   1.0000
     0.0000   0.0000   0.0000   0.0000   0.0000   0.0000   0.0000   0.0000
     0.0000   0.0000   0.0000   0.0000   0.0000   0.0000   0.0000   0.0000
     0.0000   0.0000   0.0000   0.0000   0.0000   0.0000   0.0000   0.0000
     0.0000   0.0000   0.0000   0.0000   0.0000   0.0000   0.0000   0.0000
     0.0000   0.0000   0.0000   0.0000   0.0000   0.0000   0.0000   0.0000

     highest occupied, lowest unoccupied level (ev):     8.3798    9.0495

!    total energy              =    -249.41108529 Ry
     estimated scf accuracy    <       0.00000067 Ry

     The total energy is the sum of the following terms:
     one-electron contribution =     -36.33503755 Ry
     hartree contribution      =      40.61896045 Ry
     xc contribution           =     -54.50532965 Ry
     ewald contribution        =    -174.52198225 Ry
     one-center paw contrib.   =     -24.66769629 Ry
      -> PAW hartree energy AE =       0.00000000 Ry
      -> PAW hartree energy PS =       0.00000000 Ry
      -> PAW xc energy AE      =       0.00000000 Ry
      -> PAW xc energy PS      =       0.00000000 Ry
      -> total E_H with PAW    =      40.61896045 Ry
      -> total E_XC with PAW   =     -54.50532965 Ry

     convergence has been achieved in   8 iterations

     Writing all to output data dir bands_nm/myprefix.save/
 
     init_run     :      1.34s CPU      0.38s WALL (       1 calls)
     electrons    :     12.86s CPU      3.59s WALL (       1 calls)

     Called by init_run:
     wfcinit      :      0.35s CPU      0.09s WALL (       1 calls)
     wfcinit:atom :      0.00s CPU      0.00s WALL (       5 calls)
     wfcinit:wfcr :      0.34s CPU      0.09s WALL (       5 calls)
     potinit      :      0.16s CPU      0.04s WALL (       1 calls)
     hinit0       :      0.62s CPU      0.18s WALL (       1 calls)

     Called by electrons:
     c_bands      :      9.82s CPU      2.53s WALL (       8 calls)
     sum_band     :      1.60s CPU      0.43s WALL (       8 calls)
     v_of_rho     :      0.23s CPU      0.06s WALL (       9 calls)
     v_h          :      0.02s CPU      0.01s WALL (       9 calls)
     v_xc         :      0.21s CPU      0.05s WALL (       9 calls)
     newd         :      0.34s CPU      0.09s WALL (       9 calls)
     PAW_pot      :      0.34s CPU      0.09s WALL (       9 calls)
     mix_rho      :      0.05s CPU      0.01s WALL (       8 calls)

     Called by c_bands:
     init_us_2    :      0.04s CPU      0.01s WALL (      85 calls)
     init_us_2:cp :      0.04s CPU      0.01s WALL (      85 calls)
     cegterg      :      9.13s CPU      2.35s WALL (      40 calls)

     Called by sum_band:
     sum_band:wei :      0.00s CPU      0.00s WALL (       8 calls)
     sum_band:loo :      1.24s CPU      0.32s WALL (       8 calls)
     sum_band:buf :      0.02s CPU      0.00s WALL (      40 calls)
     sum_band:ini :      0.02s CPU      0.01s WALL (      40 calls)
     sum_band:cal :      0.13s CPU      0.03s WALL (      40 calls)
     sum_band:bec :      0.00s CPU      0.00s WALL (      40 calls)
     addusdens    :      0.26s CPU      0.09s WALL (       8 calls)
     addusd:skk   :      0.00s CPU      0.00s WALL (      24 calls)
     addusd:dgemm :      0.04s CPU      0.03s WALL (      24 calls)
     addusd:qvan2 :      0.15s CPU      0.04s WALL (      24 calls)

     Called by *egterg:
     cdiaghg      :      2.64s CPU      0.68s WALL (     198 calls)
     cegterg:over :      0.47s CPU      0.10s WALL (     158 calls)
     cegterg:upda :      0.14s CPU      0.05s WALL (     158 calls)
     cegterg:last :      0.39s CPU      0.11s WALL (      72 calls)
     h_psi        :      5.15s CPU      1.35s WALL (     203 calls)
     s_psi        :      0.25s CPU      0.06s WALL (     203 calls)
     g_psi        :      0.00s CPU      0.00s WALL (     158 calls)

     Called by h_psi:
     h_psi:calbec :      0.35s CPU      0.09s WALL (     203 calls)
     vloc_psi     :      4.63s CPU      1.19s WALL (     203 calls)
     add_vuspsi   :      0.17s CPU      0.07s WALL (     203 calls)

     General routines
     calbec       :      0.47s CPU      0.12s WALL (     243 calls)
     fft          :      0.20s CPU      0.06s WALL (     115 calls)
     ffts         :      0.01s CPU      0.00s WALL (      17 calls)
     fftw         :      5.43s CPU      1.23s WALL (   14878 calls)
     interpolate  :      0.02s CPU      0.01s WALL (       9 calls)
 
     Parallel routines

     PAW routines
     PAW_pot      :      0.34s CPU      0.09s WALL (       9 calls)
     PAW_symme    :      0.01s CPU      0.00s WALL (      17 calls)
 
     PWSCF        :     15.08s CPU      5.81s WALL

 
   This run was terminated on:  17:31:55  14Jul2023            

=------------------------------------------------------------------------------=
   JOB DONE.
=------------------------------------------------------------------------------=
