
     Program PWSCF v.7.0 starts on  4Jun2023 at 21:54:56 

     This program is part of the open-source Quantum ESPRESSO suite
     for quantum simulation of materials; please cite
         "P. Giannozzi et al., J. Phys.:Condens. Matter 21 395502 (2009);
         "P. Giannozzi et al., J. Phys.:Condens. Matter 29 465901 (2017);
         "P. Giannozzi et al., J. Chem. Phys. 152 154105 (2020);
          URL http://www.quantum-espresso.org", 
     in publications or presentations arising from this work. More details at
     http://www.quantum-espresso.org/quote

     Parallel version (MPI & OpenMP), running on      32 processor cores
     Number of MPI processes:                 8
     Threads/MPI process:                     4

     MPI processes distributed on     1 nodes
     K-points division:     npool     =       2
     R & G space division:  proc/nbgrp/npool/nimage =       4
     139289 MiB available memory on the printing compute node when the environment starts
 
     Reading input from espresso_9170.pwi
Warning: card &CELL ignored
Warning: card / ignored

     Current dimensions of program PWSCF are:
     Max number of different atomic species (ntypx) = 10
     Max number of k-points (npk) =  40000
     Max angular momentum in pseudopotentials (lmaxx) =  4
     file O.pbe-n-kjpaw_psl.0.1.UPF: wavefunction(s)  2P renormalized

     Subspace diagonalization in iterative solution of the eigenvalue problem:
     one sub-group per band group will be used
     scalapack distributed-memory algorithm (size of sub-group:  2*  2 procs)

 
     Parallelization info
     --------------------
     sticks:   dense  smooth     PW     G-vecs:    dense   smooth      PW
     Min         585     292     83                31786    11238    1683
     Max         586     293     84                31787    11242    1684
     Sum        2341    1169    333               127145    44957    6733
 
     Using Slab Decomposition
 


     bravais-lattice index     =            0
     lattice parameter (alat)  =      11.0529  a.u.
     unit-cell volume          =    2024.9096 (a.u.)^3
     number of atoms/cell      =           15
     number of atomic types    =            3
     number of electrons       =       128.00
     number of Kohn-Sham states=           64
     kinetic-energy cutoff     =      30.0000  Ry
     charge density cutoff     =     240.0000  Ry
     scf convergence threshold =      1.0E-06
     mixing beta               =       0.7000
     number of iterations used =            8  plain     mixing
     Exchange-correlation= SLA  PW   PBX  PBC
                           (   1   4   3   4   0   0   0)

     celldm(1)=  11.052927  celldm(2)=   0.000000  celldm(3)=   0.000000
     celldm(4)=   0.000000  celldm(5)=   0.000000  celldm(6)=   0.000000

     crystal axes: (cart. coord. in units of alat)
               a(1) = (   1.000000   0.000000   0.000000 )  
               a(2) = (  -0.022743   1.000716   0.000000 )  
               a(3) = (  -0.097013  -0.488524   1.498521 )  

     reciprocal axes: (cart. coord. in units 2 pi/alat)
               b(1) = (  1.000000  0.022726  0.072148 )  
               b(2) = (  0.000000  0.999284  0.325770 )  
               b(3) = (  0.000000  0.000000  0.667325 )  


     PseudoPot. # 1 for La read from file:
     /home/pragov/projects/rrg-bengioy-ad/pragov/crystal_structure_design/SSSP/La.GGA-PBE-paw-v1.0.UPF
     MD5 check sum: 436541e95c1ad8901025bd0b0ed42ae2
     Pseudo is Projector augmented-wave + core cor, Zval = 11.0
     Generated using ATOMPAW code
     Shape of augmentation charge: BESSEL
     Using radial grid of 1101 points,  8 beta functions with: 
                l(1) =   0
                l(2) =   0
                l(3) =   1
                l(4) =   1
                l(5) =   2
                l(6) =   2
                l(7) =   3
                l(8) =   3
     Q(r) pseudized with 0 coefficients 


     PseudoPot. # 2 for Bi read from file:
     /home/pragov/projects/rrg-bengioy-ad/pragov/crystal_structure_design/SSSP/Bi_pbe_v1.uspp.F.UPF
     MD5 check sum: cceb9f28ec65b6d7ff33140f5b0b1758
     Pseudo is Ultrasoft + core correction, Zval = 15.0
     Generated by new atomic code, or converted to UPF format
     Using radial grid of  899 points,  6 beta functions with: 
                l(1) =   0
                l(2) =   0
                l(3) =   1
                l(4) =   1
                l(5) =   2
                l(6) =   2
     Q(r) pseudized with  6 coefficients,  rinner =    1.000   1.000   1.000
                                                       1.000   1.000

     PseudoPot. # 3 for O  read from file:
     /home/pragov/projects/rrg-bengioy-ad/pragov/crystal_structure_design/SSSP/O.pbe-n-kjpaw_psl.0.1.UPF
     MD5 check sum: 0234752ac141de4415c5fc33072bef88
     Pseudo is Projector augmented-wave + core cor, Zval =  6.0
     Generated using "atomic" code by A. Dal Corso  v.5.0.99 svn rev. 10869
     Shape of augmentation charge: BESSEL
     Using radial grid of 1095 points,  4 beta functions with: 
                l(1) =   0
                l(2) =   0
                l(3) =   1
                l(4) =   1
     Q(r) pseudized with 0 coefficients 


     atomic species   valence    mass     pseudopotential
        La            11.00   138.90547     La( 1.00)
        Bi            15.00   208.98040     Bi( 1.00)
        O              6.00    15.99900     O ( 1.00)

     No symmetry found


                                    s                        frac. trans.

      isym =  1     identity                                     

 cryst.   s( 1) = (     1          0          0      )
                  (     0          1          0      )
                  (     0          0          1      )

 cart.    s( 1) = (  1.0000000  0.0000000  0.0000000 )
                  (  0.0000000  1.0000000 -0.0000000 )
                  (  0.0000000  0.0000000  1.0000000 )


   Cartesian axes

     site n.     atom                  positions (alat units)
         1           La  tau(   1) = (   0.4681246   0.5097930   0.0021579  )
         2           La  tau(   2) = (  -0.0279196   0.5087788   0.4419812  )
         3           La  tau(   3) = (   0.4246226   0.5148388   0.9563289  )
         4           La  tau(   4) = (   0.4266827   0.0109578   0.4241053  )
         5           Bi  tau(   5) = (   0.9035537   0.9888534   0.0256052  )
         6           Bi  tau(   6) = (   0.0114319  -0.0533614   0.9102119  )
         7           O   tau(   7) = (   0.7044259   0.7709467   0.2513094  )
         8           O   tau(   8) = (   0.2114283   0.2665553   0.2202825  )
         9           O   tau(   9) = (   0.7313651   0.6794864   0.7785789  )
        10           O   tau(  10) = (   0.7061711   0.2602169   0.2284779  )
        11           O   tau(  11) = (   0.2151925   0.2432210   0.7361138  )
        12           O   tau(  12) = (   0.1894027   0.7615351   0.1683273  )
        13           O   tau(  13) = (   0.2016073   0.7577848   0.6800362  )
        14           O   tau(  14) = (   0.5852981   0.3022404   1.2550920  )
        15           O   tau(  15) = (   0.2387381  -0.1972177   1.1702487  )

   Crystallographic axes

     site n.     atom                  positions (cryst. coord.)
         1           La  tau(   1) = (  0.4798660  0.5101310  0.0014400  )
         2           La  tau(   2) = (  0.0155310  0.6523990  0.2949450  )
         3           La  tau(   3) = (  0.5053200  0.8260140  0.6381820  )
         4           La  tau(   4) = (  0.4575300  0.1491110  0.2830160  )
         5           Bi  tau(   5) = (  0.9278740  0.9964870  0.0170870  )
         6           Bi  tau(   6) = (  0.0758890  0.2431970  0.6074070  )
         7           O   tau(   7) = (  0.7400780  0.8522640  0.1677050  )
         8           O   tau(   8) = (  0.2333790  0.3381260  0.1470000  )
         9           O   tau(   9) = (  0.8029800  0.9326380  0.5195650  )
        10           O   tau(  10) = (  0.7285690  0.3344620  0.1524690  )
        11           O   tau(  11) = (  0.2738290  0.4828510  0.4912270  )
        12           O   tau(  12) = (  0.2188540  0.8158260  0.1123290  )
        13           O   tau(  13) = (  0.2678920  0.9787780  0.4538050  )
        14           O   tau(  14) = (  0.6827190  0.7108960  0.8375540  )
        15           O   tau(  15) = (  0.3186870  0.1841560  0.7809360  )

     number of k points=    14
                       cart. coord. in units 2pi/alat
        k(    1) = (   0.0000000   0.0000000   0.0000000), wk =   0.0740741
        k(    2) = (   0.0000000   0.0000000   0.2224416), wk =   0.1481481
        k(    3) = (   0.0000000   0.3330947   0.1085902), wk =   0.1481481
        k(    4) = (   0.0000000   0.3330947   0.3310318), wk =   0.1481481
        k(    5) = (   0.0000000   0.3330947  -0.1138514), wk =   0.1481481
        k(    6) = (   0.3333333   0.0075754   0.0240493), wk =   0.1481481
        k(    7) = (   0.3333333   0.0075754   0.2464909), wk =   0.1481481
        k(    8) = (   0.3333333   0.0075754  -0.1983923), wk =   0.1481481
        k(    9) = (   0.3333333   0.3406701   0.1326394), wk =   0.1481481
        k(   10) = (   0.3333333   0.3406701   0.3550810), wk =   0.1481481
        k(   11) = (   0.3333333   0.3406701  -0.0898022), wk =   0.1481481
        k(   12) = (   0.3333333  -0.3255193  -0.0845409), wk =   0.1481481
        k(   13) = (   0.3333333  -0.3255193   0.1379007), wk =   0.1481481
        k(   14) = (   0.3333333  -0.3255193  -0.3069825), wk =   0.1481481

                       cryst. coord.
        k(    1) = (   0.0000000   0.0000000   0.0000000), wk =   0.0740741
        k(    2) = (   0.0000000   0.0000000   0.3333333), wk =   0.1481481
        k(    3) = (   0.0000000   0.3333333  -0.0000000), wk =   0.1481481
        k(    4) = (   0.0000000   0.3333333   0.3333333), wk =   0.1481481
        k(    5) = (   0.0000000   0.3333333  -0.3333333), wk =   0.1481481
        k(    6) = (   0.3333333  -0.0000000   0.0000000), wk =   0.1481481
        k(    7) = (   0.3333333  -0.0000000   0.3333333), wk =   0.1481481
        k(    8) = (   0.3333333  -0.0000000  -0.3333333), wk =   0.1481481
        k(    9) = (   0.3333333   0.3333333  -0.0000000), wk =   0.1481481
        k(   10) = (   0.3333333   0.3333333   0.3333333), wk =   0.1481481
        k(   11) = (   0.3333333   0.3333333  -0.3333333), wk =   0.1481481
        k(   12) = (   0.3333333  -0.3333333  -0.0000000), wk =   0.1481481
        k(   13) = (   0.3333333  -0.3333333   0.3333333), wk =   0.1481481
        k(   14) = (   0.3333333  -0.3333333  -0.3333333), wk =   0.1481481

     Dense  grid:   127145 G-vectors     FFT dimensions: (  60,  60,  90)

     Smooth grid:    44957 G-vectors     FFT dimensions: (  40,  40,  64)

     Dynamical RAM for                 wfc:       1.37 MB

     Dynamical RAM for     wfc (w. buffer):      10.97 MB

     Dynamical RAM for           str. fact:       1.46 MB

     Dynamical RAM for           local pot:       0.00 MB

     Dynamical RAM for          nlocal pot:       5.06 MB

     Dynamical RAM for                qrad:       8.96 MB

     Dynamical RAM for          rho,v,vnew:       3.35 MB

     Dynamical RAM for               rhoin:       1.12 MB

     Dynamical RAM for            rho*nmix:       7.76 MB

     Dynamical RAM for           G-vectors:       1.90 MB

     Dynamical RAM for          h,s,v(r/c):       0.19 MB

     Dynamical RAM for          <psi|beta>:       0.23 MB

     Dynamical RAM for                 psi:       2.74 MB

     Dynamical RAM for                hpsi:       2.74 MB

     Dynamical RAM for                spsi:       2.74 MB

     Dynamical RAM for      wfcinit/wfcrot:       8.56 MB

     Dynamical RAM for           addusdens:     137.02 MB

     Estimated static dynamical RAM per process >      37.91 MB

     Estimated max dynamical RAM per process >     182.68 MB

     Estimated total dynamical RAM >       1.40 GB

     Check: negative core charge=   -0.000009

     Initial potential from superposition of free atoms

     starting charge     125.9658, renormalised to     128.0000

     negative rho (up, down):  8.096E-02 0.000E+00
     Starting wfcs are  182 randomized atomic wfcs
     Checking if some PAW data can be deallocated... 
       PAW data deallocated on    6 nodes for type:  1
       PAW data deallocated on    3 nodes for type:  3

     total cpu time spent up to now is       23.7 secs

     Self-consistent Calculation

     iteration #  1     ecut=    30.00 Ry     beta= 0.70
     Davidson diagonalization with overlap

---- Real-time Memory Report at c_bands before calling an iterative solver
           299 MiB given to the printing process from OS
             0 MiB allocation reported by mallinfo(arena+hblkhd)
        138529 MiB available memory on the node where the printing process lives
------------------
     ethr =  1.00E-02,  avg # of iterations =  1.0

     negative rho (up, down):  7.484E-02 0.000E+00

     total cpu time spent up to now is       41.7 secs

     total energy              =   -2577.27752523 Ry
     estimated scf accuracy    <       4.01094443 Ry

     iteration #  2     ecut=    30.00 Ry     beta= 0.70
     Davidson diagonalization with overlap

---- Real-time Memory Report at c_bands before calling an iterative solver
           347 MiB given to the printing process from OS
             0 MiB allocation reported by mallinfo(arena+hblkhd)
        138380 MiB available memory on the node where the printing process lives
------------------
     ethr =  3.13E-03,  avg # of iterations =  6.0

     negative rho (up, down):  7.835E-02 0.000E+00

     total cpu time spent up to now is       70.5 secs

     total energy              =   -2577.55172359 Ry
     estimated scf accuracy    <      10.69502758 Ry

     iteration #  3     ecut=    30.00 Ry     beta= 0.70
     Davidson diagonalization with overlap

---- Real-time Memory Report at c_bands before calling an iterative solver
           360 MiB given to the printing process from OS
             0 MiB allocation reported by mallinfo(arena+hblkhd)
        138239 MiB available memory on the node where the printing process lives
------------------
     ethr =  3.13E-03,  avg # of iterations =  5.1

     negative rho (up, down):  7.968E-02 0.000E+00

     total cpu time spent up to now is       92.8 secs

     total energy              =   -2579.35601218 Ry
     estimated scf accuracy    <       0.17786246 Ry

     iteration #  4     ecut=    30.00 Ry     beta= 0.70
     Davidson diagonalization with overlap

---- Real-time Memory Report at c_bands before calling an iterative solver
           364 MiB given to the printing process from OS
             0 MiB allocation reported by mallinfo(arena+hblkhd)
        138215 MiB available memory on the node where the printing process lives
------------------
     ethr =  1.39E-04,  avg # of iterations =  6.1

     negative rho (up, down):  7.970E-02 0.000E+00

     total cpu time spent up to now is      107.7 secs

     total energy              =   -2579.48574474 Ry
     estimated scf accuracy    <       0.10865859 Ry

     iteration #  5     ecut=    30.00 Ry     beta= 0.70
     Davidson diagonalization with overlap

---- Real-time Memory Report at c_bands before calling an iterative solver
           364 MiB given to the printing process from OS
             0 MiB allocation reported by mallinfo(arena+hblkhd)
        138274 MiB available memory on the node where the printing process lives
------------------
     ethr =  8.49E-05,  avg # of iterations =  2.3

     negative rho (up, down):  7.957E-02 0.000E+00

     total cpu time spent up to now is      115.0 secs

     total energy              =   -2579.48379387 Ry
     estimated scf accuracy    <       0.04367431 Ry

     iteration #  6     ecut=    30.00 Ry     beta= 0.70
     Davidson diagonalization with overlap

---- Real-time Memory Report at c_bands before calling an iterative solver
           370 MiB given to the printing process from OS
             0 MiB allocation reported by mallinfo(arena+hblkhd)
        138257 MiB available memory on the node where the printing process lives
------------------
     ethr =  3.41E-05,  avg # of iterations =  4.9

     negative rho (up, down):  7.955E-02 0.000E+00

     total cpu time spent up to now is      134.7 secs

     total energy              =   -2579.49354970 Ry
     estimated scf accuracy    <       0.00636891 Ry

     iteration #  7     ecut=    30.00 Ry     beta= 0.70
     Davidson diagonalization with overlap

---- Real-time Memory Report at c_bands before calling an iterative solver
           373 MiB given to the printing process from OS
             0 MiB allocation reported by mallinfo(arena+hblkhd)
        138256 MiB available memory on the node where the printing process lives
------------------
     ethr =  4.98E-06,  avg # of iterations =  4.8

     negative rho (up, down):  7.957E-02 0.000E+00

     total cpu time spent up to now is      142.9 secs

     total energy              =   -2579.49512071 Ry
     estimated scf accuracy    <       0.00258917 Ry

     iteration #  8     ecut=    30.00 Ry     beta= 0.70
     Davidson diagonalization with overlap

---- Real-time Memory Report at c_bands before calling an iterative solver
           373 MiB given to the printing process from OS
             0 MiB allocation reported by mallinfo(arena+hblkhd)
        138257 MiB available memory on the node where the printing process lives
------------------
     ethr =  2.02E-06,  avg # of iterations =  4.9

     negative rho (up, down):  7.959E-02 0.000E+00

     total cpu time spent up to now is      160.2 secs

     total energy              =   -2579.49546379 Ry
     estimated scf accuracy    <       0.00064900 Ry

     iteration #  9     ecut=    30.00 Ry     beta= 0.70
     Davidson diagonalization with overlap

---- Real-time Memory Report at c_bands before calling an iterative solver
           374 MiB given to the printing process from OS
             0 MiB allocation reported by mallinfo(arena+hblkhd)
        138246 MiB available memory on the node where the printing process lives
------------------
     ethr =  5.07E-07,  avg # of iterations =  4.4

     negative rho (up, down):  7.960E-02 0.000E+00

     total cpu time spent up to now is      173.8 secs

     total energy              =   -2579.49561135 Ry
     estimated scf accuracy    <       0.00017249 Ry

     iteration # 10     ecut=    30.00 Ry     beta= 0.70
     Davidson diagonalization with overlap

---- Real-time Memory Report at c_bands before calling an iterative solver
           374 MiB given to the printing process from OS
             0 MiB allocation reported by mallinfo(arena+hblkhd)
        138237 MiB available memory on the node where the printing process lives
------------------
     ethr =  1.35E-07,  avg # of iterations =  5.3

     negative rho (up, down):  7.959E-02 0.000E+00

     total cpu time spent up to now is      191.3 secs

     total energy              =   -2579.49564498 Ry
     estimated scf accuracy    <       0.00003790 Ry

     iteration # 11     ecut=    30.00 Ry     beta= 0.70
     Davidson diagonalization with overlap

---- Real-time Memory Report at c_bands before calling an iterative solver
           378 MiB given to the printing process from OS
             0 MiB allocation reported by mallinfo(arena+hblkhd)
        138229 MiB available memory on the node where the printing process lives
------------------
     ethr =  2.96E-08,  avg # of iterations =  4.9

     negative rho (up, down):  7.959E-02 0.000E+00

     total cpu time spent up to now is      203.3 secs

     total energy              =   -2579.49565206 Ry
     estimated scf accuracy    <       0.00002394 Ry

     iteration # 12     ecut=    30.00 Ry     beta= 0.70
     Davidson diagonalization with overlap

---- Real-time Memory Report at c_bands before calling an iterative solver
           379 MiB given to the printing process from OS
             0 MiB allocation reported by mallinfo(arena+hblkhd)
        138218 MiB available memory on the node where the printing process lives
------------------
     ethr =  1.87E-08,  avg # of iterations =  1.9

     negative rho (up, down):  7.959E-02 0.000E+00

     total cpu time spent up to now is      210.1 secs

     total energy              =   -2579.49564823 Ry
     estimated scf accuracy    <       0.00001209 Ry

     iteration # 13     ecut=    30.00 Ry     beta= 0.70
     Davidson diagonalization with overlap

---- Real-time Memory Report at c_bands before calling an iterative solver
           379 MiB given to the printing process from OS
             0 MiB allocation reported by mallinfo(arena+hblkhd)
        138211 MiB available memory on the node where the printing process lives
------------------
     ethr =  9.45E-09,  avg # of iterations =  4.7

     negative rho (up, down):  7.959E-02 0.000E+00

     total cpu time spent up to now is      221.1 secs

     total energy              =   -2579.49565194 Ry
     estimated scf accuracy    <       0.00000280 Ry

     iteration # 14     ecut=    30.00 Ry     beta= 0.70
     Davidson diagonalization with overlap

---- Real-time Memory Report at c_bands before calling an iterative solver
           380 MiB given to the printing process from OS
             0 MiB allocation reported by mallinfo(arena+hblkhd)
        138207 MiB available memory on the node where the printing process lives
------------------
     ethr =  2.19E-09,  avg # of iterations =  2.7

     negative rho (up, down):  7.959E-02 0.000E+00

     total cpu time spent up to now is      228.8 secs

     total energy              =   -2579.49565173 Ry
     estimated scf accuracy    <       0.00000137 Ry

     iteration # 15     ecut=    30.00 Ry     beta= 0.70
     Davidson diagonalization with overlap

---- Real-time Memory Report at c_bands before calling an iterative solver
           380 MiB given to the printing process from OS
             0 MiB allocation reported by mallinfo(arena+hblkhd)
        138201 MiB available memory on the node where the printing process lives
------------------
     ethr =  1.07E-09,  avg # of iterations =  4.1

     negative rho (up, down):  7.959E-02 0.000E+00

     total cpu time spent up to now is      242.2 secs

     End of self-consistent calculation

          k = 0.0000 0.0000 0.0000 (  5661 PWs)   bands (ev):

   -22.7826 -22.6898 -22.6581 -22.5910 -14.7599 -14.6572 -14.6119 -14.5910
   -14.5855 -14.5386 -14.5370 -14.5075 -14.4425 -14.4320 -10.5502 -10.1763
    -9.9806  -9.7052  -9.4951  -9.3363  -8.8517  -8.8183  -8.6416  -6.6495
    -6.6162  -6.5951  -6.4578  -6.3717  -6.3256  -5.8159  -5.7262  -5.5462
    -5.4576  -5.1317  -4.7511  -1.6644  -1.4410   3.7413   3.8765   4.0239
     4.2023   4.2852   4.3958   4.8530   5.0078   5.0822   5.4227   5.5697
     5.5936   5.7097   5.8435   5.9584   6.0919   6.1770   6.2272   6.3165
     6.4217   6.4474   6.4984   6.7142   6.7436   6.7672   6.8201   7.0127

     occupation numbers 
     1.0000   1.0000   1.0000   1.0000   1.0000   1.0000   1.0000   1.0000
     1.0000   1.0000   1.0000   1.0000   1.0000   1.0000   1.0000   1.0000
     1.0000   1.0000   1.0000   1.0000   1.0000   1.0000   1.0000   1.0000
     1.0000   1.0000   1.0000   1.0000   1.0000   1.0000   1.0000   1.0000
     1.0000   1.0000   1.0000   1.0000   1.0000   1.0000   1.0000   1.0000
     1.0000   1.0000   1.0000   1.0000   1.0000   1.0000   1.0000   1.0000
     1.0000   1.0000   1.0000   1.0000   1.0000   1.0000   1.0000   1.0000
     1.0000   1.0000   1.0000   1.0000   1.0000   1.0000   1.0000   1.0000

          k = 0.0000 0.0000 0.2224 (  5630 PWs)   bands (ev):

   -22.7785 -22.7020 -22.6504 -22.5906 -14.7599 -14.6572 -14.6120 -14.5910
   -14.5854 -14.5386 -14.5370 -14.5075 -14.4425 -14.4320 -10.5136 -10.2151
    -9.9878  -9.7688  -9.4030  -9.3202  -8.9307  -8.7712  -8.6529  -6.6838
    -6.6320  -6.5226  -6.4358  -6.3474  -6.2670  -5.9429  -5.7290  -5.5897
    -5.4555  -5.1031  -4.7291  -1.6078  -1.4929   3.7828   3.8409   3.9347
     4.2093   4.3470   4.5121   4.8514   4.9302   5.0623   5.4160   5.5389
     5.6838   5.7796   5.8290   5.9528   6.0416   6.1801   6.2005   6.2983
     6.4115   6.4869   6.5624   6.6788   6.7005   6.8113   6.8763   6.9859

     occupation numbers 
     1.0000   1.0000   1.0000   1.0000   1.0000   1.0000   1.0000   1.0000
     1.0000   1.0000   1.0000   1.0000   1.0000   1.0000   1.0000   1.0000
     1.0000   1.0000   1.0000   1.0000   1.0000   1.0000   1.0000   1.0000
     1.0000   1.0000   1.0000   1.0000   1.0000   1.0000   1.0000   1.0000
     1.0000   1.0000   1.0000   1.0000   1.0000   1.0000   1.0000   1.0000
     1.0000   1.0000   1.0000   1.0000   1.0000   1.0000   1.0000   1.0000
     1.0000   1.0000   1.0000   1.0000   1.0000   1.0000   1.0000   1.0000
     1.0000   1.0000   1.0000   1.0000   1.0000   1.0000   1.0000   1.0000

          k = 0.0000 0.3331 0.1086 (  5620 PWs)   bands (ev):

   -22.7575 -22.6946 -22.6665 -22.6033 -14.7599 -14.6572 -14.6117 -14.5910
   -14.5860 -14.5385 -14.5361 -14.5073 -14.4423 -14.4325 -10.4291 -10.2592
    -9.8505  -9.7206  -9.4698  -9.3084  -9.1167  -8.9821  -8.7121  -6.5875
    -6.5111  -6.4638  -6.3634  -6.1735  -6.0951  -5.9346  -5.7553  -5.5795
    -5.4724  -5.3191  -4.9163  -1.5800  -1.4811   3.9048   3.9891   4.0507
     4.1279   4.2969   4.4727   4.9941   5.0760   5.1721   5.3695   5.4559
     5.5184   5.6194   5.7257   5.9040   5.9595   6.0721   6.1596   6.2880
     6.3516   6.4964   6.5557   6.6890   6.7625   6.8268   6.9136   7.1299

     occupation numbers 
     1.0000   1.0000   1.0000   1.0000   1.0000   1.0000   1.0000   1.0000
     1.0000   1.0000   1.0000   1.0000   1.0000   1.0000   1.0000   1.0000
     1.0000   1.0000   1.0000   1.0000   1.0000   1.0000   1.0000   1.0000
     1.0000   1.0000   1.0000   1.0000   1.0000   1.0000   1.0000   1.0000
     1.0000   1.0000   1.0000   1.0000   1.0000   1.0000   1.0000   1.0000
     1.0000   1.0000   1.0000   1.0000   1.0000   1.0000   1.0000   1.0000
     1.0000   1.0000   1.0000   1.0000   1.0000   1.0000   1.0000   1.0000
     1.0000   1.0000   1.0000   1.0000   1.0000   1.0000   1.0000   1.0000

          k = 0.0000 0.3331 0.3310 (  5614 PWs)   bands (ev):

   -22.7553 -22.6995 -22.6646 -22.6025 -14.7599 -14.6573 -14.6117 -14.5910
   -14.5860 -14.5384 -14.5362 -14.5073 -14.4423 -14.4325 -10.4078 -10.2337
    -9.8908  -9.7804  -9.4805  -9.3119  -9.1013  -8.9035  -8.7231  -6.5343
    -6.5178  -6.4902  -6.3530  -6.2430  -6.1514  -5.8360  -5.7637  -5.6262
    -5.5000  -5.2595  -4.9113  -1.5590  -1.5019   3.8796   3.9733   4.0300
     4.2010   4.2910   4.4867   4.9623   5.0381   5.2103   5.3461   5.4380
     5.6302   5.6484   5.7925   5.8470   5.9554   6.0452   6.1763   6.2586
     6.3479   6.4308   6.5504   6.6706   6.7670   6.8083   7.0111   7.1041

     occupation numbers 
     1.0000   1.0000   1.0000   1.0000   1.0000   1.0000   1.0000   1.0000
     1.0000   1.0000   1.0000   1.0000   1.0000   1.0000   1.0000   1.0000
     1.0000   1.0000   1.0000   1.0000   1.0000   1.0000   1.0000   1.0000
     1.0000   1.0000   1.0000   1.0000   1.0000   1.0000   1.0000   1.0000
     1.0000   1.0000   1.0000   1.0000   1.0000   1.0000   1.0000   1.0000
     1.0000   1.0000   1.0000   1.0000   1.0000   1.0000   1.0000   1.0000
     1.0000   1.0000   1.0000   1.0000   1.0000   1.0000   1.0000   1.0000
     1.0000   1.0000   1.0000   1.0000   1.0000   1.0000   1.0000   1.0000

          k = 0.0000 0.3331-0.1139 (  5620 PWs)   bands (ev):

   -22.7572 -22.6956 -22.6658 -22.6033 -14.7599 -14.6573 -14.6117 -14.5910
   -14.5860 -14.5385 -14.5362 -14.5073 -14.4423 -14.4325 -10.4551 -10.2178
    -9.8564  -9.7363  -9.4666  -9.3110  -9.1184  -8.9522  -8.7355  -6.6198
    -6.5216  -6.4845  -6.3331  -6.1694  -6.0672  -5.8147  -5.7412  -5.6377
    -5.5790  -5.3191  -4.8828  -1.5922  -1.4720   3.9040   4.0023   4.0599
     4.2044   4.2760   4.4019   4.9632   5.0277   5.1949   5.3905   5.4648
     5.6160   5.6738   5.7340   5.8422   5.9460   6.0478   6.1734   6.2495
     6.3235   6.4178   6.5911   6.6792   6.7542   6.8377   6.9415   7.1564

     occupation numbers 
     1.0000   1.0000   1.0000   1.0000   1.0000   1.0000   1.0000   1.0000
     1.0000   1.0000   1.0000   1.0000   1.0000   1.0000   1.0000   1.0000
     1.0000   1.0000   1.0000   1.0000   1.0000   1.0000   1.0000   1.0000
     1.0000   1.0000   1.0000   1.0000   1.0000   1.0000   1.0000   1.0000
     1.0000   1.0000   1.0000   1.0000   1.0000   1.0000   1.0000   1.0000
     1.0000   1.0000   1.0000   1.0000   1.0000   1.0000   1.0000   1.0000
     1.0000   1.0000   1.0000   1.0000   1.0000   1.0000   1.0000   1.0000
     1.0000   1.0000   1.0000   1.0000   1.0000   1.0000   1.0000   1.0000

          k = 0.3333 0.0076 0.0240 (  5617 PWs)   bands (ev):

   -22.7682 -22.6898 -22.6593 -22.6043 -14.7599 -14.6573 -14.6118 -14.5909
   -14.5858 -14.5383 -14.5361 -14.5072 -14.4423 -14.4326 -10.4760 -10.2243
    -9.8830  -9.7321  -9.4708  -9.3121  -9.1333  -8.8396  -8.7108  -6.6690
    -6.5222  -6.4992  -6.3966  -6.2347  -6.1219  -5.8634  -5.6935  -5.5396
    -5.4669  -5.3047  -4.9168  -1.6203  -1.4615   3.8031   3.9276   4.0914
     4.2256   4.3106   4.4552   4.9480   5.0267   5.1779   5.3007   5.4886
     5.5532   5.7284   5.7803   5.8711   6.0250   6.1159   6.1497   6.2329
     6.3774   6.4251   6.5203   6.6966   6.7625   6.8479   6.9311   7.2013

     occupation numbers 
     1.0000   1.0000   1.0000   1.0000   1.0000   1.0000   1.0000   1.0000
     1.0000   1.0000   1.0000   1.0000   1.0000   1.0000   1.0000   1.0000
     1.0000   1.0000   1.0000   1.0000   1.0000   1.0000   1.0000   1.0000
     1.0000   1.0000   1.0000   1.0000   1.0000   1.0000   1.0000   1.0000
     1.0000   1.0000   1.0000   1.0000   1.0000   1.0000   1.0000   1.0000
     1.0000   1.0000   1.0000   1.0000   1.0000   1.0000   1.0000   1.0000
     1.0000   1.0000   1.0000   1.0000   1.0000   1.0000   1.0000   1.0000
     1.0000   1.0000   1.0000   1.0000   1.0000   1.0000   1.0000   1.0000

          k = 0.3333 0.0076 0.2465 (  5627 PWs)   bands (ev):

   -22.7644 -22.7004 -22.6526 -22.6042 -14.7600 -14.6573 -14.6118 -14.5908
   -14.5858 -14.5384 -14.5360 -14.5072 -14.4423 -14.4326 -10.4342 -10.2795
    -9.8863  -9.7380  -9.4407  -9.2660  -9.1857  -8.8514  -8.7048  -6.7011
    -6.5283  -6.4461  -6.3889  -6.1698  -6.0458  -5.9678  -5.7650  -5.6369
    -5.4312  -5.2544  -4.8879  -1.5781  -1.5055   3.8273   3.9579   4.0951
     4.1092   4.3194   4.4677   4.9555   5.0472   5.1664   5.3188   5.4819
     5.6457   5.6849   5.7448   5.8824   6.0271   6.0604   6.1700   6.2584
     6.3495   6.4797   6.4970   6.6691   6.7695   6.8312   6.9654   7.1559

     occupation numbers 
     1.0000   1.0000   1.0000   1.0000   1.0000   1.0000   1.0000   1.0000
     1.0000   1.0000   1.0000   1.0000   1.0000   1.0000   1.0000   1.0000
     1.0000   1.0000   1.0000   1.0000   1.0000   1.0000   1.0000   1.0000
     1.0000   1.0000   1.0000   1.0000   1.0000   1.0000   1.0000   1.0000
     1.0000   1.0000   1.0000   1.0000   1.0000   1.0000   1.0000   1.0000
     1.0000   1.0000   1.0000   1.0000   1.0000   1.0000   1.0000   1.0000
     1.0000   1.0000   1.0000   1.0000   1.0000   1.0000   1.0000   1.0000
     1.0000   1.0000   1.0000   1.0000   1.0000   1.0000   1.0000   1.0000

          k = 0.3333 0.0076-0.1984 (  5612 PWs)   bands (ev):

   -22.7649 -22.6995 -22.6528 -22.6044 -14.7599 -14.6573 -14.6119 -14.5908
   -14.5858 -14.5384 -14.5360 -14.5072 -14.4423 -14.4326 -10.4815 -10.2288
    -9.8760  -9.7241  -9.4836  -9.2618  -9.1306  -8.8691  -8.7375  -6.6985
    -6.5282  -6.4737  -6.3787  -6.2143  -6.0599  -5.8950  -5.7228  -5.5923
    -5.4502  -5.3144  -4.8860  -1.6018  -1.4853   3.9155   3.9624   4.0954
     4.1179   4.2769   4.3910   4.9407   5.0371   5.1651   5.3406   5.4329
     5.6028   5.7492   5.8030   5.9198   6.0400   6.0991   6.1127   6.2414
     6.4019   6.4333   6.5437   6.6259   6.7689   6.8427   6.9774   7.1718

     occupation numbers 
     1.0000   1.0000   1.0000   1.0000   1.0000   1.0000   1.0000   1.0000
     1.0000   1.0000   1.0000   1.0000   1.0000   1.0000   1.0000   1.0000
     1.0000   1.0000   1.0000   1.0000   1.0000   1.0000   1.0000   1.0000
     1.0000   1.0000   1.0000   1.0000   1.0000   1.0000   1.0000   1.0000
     1.0000   1.0000   1.0000   1.0000   1.0000   1.0000   1.0000   1.0000
     1.0000   1.0000   1.0000   1.0000   1.0000   1.0000   1.0000   1.0000
     1.0000   1.0000   1.0000   1.0000   1.0000   1.0000   1.0000   1.0000
     1.0000   1.0000   1.0000   1.0000   1.0000   1.0000   1.0000   1.0000

          k = 0.3333 0.3407 0.1326 (  5606 PWs)   bands (ev):

   -22.7463 -22.6939 -22.6670 -22.6143 -14.7600 -14.6564 -14.6118 -14.5908
   -14.5853 -14.5383 -14.5357 -14.5065 -14.4422 -14.4324 -10.4341 -10.1781
    -9.9069  -9.7532  -9.5920  -9.2642  -9.1358  -9.0162  -8.6331  -6.5215
    -6.4743  -6.4136  -6.3652  -6.2427  -6.0332  -5.8841  -5.7815  -5.6191
    -5.4579  -5.3835  -4.9115  -1.5475  -1.4743   3.7920   3.9325   4.1532
     4.2114   4.2623   4.3573   5.0525   5.0857   5.2803   5.3663   5.3907
     5.5929   5.6601   5.6790   5.8144   5.9324   6.0225   6.0871   6.2775
     6.3725   6.4363   6.5088   6.5951   6.6981   6.8323   7.0902   7.3235

     occupation numbers 
     1.0000   1.0000   1.0000   1.0000   1.0000   1.0000   1.0000   1.0000
     1.0000   1.0000   1.0000   1.0000   1.0000   1.0000   1.0000   1.0000
     1.0000   1.0000   1.0000   1.0000   1.0000   1.0000   1.0000   1.0000
     1.0000   1.0000   1.0000   1.0000   1.0000   1.0000   1.0000   1.0000
     1.0000   1.0000   1.0000   1.0000   1.0000   1.0000   1.0000   1.0000
     1.0000   1.0000   1.0000   1.0000   1.0000   1.0000   1.0000   1.0000
     1.0000   1.0000   1.0000   1.0000   1.0000   1.0000   1.0000   1.0000
     1.0000   1.0000   1.0000   1.0000   1.0000   1.0000   1.0000   1.0000

          k = 0.3333 0.3407 0.3551 (  5606 PWs)   bands (ev):

   -22.7450 -22.6971 -22.6653 -22.6142 -14.7599 -14.6564 -14.6117 -14.5907
   -14.5854 -14.5382 -14.5358 -14.5065 -14.4422 -14.4324 -10.4064 -10.2141
    -9.9031  -9.7667  -9.5251  -9.3096  -9.2337  -8.9796  -8.5452  -6.5355
    -6.4878  -6.4228  -6.3876  -6.3237  -5.9938  -5.8602  -5.7883  -5.5528
    -5.4623  -5.3582  -4.9432  -1.5442  -1.4807   3.8276   3.9215   4.0816
     4.1508   4.3157   4.4556   4.9984   5.0873   5.2813   5.3296   5.4502
     5.5591   5.6566   5.7249   5.8105   5.9659   6.0257   6.0819   6.2824
     6.2985   6.4135   6.5362   6.5957   6.7149   6.8126   7.1073   7.3228

     occupation numbers 
     1.0000   1.0000   1.0000   1.0000   1.0000   1.0000   1.0000   1.0000
     1.0000   1.0000   1.0000   1.0000   1.0000   1.0000   1.0000   1.0000
     1.0000   1.0000   1.0000   1.0000   1.0000   1.0000   1.0000   1.0000
     1.0000   1.0000   1.0000   1.0000   1.0000   1.0000   1.0000   1.0000
     1.0000   1.0000   1.0000   1.0000   1.0000   1.0000   1.0000   1.0000
     1.0000   1.0000   1.0000   1.0000   1.0000   1.0000   1.0000   1.0000
     1.0000   1.0000   1.0000   1.0000   1.0000   1.0000   1.0000   1.0000
     1.0000   1.0000   1.0000   1.0000   1.0000   1.0000   1.0000   1.0000

          k = 0.3333 0.3407-0.0898 (  5603 PWs)   bands (ev):

   -22.7464 -22.6943 -22.6664 -22.6146 -14.7599 -14.6563 -14.6118 -14.5907
   -14.5854 -14.5382 -14.5358 -14.5065 -14.4422 -14.4324 -10.4086 -10.2135
    -9.9333  -9.7651  -9.5250  -9.3042  -9.1153  -8.9770  -8.6675  -6.5433
    -6.4796  -6.4194  -6.3454  -6.2812  -6.0088  -5.9136  -5.7353  -5.5584
    -5.4861  -5.4058  -4.9128  -1.5535  -1.4719   3.8346   3.9676   4.1244
     4.1468   4.2810   4.3749   5.0252   5.1338   5.2417   5.2919   5.4061
     5.5565   5.6981   5.7364   5.8152   5.9549   6.0081   6.1219   6.1956
     6.3280   6.4572   6.5156   6.6101   6.7541   6.8110   7.0758   7.3634

     occupation numbers 
     1.0000   1.0000   1.0000   1.0000   1.0000   1.0000   1.0000   1.0000
     1.0000   1.0000   1.0000   1.0000   1.0000   1.0000   1.0000   1.0000
     1.0000   1.0000   1.0000   1.0000   1.0000   1.0000   1.0000   1.0000
     1.0000   1.0000   1.0000   1.0000   1.0000   1.0000   1.0000   1.0000
     1.0000   1.0000   1.0000   1.0000   1.0000   1.0000   1.0000   1.0000
     1.0000   1.0000   1.0000   1.0000   1.0000   1.0000   1.0000   1.0000
     1.0000   1.0000   1.0000   1.0000   1.0000   1.0000   1.0000   1.0000
     1.0000   1.0000   1.0000   1.0000   1.0000   1.0000   1.0000   1.0000

          k = 0.3333-0.3255-0.0845 (  5611 PWs)   bands (ev):

   -22.7474 -22.6933 -22.6670 -22.6138 -14.7600 -14.6555 -14.6120 -14.5908
   -14.5857 -14.5382 -14.5355 -14.5066 -14.4422 -14.4320 -10.5046 -10.1688
    -9.7988  -9.7036  -9.4194  -9.4096  -9.3267  -8.9753  -8.6228  -6.5408
    -6.4658  -6.4247  -6.4005  -6.2673  -6.0018  -5.8695  -5.7103  -5.6164
    -5.5218  -5.3043  -4.9278  -1.5550  -1.4827   3.8696   3.9437   4.0402
     4.1382   4.2907   4.4975   4.9771   5.0627   5.2190   5.2969   5.4541
     5.5215   5.6462   5.7348   5.8265   5.8868   6.0725   6.1276   6.2456
     6.3586   6.4336   6.4718   6.5703   6.7658   6.8527   7.1374   7.2696

     occupation numbers 
     1.0000   1.0000   1.0000   1.0000   1.0000   1.0000   1.0000   1.0000
     1.0000   1.0000   1.0000   1.0000   1.0000   1.0000   1.0000   1.0000
     1.0000   1.0000   1.0000   1.0000   1.0000   1.0000   1.0000   1.0000
     1.0000   1.0000   1.0000   1.0000   1.0000   1.0000   1.0000   1.0000
     1.0000   1.0000   1.0000   1.0000   1.0000   1.0000   1.0000   1.0000
     1.0000   1.0000   1.0000   1.0000   1.0000   1.0000   1.0000   1.0000
     1.0000   1.0000   1.0000   1.0000   1.0000   1.0000   1.0000   1.0000
     1.0000   1.0000   1.0000   1.0000   1.0000   1.0000   1.0000   1.0000

          k = 0.3333-0.3255 0.1379 (  5611 PWs)   bands (ev):

   -22.7468 -22.6948 -22.6664 -22.6136 -14.7600 -14.6555 -14.6119 -14.5908
   -14.5858 -14.5382 -14.5355 -14.5066 -14.4422 -14.4320 -10.4849 -10.1484
    -9.8975  -9.6855  -9.4914  -9.3904  -9.2155  -9.0023  -8.5972  -6.5510
    -6.4767  -6.4526  -6.3866  -6.2340  -6.0291  -5.8855  -5.7184  -5.6154
    -5.5100  -5.3033  -4.9028  -1.5597  -1.4790   3.9012   3.9327   3.9995
     4.1758   4.2939   4.4686   4.9939   5.0694   5.2133   5.2794   5.3499
     5.5305   5.6807   5.8163   5.8925   5.9088   6.0382   6.0850   6.2445
     6.3320   6.4282   6.5173   6.5542   6.7509   6.8373   7.1106   7.3068

     occupation numbers 
     1.0000   1.0000   1.0000   1.0000   1.0000   1.0000   1.0000   1.0000
     1.0000   1.0000   1.0000   1.0000   1.0000   1.0000   1.0000   1.0000
     1.0000   1.0000   1.0000   1.0000   1.0000   1.0000   1.0000   1.0000
     1.0000   1.0000   1.0000   1.0000   1.0000   1.0000   1.0000   1.0000
     1.0000   1.0000   1.0000   1.0000   1.0000   1.0000   1.0000   1.0000
     1.0000   1.0000   1.0000   1.0000   1.0000   1.0000   1.0000   1.0000
     1.0000   1.0000   1.0000   1.0000   1.0000   1.0000   1.0000   1.0000
     1.0000   1.0000   1.0000   1.0000   1.0000   1.0000   1.0000   1.0000

          k = 0.3333-0.3255-0.3070 (  5624 PWs)   bands (ev):

   -22.7458 -22.6971 -22.6651 -22.6135 -14.7600 -14.6555 -14.6120 -14.5908
   -14.5858 -14.5382 -14.5356 -14.5066 -14.4422 -14.4320 -10.4672 -10.1734
    -9.8737  -9.6632  -9.5584  -9.3848  -9.2824  -8.9034  -8.5869  -6.5313
    -6.4890  -6.4512  -6.4135  -6.3288  -6.0154  -5.8501  -5.6967  -5.6235
    -5.4974  -5.2197  -4.9686  -1.5326  -1.5063   3.8411   3.9302   4.0541
     4.1763   4.2737   4.4696   5.0045   5.0491   5.1972   5.3021   5.4014
     5.5047   5.6693   5.7782   5.8992   5.9474   6.0111   6.1467   6.1959
     6.3900   6.4266   6.4862   6.5707   6.7338   6.7737   7.1497   7.2847

     occupation numbers 
     1.0000   1.0000   1.0000   1.0000   1.0000   1.0000   1.0000   1.0000
     1.0000   1.0000   1.0000   1.0000   1.0000   1.0000   1.0000   1.0000
     1.0000   1.0000   1.0000   1.0000   1.0000   1.0000   1.0000   1.0000
     1.0000   1.0000   1.0000   1.0000   1.0000   1.0000   1.0000   1.0000
     1.0000   1.0000   1.0000   1.0000   1.0000   1.0000   1.0000   1.0000
     1.0000   1.0000   1.0000   1.0000   1.0000   1.0000   1.0000   1.0000
     1.0000   1.0000   1.0000   1.0000   1.0000   1.0000   1.0000   1.0000
     1.0000   1.0000   1.0000   1.0000   1.0000   1.0000   1.0000   1.0000

     highest occupied level (ev):     7.3634

!    total energy              =   -2579.49565205 Ry
     estimated scf accuracy    <       0.00000022 Ry

     The total energy is the sum of the following terms:
     one-electron contribution =    -321.22407296 Ry
     hartree contribution      =     241.12048086 Ry
     xc contribution           =    -231.62295300 Ry
     ewald contribution        =    -589.59034591 Ry
     one-center paw contrib.   =   -1678.17876104 Ry
      -> PAW hartree energy AE =      70.20678467 Ry
      -> PAW hartree energy PS =     -70.30854199 Ry
      -> PAW xc energy AE      =    -810.76511009 Ry
      -> PAW xc energy PS      =      14.65434346 Ry
      -> total E_H with PAW    =     241.01872354 Ry
      -> total E_XC with PAW   =   -1027.73371963 Ry

     convergence has been achieved in  15 iterations

     Writing all to output data dir calculations_bands/myprefix.save/
 
     init_run     :     73.39s CPU     23.29s WALL (       1 calls)
     electrons    :    744.56s CPU    218.59s WALL (       1 calls)

     Called by init_run:
     wfcinit      :     58.90s CPU     17.04s WALL (       1 calls)
     wfcinit:atom :      0.04s CPU      0.01s WALL (       7 calls)
     wfcinit:wfcr :     58.55s CPU     16.92s WALL (       7 calls)
     potinit      :      6.68s CPU      2.59s WALL (       1 calls)
     hinit0       :      5.86s CPU      2.82s WALL (       1 calls)

     Called by electrons:
     c_bands      :    576.55s CPU    164.43s WALL (      15 calls)
     sum_band     :     95.82s CPU     31.01s WALL (      15 calls)
     v_of_rho     :      4.58s CPU      1.52s WALL (      16 calls)
     v_h          :      0.48s CPU      0.16s WALL (      16 calls)
     v_xc         :      4.10s CPU      1.37s WALL (      16 calls)
     newd         :     26.03s CPU      9.57s WALL (      16 calls)
     PAW_pot      :     44.02s CPU     12.91s WALL (      16 calls)
     mix_rho      :      1.35s CPU      0.52s WALL (      15 calls)

     Called by c_bands:
     init_us_2    :      0.73s CPU      0.23s WALL (     217 calls)
     init_us_2:cp :      0.72s CPU      0.23s WALL (     217 calls)
     cegterg      :    544.26s CPU    151.90s WALL (     105 calls)

     Called by sum_band:
     sum_band:wei :      0.02s CPU      0.01s WALL (      15 calls)
     sum_band:loo :     66.01s CPU     19.06s WALL (      15 calls)
     sum_band:buf :      0.13s CPU      0.05s WALL (     105 calls)
     sum_band:ini :      0.24s CPU      0.07s WALL (     105 calls)
     sum_band:cal :      3.60s CPU      1.02s WALL (     105 calls)
     sum_band:bec :      0.14s CPU      0.05s WALL (     105 calls)
     addusdens    :     12.72s CPU      4.67s WALL (      15 calls)
     addusd:skk   :      0.45s CPU      0.19s WALL (      45 calls)
     addusd:dgemm :      1.60s CPU      1.05s WALL (      45 calls)
     addusd:qvan2 :      6.31s CPU      1.95s WALL (      45 calls)

     Called by *egterg:
     cdiaghg      :     54.21s CPU     15.32s WALL (     546 calls)
     cegterg:over :     38.19s CPU     10.43s WALL (     441 calls)
     cegterg:upda :     12.21s CPU      3.38s WALL (     441 calls)
     cegterg:last :     12.45s CPU      3.42s WALL (     275 calls)
     cdiaghg:chol :      2.78s CPU      0.79s WALL (     546 calls)
     cdiaghg:inve :      0.49s CPU      0.14s WALL (     546 calls)
     cdiaghg:para :     22.32s CPU      6.39s WALL (    1092 calls)
     h_psi        :    462.54s CPU    129.55s WALL (     553 calls)
     s_psi        :      1.62s CPU      0.45s WALL (     553 calls)
     g_psi        :      0.10s CPU      0.03s WALL (     441 calls)

     Called by h_psi:
     h_psi:calbec :     14.11s CPU      3.89s WALL (     553 calls)
     vloc_psi     :    446.30s CPU    125.05s WALL (     553 calls)
     add_vuspsi   :      1.95s CPU      0.56s WALL (     553 calls)

     General routines
     calbec       :     17.70s CPU      4.90s WALL (     658 calls)
     fft          :     19.28s CPU      8.16s WALL (     206 calls)
     ffts         :      1.83s CPU      0.57s WALL (      31 calls)
     fftw         :    501.51s CPU    140.78s WALL (   48722 calls)
     interpolate  :      1.71s CPU      0.54s WALL (      16 calls)
 
     Parallel routines

     PAW routines
     PAW_pot      :     44.02s CPU     12.91s WALL (      16 calls)
 
     PWSCF        :  13m39.62s CPU   4m 3.02s WALL

 
   This run was terminated on:  21:58:59   4Jun2023            

=------------------------------------------------------------------------------=
   JOB DONE.
=------------------------------------------------------------------------------=
