
     Program PWSCF v.7.0 starts on  7Jun2023 at  4:35:51 

     This program is part of the open-source Quantum ESPRESSO suite
     for quantum simulation of materials; please cite
         "P. Giannozzi et al., J. Phys.:Condens. Matter 21 395502 (2009);
         "P. Giannozzi et al., J. Phys.:Condens. Matter 29 465901 (2017);
         "P. Giannozzi et al., J. Chem. Phys. 152 154105 (2020);
          URL http://www.quantum-espresso.org", 
     in publications or presentations arising from this work. More details at
     http://www.quantum-espresso.org/quote

     Parallel version (MPI & OpenMP), running on      32 processor cores
     Number of MPI processes:                 8
     Threads/MPI process:                     4

     MPI processes distributed on     1 nodes
     K-points division:     npool     =       2
     R & G space division:  proc/nbgrp/npool/nimage =       4
     52697 MiB available memory on the printing compute node when the environment starts
 
     Reading input from espresso_1589.pwi
Warning: card &CELL ignored
Warning: card / ignored

     Current dimensions of program PWSCF are:
     Max number of different atomic species (ntypx) = 10
     Max number of k-points (npk) =  40000
     Max angular momentum in pseudopotentials (lmaxx) =  4
     file K.pbe-spn-kjpaw_psl.1.0.0.UPF: wavefunction(s)  3S renormalized
     Message from routine setup:
     using ibrav=0 with symmetry is DISCOURAGED, use correct ibrav instead

     Subspace diagonalization in iterative solution of the eigenvalue problem:
     one sub-group per band group will be used
     scalapack distributed-memory algorithm (size of sub-group:  2*  2 procs)

 
     Parallelization info
     --------------------
     sticks:   dense  smooth     PW     G-vecs:    dense   smooth      PW
     Min         877     439    126                29014    10254    1588
     Max         878     440    127                29015    10255    1589
     Sum        3511    1759    507               116059    41017    6355
 
     Using Slab Decomposition
 


     bravais-lattice index     =            0
     lattice parameter (alat)  =      12.7676  a.u.
     unit-cell volume          =    1848.2805 (a.u.)^3
     number of atoms/cell      =           10
     number of atomic types    =            3
     number of electrons       =        84.00
     number of Kohn-Sham states=           64
     kinetic-energy cutoff     =      30.0000  Ry
     charge density cutoff     =     240.0000  Ry
     scf convergence threshold =      1.0E-06
     mixing beta               =       0.7000
     number of iterations used =            8  plain     mixing
     Exchange-correlation=  SLA  PW   PBX  PBC
                           (   1   4   3   4   0   0   0)

     celldm(1)=  12.767604  celldm(2)=   0.000000  celldm(3)=   0.000000
     celldm(4)=   0.000000  celldm(5)=   0.000000  celldm(6)=   0.000000

     crystal axes: (cart. coord. in units of alat)
               a(1) = (   1.000000   0.000000   0.000000 )  
               a(2) = (  -0.401995   1.127355   0.000000 )  
               a(3) = (   0.211481  -0.561205   0.787733 )  

     reciprocal axes: (cart. coord. in units 2 pi/alat)
               b(1) = (  1.000000  0.356582 -0.014428 )  
               b(2) = (  0.000000  0.887032  0.631949 )  
               b(3) = (  0.000000  0.000000  1.269465 )  


     PseudoPot. # 1 for K  read from file:
     /home/pragov/projects/rrg-bengioy-ad/pragov/crystal_structure_design/SSSP/K.pbe-spn-kjpaw_psl.1.0.0.UPF
     MD5 check sum: 7d58810084cac21f60fbe77ea2b688fd
     Pseudo is Projector augmented-wave + core cor, Zval =  9.0
     Generated using "atomic" code by A. Dal Corso  v.5.1
     Shape of augmentation charge: PSQ
     Using radial grid of 1165 points,  6 beta functions with: 
                l(1) =   0
                l(2) =   0
                l(3) =   1
                l(4) =   1
                l(5) =   2
                l(6) =   2
     Q(r) pseudized with 0 coefficients 


     PseudoPot. # 2 for Ir read from file:
     /home/pragov/projects/rrg-bengioy-ad/pragov/crystal_structure_design/SSSP/Ir_pbe_v1.2.uspp.F.UPF
     MD5 check sum: 8836f839c3459d2b385c504ce6d91f2c
     Pseudo is Ultrasoft + core correction, Zval = 15.0
     Generated by new atomic code, or converted to UPF format
     Using radial grid of  983 points,  7 beta functions with: 
                l(1) =   0
                l(2) =   0
                l(3) =   1
                l(4) =   1
                l(5) =   1
                l(6) =   2
                l(7) =   2
     Q(r) pseudized with  8 coefficients,  rinner =    1.400   1.400   1.400
                                                       1.400   1.400

     PseudoPot. # 3 for F  read from file:
     /home/pragov/projects/rrg-bengioy-ad/pragov/crystal_structure_design/SSSP/f_pbe_v1.4.uspp.F.UPF
     MD5 check sum: 4c38b6a325caf53ec0e86aed9459de46
     Pseudo is Ultrasoft, Zval =  7.0
     Generated by new atomic code, or converted to UPF format
     Using radial grid of  799 points,  4 beta functions with: 
                l(1) =   0
                l(2) =   0
                l(3) =   1
                l(4) =   1
     Q(r) pseudized with  8 coefficients,  rinner =    0.950   0.950   0.950


     atomic species   valence    mass     pseudopotential
        K              9.00    39.09830     K ( 1.00)
        Ir            15.00   192.21700     Ir( 1.00)
        F              7.00    18.99840     F ( 1.00)

      2 Sym. Ops., with inversion, found


                                    s                        frac. trans.

      isym =  1     identity                                     

 cryst.   s( 1) = (     1          0          0      )
                  (     0          1          0      )
                  (     0          0          1      )

 cart.    s( 1) = (  1.0000000 -0.0000000  0.0000000 )
                  (  0.0000000  1.0000000 -0.0000000 )
                  (  0.0000000  0.0000000  1.0000000 )


      isym =  2     inversion                                    

 cryst.   s( 2) = (    -1          0          0      )
                  (     0         -1          0      )
                  (     0          0         -1      )

 cart.    s( 2) = ( -1.0000000  0.0000000 -0.0000000 )
                  (  0.0000000 -1.0000000  0.0000000 )
                  (  0.0000000  0.0000000 -1.0000000 )


   Cartesian axes

     site n.     atom                  positions (alat units)
         1           K   tau(   1) = (   0.5000000   0.0000000   0.0000000  )
         2           K   tau(   2) = (  -0.0952569   0.2830748   0.3938667  )
         3           K   tau(   3) = (   0.1057404  -0.2806024   0.3938667  )
         4           Ir  tau(   4) = (   0.0000000   0.0000000   0.0000000  )
         5           F   tau(   5) = (   0.8119369  -0.1001205   0.2158121  )
         6           F   tau(   6) = (  -0.0024507   0.6662702   0.5719212  )
         7           F   tau(   7) = (   0.6229350   0.4870131   0.5622714  )
         8           F   tau(   8) = (   0.1865512   0.0791366   0.2254619  )
         9           F   tau(   9) = (  -0.0210068   0.3129836   0.7812479  )
        10           F   tau(  10) = (   0.8304930   0.2531661   0.0064854  )

   Crystallographic axes

     site n.     atom                  positions (cryst. coord.)
         1           K   tau(   1) = (  0.5000000  0.0000000  0.0000000  )
         2           K   tau(   2) = ( -0.0000000  0.5000000  0.5000000  )
         3           K   tau(   3) = (  0.0000000  0.0000000  0.5000000  )
         4           Ir  tau(   4) = (  0.0000000  0.0000000  0.0000000  )
         5           F   tau(   5) = (  0.7731220  0.0475720  0.2739660  )
         6           F   tau(   6) = (  0.2268780  0.9524280  0.7260340  )
         7           F   tau(   7) = (  0.7884830  0.7873230  0.7137840  )
         8           F   tau(   8) = (  0.2115170  0.2126770  0.2862160  )
         9           F   tau(   9) = (  0.0793260  0.7713350  0.9917670  )
        10           F   tau(  10) = (  0.9206740  0.2286650  0.0082330  )

     number of k points=    14
                       cart. coord. in units 2pi/alat
        k(    1) = (   0.0000000   0.0000000   0.0000000), wk =   0.0740741
        k(    2) = (   0.0000000   0.0000000   0.4231551), wk =   0.1481481
        k(    3) = (   0.0000000   0.2956775   0.2106495), wk =   0.1481481
        k(    4) = (   0.0000000   0.2956775   0.6338046), wk =   0.1481481
        k(    5) = (   0.0000000   0.2956775  -0.2125056), wk =   0.1481481
        k(    6) = (   0.3333333   0.1188608  -0.0048092), wk =   0.1481481
        k(    7) = (   0.3333333   0.1188608   0.4183458), wk =   0.1481481
        k(    8) = (   0.3333333   0.1188608  -0.4279643), wk =   0.1481481
        k(    9) = (   0.3333333   0.4145383   0.2058403), wk =   0.1481481
        k(   10) = (   0.3333333   0.4145383   0.6289953), wk =   0.1481481
        k(   11) = (   0.3333333   0.4145383  -0.2173148), wk =   0.1481481
        k(   12) = (   0.3333333  -0.1768167  -0.2154587), wk =   0.1481481
        k(   13) = (   0.3333333  -0.1768167   0.2076963), wk =   0.1481481
        k(   14) = (   0.3333333  -0.1768167  -0.6386138), wk =   0.1481481

                       cryst. coord.
        k(    1) = (   0.0000000   0.0000000   0.0000000), wk =   0.0740741
        k(    2) = (   0.0000000   0.0000000   0.3333333), wk =   0.1481481
        k(    3) = (   0.0000000   0.3333333  -0.0000000), wk =   0.1481481
        k(    4) = (   0.0000000   0.3333333   0.3333333), wk =   0.1481481
        k(    5) = (   0.0000000   0.3333333  -0.3333333), wk =   0.1481481
        k(    6) = (   0.3333333   0.0000000  -0.0000000), wk =   0.1481481
        k(    7) = (   0.3333333   0.0000000   0.3333333), wk =   0.1481481
        k(    8) = (   0.3333333   0.0000000  -0.3333333), wk =   0.1481481
        k(    9) = (   0.3333333   0.3333333  -0.0000000), wk =   0.1481481
        k(   10) = (   0.3333333   0.3333333   0.3333333), wk =   0.1481481
        k(   11) = (   0.3333333   0.3333333  -0.3333333), wk =   0.1481481
        k(   12) = (   0.3333333  -0.3333333   0.0000000), wk =   0.1481481
        k(   13) = (   0.3333333  -0.3333333   0.3333333), wk =   0.1481481
        k(   14) = (   0.3333333  -0.3333333  -0.3333333), wk =   0.1481481

     Dense  grid:   116059 G-vectors     FFT dimensions: (  64,  75,  64)

     Smooth grid:    41017 G-vectors     FFT dimensions: (  45,  54,  45)

     Dynamical RAM for                 wfc:       1.25 MB

     Dynamical RAM for     wfc (w. buffer):      10.02 MB

     Dynamical RAM for           str. fact:       1.33 MB

     Dynamical RAM for           local pot:       0.00 MB

     Dynamical RAM for          nlocal pot:       2.41 MB

     Dynamical RAM for                qrad:       4.98 MB

     Dynamical RAM for          rho,v,vnew:       3.09 MB

     Dynamical RAM for               rhoin:       1.03 MB

     Dynamical RAM for            rho*nmix:       7.08 MB

     Dynamical RAM for           G-vectors:       1.74 MB

     Dynamical RAM for          h,s,v(r/c):       0.19 MB

     Dynamical RAM for          <psi|beta>:       0.12 MB

     Dynamical RAM for                 psi:       2.50 MB

     Dynamical RAM for                hpsi:       2.50 MB

     Dynamical RAM for                spsi:       2.50 MB

     Dynamical RAM for      wfcinit/wfcrot:       2.60 MB

     Dynamical RAM for           addusdens:      56.00 MB

     Estimated static dynamical RAM per process >      29.28 MB

     Estimated max dynamical RAM per process >      92.37 MB

     Estimated total dynamical RAM >     710.60 MB

     Check: negative core charge=   -0.000003

     Initial potential from superposition of free atoms

     starting charge      83.4435, renormalised to      84.0000

     negative rho (up, down):  3.643E-01 0.000E+00
     Starting wfcs are   60 randomized atomic wfcs +    4 random wfcs
     Checking if some PAW data can be deallocated... 
       PAW data deallocated on    6 nodes for type:  1

     total cpu time spent up to now is        3.4 secs

     Self-consistent Calculation

     iteration #  1     ecut=    30.00 Ry     beta= 0.70
     Davidson diagonalization with overlap

---- Real-time Memory Report at c_bands before calling an iterative solver
           204 MiB given to the printing process from OS
             0 MiB allocation reported by mallinfo(arena+hblkhd)
         52257 MiB available memory on the node where the printing process lives
------------------
     ethr =  1.00E-02,  avg # of iterations =  7.2

     negative rho (up, down):  3.139E-01 0.000E+00

     total cpu time spent up to now is        5.6 secs

     total energy              =    -812.20043126 Ry
     estimated scf accuracy    <       1.83674840 Ry

     iteration #  2     ecut=    30.00 Ry     beta= 0.70
     Davidson diagonalization with overlap

---- Real-time Memory Report at c_bands before calling an iterative solver
           237 MiB given to the printing process from OS
             0 MiB allocation reported by mallinfo(arena+hblkhd)
         51883 MiB available memory on the node where the printing process lives
------------------
     ethr =  2.19E-03,  avg # of iterations =  2.0

     negative rho (up, down):  3.341E-01 0.000E+00

     total cpu time spent up to now is        7.0 secs

     total energy              =    -812.05191703 Ry
     estimated scf accuracy    <       5.08449821 Ry

     iteration #  3     ecut=    30.00 Ry     beta= 0.70
     Davidson diagonalization with overlap

---- Real-time Memory Report at c_bands before calling an iterative solver
           239 MiB given to the printing process from OS
             0 MiB allocation reported by mallinfo(arena+hblkhd)
         52070 MiB available memory on the node where the printing process lives
------------------
     ethr =  2.19E-03,  avg # of iterations =  2.0

     negative rho (up, down):  3.269E-01 0.000E+00

     total cpu time spent up to now is        8.5 secs

     total energy              =    -813.07258310 Ry
     estimated scf accuracy    <       0.09048739 Ry

     iteration #  4     ecut=    30.00 Ry     beta= 0.70
     Davidson diagonalization with overlap

---- Real-time Memory Report at c_bands before calling an iterative solver
           241 MiB given to the printing process from OS
             0 MiB allocation reported by mallinfo(arena+hblkhd)
         52061 MiB available memory on the node where the printing process lives
------------------
     ethr =  1.08E-04,  avg # of iterations =  8.1

     negative rho (up, down):  3.265E-01 0.000E+00

     total cpu time spent up to now is       10.2 secs

     total energy              =    -813.08402998 Ry
     estimated scf accuracy    <       0.01059655 Ry

     iteration #  5     ecut=    30.00 Ry     beta= 0.70
     Davidson diagonalization with overlap

---- Real-time Memory Report at c_bands before calling an iterative solver
           243 MiB given to the printing process from OS
             0 MiB allocation reported by mallinfo(arena+hblkhd)
         52031 MiB available memory on the node where the printing process lives
------------------
     ethr =  1.26E-05,  avg # of iterations =  2.9

     negative rho (up, down):  3.265E-01 0.000E+00

     total cpu time spent up to now is       11.6 secs

     total energy              =    -813.08615588 Ry
     estimated scf accuracy    <       0.00013552 Ry

     iteration #  6     ecut=    30.00 Ry     beta= 0.70
     Davidson diagonalization with overlap

---- Real-time Memory Report at c_bands before calling an iterative solver
           247 MiB given to the printing process from OS
             0 MiB allocation reported by mallinfo(arena+hblkhd)
         52031 MiB available memory on the node where the printing process lives
------------------
     ethr =  1.61E-07,  avg # of iterations =  5.7

     negative rho (up, down):  3.265E-01 0.000E+00

     total cpu time spent up to now is       13.2 secs

     total energy              =    -813.08617730 Ry
     estimated scf accuracy    <       0.00005465 Ry

     iteration #  7     ecut=    30.00 Ry     beta= 0.70
     Davidson diagonalization with overlap

---- Real-time Memory Report at c_bands before calling an iterative solver
           247 MiB given to the printing process from OS
             0 MiB allocation reported by mallinfo(arena+hblkhd)
         51777 MiB available memory on the node where the printing process lives
------------------
     ethr =  6.51E-08,  avg # of iterations =  2.0

     negative rho (up, down):  3.266E-01 0.000E+00

     total cpu time spent up to now is       14.5 secs

     total energy              =    -813.08618967 Ry
     estimated scf accuracy    <       0.00000685 Ry

     iteration #  8     ecut=    30.00 Ry     beta= 0.70
     Davidson diagonalization with overlap

---- Real-time Memory Report at c_bands before calling an iterative solver
           247 MiB given to the printing process from OS
             0 MiB allocation reported by mallinfo(arena+hblkhd)
         52025 MiB available memory on the node where the printing process lives
------------------
     ethr =  8.16E-09,  avg # of iterations =  2.3

     negative rho (up, down):  3.266E-01 0.000E+00

     total cpu time spent up to now is       15.8 secs

     End of self-consistent calculation

          k = 0.0000 0.0000 0.0000 (  5109 PWs)   bands (ev):

   -47.1730 -47.1281 -46.9067 -27.6777 -27.5819 -27.5516 -21.4854 -21.2568
   -21.2537 -21.1490 -21.1330 -21.0249 -11.2608 -11.2267 -11.1494 -11.1426
   -11.1085 -11.0868 -11.0496 -11.0265 -10.9644  -4.6804  -4.5384  -4.4522
    -3.8731  -3.7941  -3.4934  -3.2093  -3.1196  -3.0122  -2.4192  -2.3262
    -2.2666  -2.1477  -2.1313  -2.0231  -2.0171  -1.9943  -1.9129   1.4302
     1.4585   1.5660   4.0150   4.0739   4.1526   7.3659   7.5225   7.9747
     8.0730   8.1727   8.5521   8.6370   8.7945   9.0455   9.2580   9.3484
     9.5543  10.6237  10.7175  10.8542  10.9049  10.9340  11.0396  11.4333

     occupation numbers 
     1.0000   1.0000   1.0000   1.0000   1.0000   1.0000   1.0000   1.0000
     1.0000   1.0000   1.0000   1.0000   1.0000   1.0000   1.0000   1.0000
     1.0000   1.0000   1.0000   1.0000   1.0000   1.0000   1.0000   1.0000
     1.0000   1.0000   1.0000   1.0000   1.0000   1.0000   1.0000   1.0000
     1.0000   1.0000   1.0000   1.0000   1.0000   1.0000   1.0000   1.0000
     1.0000   1.0000   0.0000   0.0000   0.0000   0.0000   0.0000   0.0000
     0.0000   0.0000   0.0000   0.0000   0.0000   0.0000   0.0000   0.0000
     0.0000   0.0000   0.0000   0.0000   0.0000   0.0000   0.0000   0.0000

          k = 0.0000 0.0000 0.4232 (  5135 PWs)   bands (ev):

   -47.1731 -47.1282 -46.9067 -27.6764 -27.5804 -27.5533 -21.5172 -21.2595
   -21.2387 -21.1546 -21.1225 -21.0111 -11.2586 -11.2032 -11.1644 -11.1236
   -11.1013 -11.0941 -11.0678 -11.0387 -10.9950  -4.6369  -4.5114  -4.4498
    -3.7327  -3.5321  -3.4344  -3.2883  -3.1770  -3.0770  -2.5546  -2.4579
    -2.3309  -2.2009  -2.1613  -2.0997  -2.0496  -1.9182  -1.8666   1.4560
     1.4803   1.5697   3.9729   4.1294   4.9419   6.7300   7.1007   7.4391
     7.7986   8.0361   8.2684   8.5212   8.9230   9.1491   9.5047   9.7012
     9.8479  10.3529  10.4133  10.6220  10.8760  10.9208  11.0229  11.2881

     occupation numbers 
     1.0000   1.0000   1.0000   1.0000   1.0000   1.0000   1.0000   1.0000
     1.0000   1.0000   1.0000   1.0000   1.0000   1.0000   1.0000   1.0000
     1.0000   1.0000   1.0000   1.0000   1.0000   1.0000   1.0000   1.0000
     1.0000   1.0000   1.0000   1.0000   1.0000   1.0000   1.0000   1.0000
     1.0000   1.0000   1.0000   1.0000   1.0000   1.0000   1.0000   1.0000
     1.0000   1.0000   0.0000   0.0000   0.0000   0.0000   0.0000   0.0000
     0.0000   0.0000   0.0000   0.0000   0.0000   0.0000   0.0000   0.0000
     0.0000   0.0000   0.0000   0.0000   0.0000   0.0000   0.0000   0.0000

          k = 0.0000 0.2957 0.2106 (  5124 PWs)   bands (ev):

   -47.1730 -47.1281 -46.9067 -27.6761 -27.5829 -27.5517 -21.5016 -21.2555
   -21.2476 -21.1514 -21.1287 -21.0186 -11.2443 -11.2035 -11.1474 -11.1447
   -11.1292 -11.0943 -11.0587 -11.0398 -10.9710  -4.6520  -4.5328  -4.4306
    -3.8331  -3.6380  -3.4658  -3.2463  -3.1718  -3.0399  -2.5049  -2.3758
    -2.2988  -2.1673  -2.1369  -2.0958  -2.0384  -1.9424  -1.8939   1.4458
     1.4634   1.5686   4.0481   4.0849   4.7561   6.2481   7.4298   7.7416
     7.8911   8.3250   8.5908   8.6866   8.8923   9.0947   9.3709   9.7750
     9.8581  10.0894  10.2551  10.6180  10.7839  10.8828  11.2142  11.4021

     occupation numbers 
     1.0000   1.0000   1.0000   1.0000   1.0000   1.0000   1.0000   1.0000
     1.0000   1.0000   1.0000   1.0000   1.0000   1.0000   1.0000   1.0000
     1.0000   1.0000   1.0000   1.0000   1.0000   1.0000   1.0000   1.0000
     1.0000   1.0000   1.0000   1.0000   1.0000   1.0000   1.0000   1.0000
     1.0000   1.0000   1.0000   1.0000   1.0000   1.0000   1.0000   1.0000
     1.0000   1.0000   0.0000   0.0000   0.0000   0.0000   0.0000   0.0000
     0.0000   0.0000   0.0000   0.0000   0.0000   0.0000   0.0000   0.0000
     0.0000   0.0000   0.0000   0.0000   0.0000   0.0000   0.0000   0.0000

          k = 0.0000 0.2957 0.6338 (  5132 PWs)   bands (ev):

   -47.1730 -47.1282 -46.9067 -27.6759 -27.5811 -27.5533 -21.5166 -21.2598
   -21.2388 -21.1539 -21.1226 -21.0119 -11.2450 -11.1981 -11.1763 -11.1281
   -11.1183 -11.0968 -11.0552 -11.0360 -10.9934  -4.6342  -4.5096  -4.4299
    -3.7275  -3.5533  -3.4325  -3.2762  -3.1928  -3.0880  -2.5615  -2.4520
    -2.3342  -2.1973  -2.1593  -2.1208  -2.0518  -1.9121  -1.8618   1.4539
     1.4787   1.5705   4.0233   4.1263   5.6286   6.0105   6.2098   7.6017
     8.1623   8.2677   8.6876   8.7466   8.8607   9.1014   9.2876   9.6373
     9.7862  10.2158  10.2439  10.4272  11.0139  11.1763  11.2716  11.3610

     occupation numbers 
     1.0000   1.0000   1.0000   1.0000   1.0000   1.0000   1.0000   1.0000
     1.0000   1.0000   1.0000   1.0000   1.0000   1.0000   1.0000   1.0000
     1.0000   1.0000   1.0000   1.0000   1.0000   1.0000   1.0000   1.0000
     1.0000   1.0000   1.0000   1.0000   1.0000   1.0000   1.0000   1.0000
     1.0000   1.0000   1.0000   1.0000   1.0000   1.0000   1.0000   1.0000
     1.0000   1.0000   0.0000   0.0000   0.0000   0.0000   0.0000   0.0000
     0.0000   0.0000   0.0000   0.0000   0.0000   0.0000   0.0000   0.0000
     0.0000   0.0000   0.0000   0.0000   0.0000   0.0000   0.0000   0.0000

          k = 0.0000 0.2957-0.2125 (  5115 PWs)   bands (ev):

   -47.1730 -47.1281 -46.9067 -27.6769 -27.5807 -27.5530 -21.5006 -21.2578
   -21.2478 -21.1502 -21.1281 -21.0187 -11.2447 -11.2176 -11.1435 -11.1289
   -11.1149 -11.0901 -11.0661 -11.0394 -10.9870  -4.6607  -4.5144  -4.4304
    -3.8371  -3.6320  -3.4604  -3.2505  -3.1598  -3.0572  -2.4791  -2.4362
    -2.2686  -2.1760  -2.1323  -2.0968  -2.0354  -1.9583  -1.8785   1.4349
     1.4726   1.5695   4.0423   4.1058   4.7561   6.2247   7.4230   7.7302
     7.8783   8.3296   8.6229   8.7443   8.9222   9.1024   9.3325   9.7489
     9.8166  10.2125  10.3340  10.6059  10.7410  10.8076  11.2323  11.4500

     occupation numbers 
     1.0000   1.0000   1.0000   1.0000   1.0000   1.0000   1.0000   1.0000
     1.0000   1.0000   1.0000   1.0000   1.0000   1.0000   1.0000   1.0000
     1.0000   1.0000   1.0000   1.0000   1.0000   1.0000   1.0000   1.0000
     1.0000   1.0000   1.0000   1.0000   1.0000   1.0000   1.0000   1.0000
     1.0000   1.0000   1.0000   1.0000   1.0000   1.0000   1.0000   1.0000
     1.0000   1.0000   0.0000   0.0000   0.0000   0.0000   0.0000   0.0000
     0.0000   0.0000   0.0000   0.0000   0.0000   0.0000   0.0000   0.0000
     0.0000   0.0000   0.0000   0.0000   0.0000   0.0000   0.0000   0.0000

          k = 0.3333 0.1189-0.0048 (  5120 PWs)   bands (ev):

   -47.1731 -47.1281 -46.9067 -27.6773 -27.5805 -27.5529 -21.5014 -21.2570
   -21.2498 -21.1500 -21.1212 -21.0239 -11.2581 -11.2124 -11.1415 -11.1242
   -11.0988 -11.0948 -11.0627 -11.0390 -10.9999  -4.6544  -4.5198  -4.4428
    -3.7720  -3.7119  -3.4564  -3.2530  -3.1757  -3.0244  -2.4959  -2.3747
    -2.3290  -2.2368  -2.0710  -2.0570  -2.0211  -1.9798  -1.8917   1.4379
     1.4696   1.5694   4.0207   4.1176   4.7225   6.1324   7.5221   7.8241
     7.8828   8.3662   8.6175   8.6970   9.0485   9.1058   9.2274   9.6697
     9.8829  10.2383  10.3827  10.5444  10.8628  10.9546  11.2736  11.3990

     occupation numbers 
     1.0000   1.0000   1.0000   1.0000   1.0000   1.0000   1.0000   1.0000
     1.0000   1.0000   1.0000   1.0000   1.0000   1.0000   1.0000   1.0000
     1.0000   1.0000   1.0000   1.0000   1.0000   1.0000   1.0000   1.0000
     1.0000   1.0000   1.0000   1.0000   1.0000   1.0000   1.0000   1.0000
     1.0000   1.0000   1.0000   1.0000   1.0000   1.0000   1.0000   1.0000
     1.0000   1.0000   0.0000   0.0000   0.0000   0.0000   0.0000   0.0000
     0.0000   0.0000   0.0000   0.0000   0.0000   0.0000   0.0000   0.0000
     0.0000   0.0000   0.0000   0.0000   0.0000   0.0000   0.0000   0.0000

          k = 0.3333 0.1189 0.4183 (  5135 PWs)   bands (ev):

   -47.1731 -47.1281 -46.9067 -27.6763 -27.5807 -27.5527 -21.5338 -21.2636
   -21.2296 -21.1560 -21.1107 -21.0099 -11.2635 -11.2157 -11.1795 -11.1285
   -11.1010 -11.0884 -11.0762 -11.0422 -10.9617  -4.6234  -4.5220  -4.4455
    -3.5824  -3.5070  -3.3955  -3.3120  -3.2003  -3.0891  -2.6241  -2.4670
    -2.4052  -2.2812  -2.1706  -2.1219  -1.9806  -1.9080  -1.8493   1.4671
     1.4968   1.5737   3.9613   4.0226   5.4671   6.6803   6.8697   7.1517
     7.3853   7.8863   8.4254   8.4919   9.0789   9.2264   9.4090   9.5950
     9.7368  10.2925  10.6512  10.7476  10.9253  11.0629  11.2192  11.3611

     occupation numbers 
     1.0000   1.0000   1.0000   1.0000   1.0000   1.0000   1.0000   1.0000
     1.0000   1.0000   1.0000   1.0000   1.0000   1.0000   1.0000   1.0000
     1.0000   1.0000   1.0000   1.0000   1.0000   1.0000   1.0000   1.0000
     1.0000   1.0000   1.0000   1.0000   1.0000   1.0000   1.0000   1.0000
     1.0000   1.0000   1.0000   1.0000   1.0000   1.0000   1.0000   1.0000
     1.0000   1.0000   0.0000   0.0000   0.0000   0.0000   0.0000   0.0000
     0.0000   0.0000   0.0000   0.0000   0.0000   0.0000   0.0000   0.0000
     0.0000   0.0000   0.0000   0.0000   0.0000   0.0000   0.0000   0.0000

          k = 0.3333 0.1189-0.4280 (  5150 PWs)   bands (ev):

   -47.1731 -47.1282 -46.9068 -27.6764 -27.5800 -27.5534 -21.5335 -21.2636
   -21.2303 -21.1560 -21.1105 -21.0100 -11.2624 -11.2089 -11.1768 -11.1206
   -11.1138 -11.0992 -11.0729 -11.0537 -10.9492  -4.6331  -4.5065  -4.4445
    -3.5776  -3.5101  -3.3999  -3.2808  -3.2379  -3.0922  -2.6294  -2.4631
    -2.4152  -2.2750  -2.1717  -2.1266  -1.9798  -1.9077  -1.8493   1.4678
     1.4943   1.5724   3.9520   4.0455   5.5020   6.5880   6.8348   7.2026
     7.4202   7.9462   8.4044   8.4583   9.0801   9.2322   9.4014   9.5424
     9.7810  10.3664  10.5773  10.7425  10.9374  11.0617  11.2010  11.4492

     occupation numbers 
     1.0000   1.0000   1.0000   1.0000   1.0000   1.0000   1.0000   1.0000
     1.0000   1.0000   1.0000   1.0000   1.0000   1.0000   1.0000   1.0000
     1.0000   1.0000   1.0000   1.0000   1.0000   1.0000   1.0000   1.0000
     1.0000   1.0000   1.0000   1.0000   1.0000   1.0000   1.0000   1.0000
     1.0000   1.0000   1.0000   1.0000   1.0000   1.0000   1.0000   1.0000
     1.0000   1.0000   0.0000   0.0000   0.0000   0.0000   0.0000   0.0000
     0.0000   0.0000   0.0000   0.0000   0.0000   0.0000   0.0000   0.0000
     0.0000   0.0000   0.0000   0.0000   0.0000   0.0000   0.0000   0.0000

          k = 0.3333 0.4145 0.2058 (  5130 PWs)   bands (ev):

   -47.1730 -47.1281 -46.9067 -27.6760 -27.5813 -27.5529 -21.5176 -21.2591
   -21.2393 -21.1526 -21.1174 -21.0175 -11.2461 -11.2083 -11.1703 -11.1271
   -11.1198 -11.0968 -11.0604 -11.0350 -10.9814  -4.6367  -4.5134  -4.4206
    -3.7102  -3.5909  -3.4314  -3.2738  -3.2190  -3.0617  -2.5814  -2.3874
    -2.3588  -2.2650  -2.1591  -2.0635  -2.0204  -1.9376  -1.8686   1.4538
     1.4781   1.5705   4.0301   4.1211   5.5443   6.0780   6.2383   7.6024
     8.1355   8.3269   8.5837   8.6989   8.8978   9.1007   9.2871   9.7126
     9.8517  10.2012  10.2408  10.4541  10.9747  11.1838  11.2785  11.4066

     occupation numbers 
     1.0000   1.0000   1.0000   1.0000   1.0000   1.0000   1.0000   1.0000
     1.0000   1.0000   1.0000   1.0000   1.0000   1.0000   1.0000   1.0000
     1.0000   1.0000   1.0000   1.0000   1.0000   1.0000   1.0000   1.0000
     1.0000   1.0000   1.0000   1.0000   1.0000   1.0000   1.0000   1.0000
     1.0000   1.0000   1.0000   1.0000   1.0000   1.0000   1.0000   1.0000
     1.0000   1.0000   0.0000   0.0000   0.0000   0.0000   0.0000   0.0000
     0.0000   0.0000   0.0000   0.0000   0.0000   0.0000   0.0000   0.0000
     0.0000   0.0000   0.0000   0.0000   0.0000   0.0000   0.0000   0.0000

          k = 0.3333 0.4145 0.6290 (  5131 PWs)   bands (ev):

   -47.1730 -47.1282 -46.9067 -27.6759 -27.5812 -27.5526 -21.5332 -21.2639
   -21.2300 -21.1552 -21.1106 -21.0106 -11.2485 -11.2016 -11.1915 -11.1348
   -11.1043 -11.0892 -11.0730 -11.0478 -10.9671  -4.6332  -4.5226  -4.4224
    -3.5495  -3.5286  -3.3969  -3.2922  -3.2248  -3.0986  -2.6263  -2.4628
    -2.4149  -2.2710  -2.1678  -2.1430  -1.9865  -1.9042  -1.8441   1.4657
     1.4969   1.5745   3.9793   4.0128   5.5944   6.6564   6.7313   7.1586
     7.2597   8.0259   8.4526   8.4858   9.1128   9.2186   9.3796   9.6318
     9.7178  10.3501  10.6427  10.6860  10.9129  11.0863  11.1241  11.3278

     occupation numbers 
     1.0000   1.0000   1.0000   1.0000   1.0000   1.0000   1.0000   1.0000
     1.0000   1.0000   1.0000   1.0000   1.0000   1.0000   1.0000   1.0000
     1.0000   1.0000   1.0000   1.0000   1.0000   1.0000   1.0000   1.0000
     1.0000   1.0000   1.0000   1.0000   1.0000   1.0000   1.0000   1.0000
     1.0000   1.0000   1.0000   1.0000   1.0000   1.0000   1.0000   1.0000
     1.0000   1.0000   0.0000   0.0000   0.0000   0.0000   0.0000   0.0000
     0.0000   0.0000   0.0000   0.0000   0.0000   0.0000   0.0000   0.0000
     0.0000   0.0000   0.0000   0.0000   0.0000   0.0000   0.0000   0.0000

          k = 0.3333 0.4145-0.2173 (  5122 PWs)   bands (ev):

   -47.1731 -47.1281 -46.9067 -27.6766 -27.5803 -27.5534 -21.5165 -21.2615
   -21.2407 -21.1514 -21.1157 -21.0175 -11.2434 -11.2000 -11.1408 -11.1361
   -11.1256 -11.1016 -11.0901 -11.0515 -10.9553  -4.6357  -4.5099  -4.4221
    -3.7201  -3.5797  -3.4245  -3.2805  -3.2016  -3.0713  -2.5533  -2.4500
    -2.3718  -2.2456  -2.1450  -2.0559  -2.0330  -1.9421  -1.8534   1.4432
     1.4890   1.5732   4.0631   4.0848   5.5697   6.0587   6.1641   7.6316
     8.1821   8.3595   8.6252   8.6814   8.8965   9.1321   9.2813   9.6568
     9.9597  10.2168  10.2697  10.3178  10.9361  11.1608  11.3344  11.4553

     occupation numbers 
     1.0000   1.0000   1.0000   1.0000   1.0000   1.0000   1.0000   1.0000
     1.0000   1.0000   1.0000   1.0000   1.0000   1.0000   1.0000   1.0000
     1.0000   1.0000   1.0000   1.0000   1.0000   1.0000   1.0000   1.0000
     1.0000   1.0000   1.0000   1.0000   1.0000   1.0000   1.0000   1.0000
     1.0000   1.0000   1.0000   1.0000   1.0000   1.0000   1.0000   1.0000
     1.0000   1.0000   0.0000   0.0000   0.0000   0.0000   0.0000   0.0000
     0.0000   0.0000   0.0000   0.0000   0.0000   0.0000   0.0000   0.0000
     0.0000   0.0000   0.0000   0.0000   0.0000   0.0000   0.0000   0.0000

          k = 0.3333-0.1768-0.2155 (  5114 PWs)   bands (ev):

   -47.1730 -47.1281 -46.9067 -27.6761 -27.5813 -27.5529 -21.5175 -21.2591
   -21.2394 -21.1525 -21.1170 -21.0175 -11.2462 -11.2012 -11.1639 -11.1285
   -11.1144 -11.0930 -11.0686 -11.0324 -10.9969  -4.6454  -4.5142  -4.4221
    -3.7101  -3.5636  -3.4338  -3.2573  -3.2313  -3.0617  -2.5811  -2.3961
    -2.3573  -2.2516  -2.1547  -2.0664  -2.0220  -1.9385  -1.8680   1.4550
     1.4798   1.5703   3.9954   4.1172   4.9819   6.7509   7.0022   7.3674
     7.9576   8.0746   8.1309   8.5499   9.0091   9.1619   9.4020   9.7686
     9.8446  10.3572  10.4090  10.5141  10.8272  10.8985  11.0649  11.3769

     occupation numbers 
     1.0000   1.0000   1.0000   1.0000   1.0000   1.0000   1.0000   1.0000
     1.0000   1.0000   1.0000   1.0000   1.0000   1.0000   1.0000   1.0000
     1.0000   1.0000   1.0000   1.0000   1.0000   1.0000   1.0000   1.0000
     1.0000   1.0000   1.0000   1.0000   1.0000   1.0000   1.0000   1.0000
     1.0000   1.0000   1.0000   1.0000   1.0000   1.0000   1.0000   1.0000
     1.0000   1.0000   0.0000   0.0000   0.0000   0.0000   0.0000   0.0000
     0.0000   0.0000   0.0000   0.0000   0.0000   0.0000   0.0000   0.0000
     0.0000   0.0000   0.0000   0.0000   0.0000   0.0000   0.0000   0.0000

          k = 0.3333-0.1768 0.2077 (  5122 PWs)   bands (ev):

   -47.1731 -47.1281 -46.9067 -27.6766 -27.5810 -27.5527 -21.5170 -21.2617
   -21.2401 -21.1516 -21.1155 -21.0174 -11.2436 -11.2032 -11.1390 -11.1361
   -11.1159 -11.0937 -11.0869 -11.0462 -10.9809  -4.6380  -4.5272  -4.4234
    -3.7208  -3.5531  -3.4247  -3.2982  -3.1758  -3.0709  -2.5471  -2.4602
    -2.3680  -2.2472  -2.1360  -2.0633  -2.0324  -1.9435  -1.8536   1.4444
     1.4922   1.5736   4.0201   4.0776   4.9618   6.7782   6.9068   7.3718
     7.9578   8.1289   8.2346   8.5067   8.9926   9.2179   9.3919   9.7878
     9.9156  10.2617  10.4706  10.5973  10.7278  10.8624  11.0734  11.3798

     occupation numbers 
     1.0000   1.0000   1.0000   1.0000   1.0000   1.0000   1.0000   1.0000
     1.0000   1.0000   1.0000   1.0000   1.0000   1.0000   1.0000   1.0000
     1.0000   1.0000   1.0000   1.0000   1.0000   1.0000   1.0000   1.0000
     1.0000   1.0000   1.0000   1.0000   1.0000   1.0000   1.0000   1.0000
     1.0000   1.0000   1.0000   1.0000   1.0000   1.0000   1.0000   1.0000
     1.0000   1.0000   0.0000   0.0000   0.0000   0.0000   0.0000   0.0000
     0.0000   0.0000   0.0000   0.0000   0.0000   0.0000   0.0000   0.0000
     0.0000   0.0000   0.0000   0.0000   0.0000   0.0000   0.0000   0.0000

          k = 0.3333-0.1768-0.6386 (  5140 PWs)   bands (ev):

   -47.1731 -47.1282 -46.9067 -27.6758 -27.5805 -27.5535 -21.5327 -21.2636
   -21.2304 -21.1553 -21.1109 -21.0107 -11.2483 -11.2121 -11.1931 -11.1337
   -11.1233 -11.1007 -11.0640 -11.0407 -10.9407  -4.6210  -4.5053  -4.4217
    -3.5924  -3.5397  -3.4010  -3.2833  -3.2233  -3.1039  -2.6387  -2.4575
    -2.4047  -2.2823  -2.1720  -2.1523  -1.9729  -1.9011  -1.8394   1.4649
     1.4949   1.5727   4.0286   4.0956   6.1039   6.2106   6.3304   6.9357
     7.7906   7.9192   8.1004   8.4869   9.3680   9.4229   9.5357   9.6212
     9.7574   9.9163  10.3649  10.4520  10.9574  11.1038  11.2487  11.3608

     occupation numbers 
     1.0000   1.0000   1.0000   1.0000   1.0000   1.0000   1.0000   1.0000
     1.0000   1.0000   1.0000   1.0000   1.0000   1.0000   1.0000   1.0000
     1.0000   1.0000   1.0000   1.0000   1.0000   1.0000   1.0000   1.0000
     1.0000   1.0000   1.0000   1.0000   1.0000   1.0000   1.0000   1.0000
     1.0000   1.0000   1.0000   1.0000   1.0000   1.0000   1.0000   1.0000
     1.0000   1.0000   0.0000   0.0000   0.0000   0.0000   0.0000   0.0000
     0.0000   0.0000   0.0000   0.0000   0.0000   0.0000   0.0000   0.0000
     0.0000   0.0000   0.0000   0.0000   0.0000   0.0000   0.0000   0.0000

     highest occupied, lowest unoccupied level (ev):     1.5745    3.9520

!    total energy              =    -813.08619089 Ry
     estimated scf accuracy    <       0.00000006 Ry

     The total energy is the sum of the following terms:
     one-electron contribution =    -647.44580781 Ry
     hartree contribution      =     355.52628260 Ry
     xc contribution           =    -140.42998414 Ry
     ewald contribution        =    -214.48390553 Ry
     one-center paw contrib.   =    -166.25277600 Ry
      -> PAW hartree energy AE =      75.55282794 Ry
      -> PAW hartree energy PS =     -75.13201742 Ry
      -> PAW xc energy AE      =    -132.45748622 Ry
      -> PAW xc energy PS      =      21.20155181 Ry
      -> total E_H with PAW    =     355.94709311 Ry
      -> total E_XC with PAW   =    -251.68591855 Ry

     convergence has been achieved in   8 iterations

     Writing all to output data dir calculations_bands/myprefix.save/
 
     init_run     :      9.28s CPU      3.04s WALL (       1 calls)
     electrons    :     46.47s CPU     12.47s WALL (       1 calls)

     Called by init_run:
     wfcinit      :      1.21s CPU      0.31s WALL (       1 calls)
     wfcinit:atom :      0.01s CPU      0.00s WALL (       7 calls)
     wfcinit:wfcr :      1.16s CPU      0.30s WALL (       7 calls)
     potinit      :      2.50s CPU      0.65s WALL (       1 calls)
     hinit0       :      3.87s CPU      1.58s WALL (       1 calls)

     Called by electrons:
     c_bands      :     30.14s CPU      7.83s WALL (       8 calls)
     sum_band     :      6.69s CPU      1.94s WALL (       8 calls)
     v_of_rho     :      1.00s CPU      0.27s WALL (       9 calls)
     v_h          :      0.07s CPU      0.02s WALL (       9 calls)
     v_xc         :      0.94s CPU      0.25s WALL (       9 calls)
     newd         :      3.79s CPU      1.16s WALL (       9 calls)
     PAW_pot      :      5.48s CPU      1.44s WALL (       9 calls)
     mix_rho      :      0.21s CPU      0.06s WALL (       8 calls)

     Called by c_bands:
     init_us_2    :      0.18s CPU      0.05s WALL (     119 calls)
     init_us_2:cp :      0.17s CPU      0.05s WALL (     119 calls)
     cegterg      :     27.60s CPU      7.17s WALL (      56 calls)

     Called by sum_band:
     sum_band:wei :      0.01s CPU      0.00s WALL (       8 calls)
     sum_band:loo :      4.11s CPU      1.08s WALL (       8 calls)
     sum_band:buf :      0.06s CPU      0.02s WALL (      56 calls)
     sum_band:ini :      0.07s CPU      0.02s WALL (      56 calls)
     sum_band:cal :      0.18s CPU      0.05s WALL (      56 calls)
     sum_band:bec :      0.02s CPU      0.01s WALL (      56 calls)
     addusdens    :      1.85s CPU      0.66s WALL (       8 calls)
     addusd:skk   :      0.04s CPU      0.01s WALL (      24 calls)
     addusd:dgemm :      0.20s CPU      0.19s WALL (      24 calls)
     addusd:qvan2 :      0.96s CPU      0.25s WALL (      24 calls)

     Called by *egterg:
     cdiaghg      :      4.48s CPU      1.17s WALL (     282 calls)
     cegterg:over :      0.99s CPU      0.26s WALL (     226 calls)
     cegterg:upda :      0.57s CPU      0.15s WALL (     226 calls)
     cegterg:last :      0.94s CPU      0.24s WALL (     119 calls)
     cdiaghg:chol :      0.35s CPU      0.09s WALL (     282 calls)
     cdiaghg:inve :      0.06s CPU      0.02s WALL (     282 calls)
     cdiaghg:para :      0.69s CPU      0.18s WALL (     564 calls)
     h_psi        :     20.80s CPU      5.38s WALL (     289 calls)
     s_psi        :      0.33s CPU      0.09s WALL (     289 calls)
     g_psi        :      0.04s CPU      0.01s WALL (     226 calls)

     Called by h_psi:
     h_psi:calbec :      0.67s CPU      0.18s WALL (     289 calls)
     vloc_psi     :     19.64s CPU      5.08s WALL (     289 calls)
     add_vuspsi   :      0.42s CPU      0.11s WALL (     289 calls)

     General routines
     calbec       :      0.84s CPU      0.22s WALL (     345 calls)
     fft          :      1.58s CPU      0.42s WALL (     115 calls)
     ffts         :      0.59s CPU      0.15s WALL (      17 calls)
     fftw         :     21.17s CPU      5.50s WALL (   22920 calls)
     interpolate  :      0.63s CPU      0.17s WALL (       9 calls)
 
     Parallel routines

     PAW routines
     PAW_pot      :      5.48s CPU      1.44s WALL (       9 calls)
     PAW_symme    :      0.03s CPU      0.01s WALL (      17 calls)
 
     PWSCF        :     57.47s CPU     16.46s WALL

 
   This run was terminated on:   4:36: 7   7Jun2023            

=------------------------------------------------------------------------------=
   JOB DONE.
=------------------------------------------------------------------------------=
