
     Program PWSCF v.7.1 starts on 16Jul2023 at 13: 0: 5 

     This program is part of the open-source Quantum ESPRESSO suite
     for quantum simulation of materials; please cite
         "P. Giannozzi et al., J. Phys.:Condens. Matter 21 395502 (2009);
         "P. Giannozzi et al., J. Phys.:Condens. Matter 29 465901 (2017);
         "P. Giannozzi et al., J. Chem. Phys. 152 154105 (2020);
          URL http://www.quantum-espresso.org", 
     in publications or presentations arising from this work. More details at
     http://www.quantum-espresso.org/quote

     Parallel version (MPI & OpenMP), running on      32 processor cores
     Number of MPI processes:                 8
     Threads/MPI process:                     4

     MPI processes distributed on     1 nodes
     189999 MiB available memory on the printing compute node when the environment starts
 
     Reading input from espresso_26096.pwi
Warning: card &CELL ignored
Warning: card / ignored

     Current dimensions of program PWSCF are:
     Max number of different atomic species (ntypx) = 10
     Max number of k-points (npk) =  40000
     Max angular momentum in pseudopotentials (lmaxx) =  4
     file Ho.paw.z_21.atompaw.wentzcovitch.v1.2.upf: wavefunction(s)  6S 0P 5D 0D 4F 0F renormalized
     Message from routine setup:
     using ibrav=0 with symmetry is DISCOURAGED, use correct ibrav instead
 
     K-points division:     npool     =       2
     R & G space division:  proc/nbgrp/npool/nimage =       4
     Subspace diagonalization in iterative solution of the eigenvalue problem:
     a serial algorithm will be used

 
     Parallelization info
     --------------------
     sticks:   dense  smooth     PW     G-vecs:    dense   smooth      PW
     Min         500     250     77                10934     3877     669
     Max         501     251     78                10935     3878     670
     Sum        2001    1003    311                43739    15509    2677
 
     Using Slab Decomposition
 


     bravais-lattice index     =            0
     lattice parameter (alat)  =      13.9444  a.u.
     unit-cell volume          =     696.0380 (a.u.)^3
     number of atoms/cell      =            4
     number of atomic types    =            3
     number of electrons       =        42.00
     number of Kohn-Sham states=           64
     kinetic-energy cutoff     =      30.0000  Ry
     charge density cutoff     =     240.0000  Ry
     scf convergence threshold =      1.0E-06
     mixing beta               =       0.7000
     number of iterations used =            8  plain     mixing
     Exchange-correlation= SLA  PW   PBE  PBE
                           (   1   4   3   4   0   0   0)

     celldm(1)=  13.944388  celldm(2)=   0.000000  celldm(3)=   0.000000
     celldm(4)=   0.000000  celldm(5)=   0.000000  celldm(6)=   0.000000

     crystal axes: (cart. coord. in units of alat)
               a(1) = (   1.000000   0.000000   0.000000 )  
               a(2) = (   0.843390   0.537301   0.000000 )  
               a(3) = (   0.843390   0.245827   0.477768 )  

     reciprocal axes: (cart. coord. in units 2 pi/alat)
               b(1) = (  1.000000 -1.569679 -0.957623 )  
               b(2) = (  0.000000  1.861153 -0.957623 )  
               b(3) = (  0.000000  0.000000  2.093068 )  


     PseudoPot. # 1 for Na read from file:
     /lustre07/scratch/pragov/crystal_structure_design/utils/SSSP/na_pbe_v1.5.uspp.F.UPF
     MD5 check sum: 44600605ef58000f06b90626533354dc
     Pseudo is Ultrasoft, Zval =  9.0
     Generated by new atomic code, or converted to UPF format
     Using radial grid of  819 points,  5 beta functions with: 
                l(1) =   0
                l(2) =   0
                l(3) =   1
                l(4) =   1
                l(5) =   2
     Q(r) pseudized with  8 coefficients,  rinner =    1.250   1.250   1.250
                                                       1.250   1.250

     PseudoPot. # 2 for Ho read from file:
     /lustre07/scratch/pragov/crystal_structure_design/utils/SSSP/Ho.paw.z_21.atompaw.wentzcovitch.v1.2.upf
     MD5 check sum: f900adcc49abc9ab8113872cdbacec3e
     Pseudo is Projector augmented-wave + core cor, Zval = 21.0
     Generated using ATOMPAW code
     Shape of augmentation charge: BESSEL
     Using radial grid of 1114 points,  8 beta functions with: 
                l(1) =   0
                l(2) =   0
                l(3) =   1
                l(4) =   1
                l(5) =   2
                l(6) =   2
                l(7) =   3
                l(8) =   3
     Q(r) pseudized with 0 coefficients 


     PseudoPot. # 3 for Se read from file:
     /lustre07/scratch/pragov/crystal_structure_design/utils/SSSP/Se_pbe_v1.uspp.F.UPF
     MD5 check sum: 1b3568f3a8ae88f9a2a0ad0698632c85
     Pseudo is Ultrasoft + core correction, Zval =  6.0
     Generated by new atomic code, or converted to UPF format
     Using radial grid of  877 points,  6 beta functions with: 
                l(1) =   0
                l(2) =   0
                l(3) =   1
                l(4) =   1
                l(5) =   2
                l(6) =   2
     Q(r) pseudized with  8 coefficients,  rinner =    1.300   1.300   1.300
                                                       1.300   1.300

     atomic species   valence    mass     pseudopotential
        Na             9.00    22.98977     Na( 1.00)
        Ho            21.00   164.93033     Ho( 1.00)
        Se             6.00    78.97100     Se( 1.00)

      2 Sym. Ops., with inversion, found


                                    s                        frac. trans.

      isym =  1     identity                                     

 cryst.   s( 1) = (     1          0          0      )
                  (     0          1          0      )
                  (     0          0          1      )

 cart.    s( 1) = (  1.0000000 -0.0000000  0.0000000 )
                  (  0.0000000  1.0000000  0.0000000 )
                  (  0.0000000  0.0000000  1.0000000 )


      isym =  2     inversion                                    

 cryst.   s( 2) = (    -1          0          0      )
                  (     0         -1          0      )
                  (     0          0         -1      )

 cart.    s( 2) = ( -1.0000000  0.0000000 -0.0000000 )
                  (  0.0000000 -1.0000000 -0.0000000 )
                  (  0.0000000  0.0000000 -1.0000000 )


   Cartesian axes

     site n.     atom                  positions (alat units)
         1           Na  tau(   1) = (   1.3433904   0.3915641   0.2388838  )
         2           Ho  tau(   2) = (   0.0000000   0.0000000   0.0000000  )
         3           Se  tau(   3) = (   1.9967242   0.5819942   0.3550606  )
         4           Se  tau(   4) = (   0.6900567   0.2011339   0.1227070  )

   Crystallographic axes

     site n.     atom                  positions (cryst. coord.)
         1           Na  tau(   1) = (  0.5000000  0.5000000  0.5000000  )
         2           Ho  tau(   2) = (  0.0000000  0.0000000  0.0000000  )
         3           Se  tau(   3) = (  0.7431660  0.7431660  0.7431660  )
         4           Se  tau(   4) = (  0.2568340  0.2568340  0.2568340  )

     number of k points=    14
                       cart. coord. in units 2pi/alat
        k(    1) = (   0.0000000   0.0000000   0.0000000), wk =   0.0740741
        k(    2) = (   0.0000000   0.0000000   0.6976893), wk =   0.1481481
        k(    3) = (   0.0000000   0.6203844  -0.3192078), wk =   0.1481481
        k(    4) = (   0.0000000   0.6203844   0.3784815), wk =   0.1481481
        k(    5) = (   0.0000000   0.6203844  -1.0168971), wk =   0.1481481
        k(    6) = (   0.3333333  -0.5232262  -0.3192078), wk =   0.1481481
        k(    7) = (   0.3333333  -0.5232262   0.3784815), wk =   0.1481481
        k(    8) = (   0.3333333  -0.5232262  -1.0168971), wk =   0.1481481
        k(    9) = (   0.3333333   0.0971582  -0.6384155), wk =   0.1481481
        k(   10) = (   0.3333333   0.0971582   0.0592738), wk =   0.1481481
        k(   11) = (   0.3333333   0.0971582  -1.3361048), wk =   0.1481481
        k(   12) = (   0.3333333  -1.1436106  -0.0000000), wk =   0.1481481
        k(   13) = (   0.3333333  -1.1436106   0.6976893), wk =   0.1481481
        k(   14) = (   0.3333333  -1.1436106  -0.6976893), wk =   0.1481481

                       cryst. coord.
        k(    1) = (   0.0000000   0.0000000   0.0000000), wk =   0.0740741
        k(    2) = (   0.0000000   0.0000000   0.3333333), wk =   0.1481481
        k(    3) = (   0.0000000   0.3333333   0.0000000), wk =   0.1481481
        k(    4) = (   0.0000000   0.3333333   0.3333333), wk =   0.1481481
        k(    5) = (   0.0000000   0.3333333  -0.3333333), wk =   0.1481481
        k(    6) = (   0.3333333   0.0000000   0.0000000), wk =   0.1481481
        k(    7) = (   0.3333333   0.0000000   0.3333333), wk =   0.1481481
        k(    8) = (   0.3333333   0.0000000  -0.3333333), wk =   0.1481481
        k(    9) = (   0.3333333   0.3333333   0.0000000), wk =   0.1481481
        k(   10) = (   0.3333333   0.3333333   0.3333333), wk =   0.1481481
        k(   11) = (   0.3333333   0.3333333  -0.3333333), wk =   0.1481481
        k(   12) = (   0.3333333  -0.3333333   0.0000000), wk =   0.1481481
        k(   13) = (   0.3333333  -0.3333333   0.3333333), wk =   0.1481481
        k(   14) = (   0.3333333  -0.3333333  -0.3333333), wk =   0.1481481

     Dense  grid:    43739 G-vectors     FFT dimensions: (  72,  72,  72)

     Smooth grid:    15509 G-vectors     FFT dimensions: (  50,  50,  50)

     Dynamical RAM for                 wfc:       0.47 MB

     Dynamical RAM for     wfc (w. buffer):       3.77 MB

     Dynamical RAM for           str. fact:       0.50 MB

     Dynamical RAM for           local pot:       0.00 MB

     Dynamical RAM for          nlocal pot:       0.60 MB

     Dynamical RAM for                qrad:       8.96 MB

     Dynamical RAM for          rho,v,vnew:       2.64 MB

     Dynamical RAM for               rhoin:       0.88 MB

     Dynamical RAM for            rho*nmix:       2.67 MB

     Dynamical RAM for           G-vectors:       0.66 MB

     Dynamical RAM for          h,s,v(r/c):       0.75 MB

     Dynamical RAM for          <psi|beta>:       0.08 MB

     Dynamical RAM for                 psi:       0.94 MB

     Dynamical RAM for                hpsi:       0.94 MB

     Dynamical RAM for                spsi:       0.94 MB

     Dynamical RAM for      wfcinit/wfcrot:       1.04 MB

     Dynamical RAM for           addusdens:      46.55 MB

     Estimated static dynamical RAM per process >      22.22 MB

     Estimated max dynamical RAM per process >      71.43 MB

     Estimated total dynamical RAM >     560.80 MB

     Initial potential from superposition of free atoms

     starting charge      41.9893, renormalised to      42.0000
     Starting wfcs are   45 randomized atomic wfcs +   19 random wfcs
     Checking if some PAW data can be deallocated... 
       PAW data deallocated on    6 nodes for type:  2

     total cpu time spent up to now is        1.7 secs

     Self-consistent Calculation

     iteration #  1     ecut=    30.00 Ry     beta= 0.70
     Davidson diagonalization with overlap

---- Real-time Memory Report at c_bands before calling an iterative solver
           255 MiB given to the printing process from OS
             0 MiB allocation reported by mallinfo(arena+hblkhd)
        189602 MiB available memory on the node where the printing process lives
------------------
     ethr =  1.00E-02,  avg # of iterations =  7.3

     total cpu time spent up to now is        4.4 secs

     total energy              =   -1003.04453467 Ry
     estimated scf accuracy    <       7.77408779 Ry

     iteration #  2     ecut=    30.00 Ry     beta= 0.70
     Davidson diagonalization with overlap

---- Real-time Memory Report at c_bands before calling an iterative solver
           281 MiB given to the printing process from OS
             0 MiB allocation reported by mallinfo(arena+hblkhd)
        189452 MiB available memory on the node where the printing process lives
------------------
     ethr =  1.00E-02,  avg # of iterations =  3.1

     total cpu time spent up to now is        7.3 secs

     total energy              =   -1012.50656426 Ry
     estimated scf accuracy    <     185.44707052 Ry

     iteration #  3     ecut=    30.00 Ry     beta= 0.70
     Davidson diagonalization with overlap

---- Real-time Memory Report at c_bands before calling an iterative solver
           285 MiB given to the printing process from OS
             0 MiB allocation reported by mallinfo(arena+hblkhd)
        189427 MiB available memory on the node where the printing process lives
------------------
     ethr =  1.00E-02,  avg # of iterations =  3.0

     total cpu time spent up to now is        9.1 secs

     total energy              =   -1012.62685591 Ry
     estimated scf accuracy    <      67.83711853 Ry

     iteration #  4     ecut=    30.00 Ry     beta= 0.70
     Davidson diagonalization with overlap

---- Real-time Memory Report at c_bands before calling an iterative solver
           285 MiB given to the printing process from OS
             0 MiB allocation reported by mallinfo(arena+hblkhd)
        189428 MiB available memory on the node where the printing process lives
------------------
     ethr =  1.00E-02,  avg # of iterations =  1.9

     total cpu time spent up to now is       10.7 secs

     total energy              =   -1012.41318137 Ry
     estimated scf accuracy    <      19.43203264 Ry

     iteration #  5     ecut=    30.00 Ry     beta= 0.70
     Davidson diagonalization with overlap

---- Real-time Memory Report at c_bands before calling an iterative solver
           286 MiB given to the printing process from OS
             0 MiB allocation reported by mallinfo(arena+hblkhd)
        189429 MiB available memory on the node where the printing process lives
------------------
     ethr =  1.00E-02,  avg # of iterations =  1.0

     total cpu time spent up to now is       11.7 secs

     total energy              =   -1012.65527560 Ry
     estimated scf accuracy    <       3.48094352 Ry

     iteration #  6     ecut=    30.00 Ry     beta= 0.70
     Davidson diagonalization with overlap

---- Real-time Memory Report at c_bands before calling an iterative solver
           286 MiB given to the printing process from OS
             0 MiB allocation reported by mallinfo(arena+hblkhd)
        189431 MiB available memory on the node where the printing process lives
------------------
     ethr =  8.29E-03,  avg # of iterations =  1.0

     total cpu time spent up to now is       13.1 secs

     total energy              =   -1012.71418506 Ry
     estimated scf accuracy    <       3.74593281 Ry

     iteration #  7     ecut=    30.00 Ry     beta= 0.70
     Davidson diagonalization with overlap

---- Real-time Memory Report at c_bands before calling an iterative solver
           286 MiB given to the printing process from OS
             0 MiB allocation reported by mallinfo(arena+hblkhd)
        189432 MiB available memory on the node where the printing process lives
------------------
     ethr =  8.29E-03,  avg # of iterations =  1.0

     total cpu time spent up to now is       14.3 secs

     total energy              =   -1012.74388266 Ry
     estimated scf accuracy    <       4.70016908 Ry

     iteration #  8     ecut=    30.00 Ry     beta= 0.70
     Davidson diagonalization with overlap

---- Real-time Memory Report at c_bands before calling an iterative solver
           286 MiB given to the printing process from OS
             0 MiB allocation reported by mallinfo(arena+hblkhd)
        189431 MiB available memory on the node where the printing process lives
------------------
     ethr =  8.29E-03,  avg # of iterations =  1.0

     total cpu time spent up to now is       15.8 secs

     total energy              =   -1012.74959417 Ry
     estimated scf accuracy    <       5.12584883 Ry

     iteration #  9     ecut=    30.00 Ry     beta= 0.70
     Davidson diagonalization with overlap

---- Real-time Memory Report at c_bands before calling an iterative solver
           286 MiB given to the printing process from OS
             0 MiB allocation reported by mallinfo(arena+hblkhd)
        189432 MiB available memory on the node where the printing process lives
------------------
     ethr =  8.29E-03,  avg # of iterations =  1.0

     total cpu time spent up to now is       18.3 secs

     total energy              =   -1012.75821129 Ry
     estimated scf accuracy    <       5.20766087 Ry

     iteration # 10     ecut=    30.00 Ry     beta= 0.70
     Davidson diagonalization with overlap

---- Real-time Memory Report at c_bands before calling an iterative solver
           286 MiB given to the printing process from OS
             0 MiB allocation reported by mallinfo(arena+hblkhd)
        189432 MiB available memory on the node where the printing process lives
------------------
     ethr =  8.29E-03,  avg # of iterations =  1.0

     total cpu time spent up to now is       20.6 secs

     total energy              =   -1014.09550831 Ry
     estimated scf accuracy    <       5.38205086 Ry

     iteration # 11     ecut=    30.00 Ry     beta= 0.70
     Davidson diagonalization with overlap

---- Real-time Memory Report at c_bands before calling an iterative solver
           286 MiB given to the printing process from OS
             0 MiB allocation reported by mallinfo(arena+hblkhd)
        189432 MiB available memory on the node where the printing process lives
------------------
     ethr =  8.29E-03,  avg # of iterations =  1.0

     total cpu time spent up to now is       22.3 secs

     total energy              =   -1011.70882345 Ry
     estimated scf accuracy    <      68.71983746 Ry

     iteration # 12     ecut=    30.00 Ry     beta= 0.70
     Davidson diagonalization with overlap

---- Real-time Memory Report at c_bands before calling an iterative solver
           286 MiB given to the printing process from OS
             0 MiB allocation reported by mallinfo(arena+hblkhd)
        189240 MiB available memory on the node where the printing process lives
------------------
     ethr =  8.29E-03,  avg # of iterations =  1.1

     total cpu time spent up to now is       24.0 secs

     total energy              =   -1012.62402756 Ry
     estimated scf accuracy    <       4.56753766 Ry

     iteration # 13     ecut=    30.00 Ry     beta= 0.70
     Davidson diagonalization with overlap

---- Real-time Memory Report at c_bands before calling an iterative solver
           286 MiB given to the printing process from OS
             0 MiB allocation reported by mallinfo(arena+hblkhd)
        189242 MiB available memory on the node where the printing process lives
------------------
     ethr =  8.29E-03,  avg # of iterations =  1.0

     total cpu time spent up to now is       25.6 secs

     total energy              =   -1012.14968704 Ry
     estimated scf accuracy    <       3.30330102 Ry

     iteration # 14     ecut=    30.00 Ry     beta= 0.70
     Davidson diagonalization with overlap

---- Real-time Memory Report at c_bands before calling an iterative solver
           286 MiB given to the printing process from OS
             0 MiB allocation reported by mallinfo(arena+hblkhd)
        189239 MiB available memory on the node where the printing process lives
------------------
     ethr =  7.87E-03,  avg # of iterations =  1.0

     total cpu time spent up to now is       27.2 secs

     total energy              =   -1012.42122594 Ry
     estimated scf accuracy    <       0.44719499 Ry

     iteration # 15     ecut=    30.00 Ry     beta= 0.70
     Davidson diagonalization with overlap

---- Real-time Memory Report at c_bands before calling an iterative solver
           286 MiB given to the printing process from OS
             0 MiB allocation reported by mallinfo(arena+hblkhd)
        189242 MiB available memory on the node where the printing process lives
------------------
     ethr =  1.06E-03,  avg # of iterations =  1.0

     total cpu time spent up to now is       28.8 secs

     total energy              =   -1012.41725303 Ry
     estimated scf accuracy    <       0.29403784 Ry

     iteration # 16     ecut=    30.00 Ry     beta= 0.70
     Davidson diagonalization with overlap

---- Real-time Memory Report at c_bands before calling an iterative solver
           286 MiB given to the printing process from OS
             0 MiB allocation reported by mallinfo(arena+hblkhd)
        189446 MiB available memory on the node where the printing process lives
------------------
     ethr =  7.00E-04,  avg # of iterations =  1.4

     total cpu time spent up to now is       30.4 secs

     total energy              =   -1012.41092009 Ry
     estimated scf accuracy    <       0.27413519 Ry

     iteration # 17     ecut=    30.00 Ry     beta= 0.70
     Davidson diagonalization with overlap

---- Real-time Memory Report at c_bands before calling an iterative solver
           286 MiB given to the printing process from OS
             0 MiB allocation reported by mallinfo(arena+hblkhd)
        189408 MiB available memory on the node where the printing process lives
------------------
     ethr =  6.53E-04,  avg # of iterations =  1.0

     total cpu time spent up to now is       32.6 secs

     total energy              =   -1012.40745243 Ry
     estimated scf accuracy    <       0.22011767 Ry

     iteration # 18     ecut=    30.00 Ry     beta= 0.70
     Davidson diagonalization with overlap

---- Real-time Memory Report at c_bands before calling an iterative solver
           286 MiB given to the printing process from OS
             0 MiB allocation reported by mallinfo(arena+hblkhd)
        189113 MiB available memory on the node where the printing process lives
------------------
     ethr =  5.24E-04,  avg # of iterations =  1.0

     total cpu time spent up to now is       34.1 secs

     total energy              =   -1012.40963420 Ry
     estimated scf accuracy    <       0.27091327 Ry

     iteration # 19     ecut=    30.00 Ry     beta= 0.70
     Davidson diagonalization with overlap

---- Real-time Memory Report at c_bands before calling an iterative solver
           286 MiB given to the printing process from OS
             0 MiB allocation reported by mallinfo(arena+hblkhd)
        189115 MiB available memory on the node where the printing process lives
------------------
     ethr =  5.24E-04,  avg # of iterations =  1.0

     total cpu time spent up to now is       35.3 secs

     total energy              =   -1012.41661648 Ry
     estimated scf accuracy    <       0.22737455 Ry

     iteration # 20     ecut=    30.00 Ry     beta= 0.70
     Davidson diagonalization with overlap

---- Real-time Memory Report at c_bands before calling an iterative solver
           286 MiB given to the printing process from OS
             0 MiB allocation reported by mallinfo(arena+hblkhd)
        189113 MiB available memory on the node where the printing process lives
------------------
     ethr =  5.24E-04,  avg # of iterations =  1.0

     total cpu time spent up to now is       37.0 secs

     total energy              =   -1012.38578825 Ry
     estimated scf accuracy    <       0.21947308 Ry

     iteration # 21     ecut=    30.00 Ry     beta= 0.70
     Davidson diagonalization with overlap

---- Real-time Memory Report at c_bands before calling an iterative solver
           286 MiB given to the printing process from OS
             0 MiB allocation reported by mallinfo(arena+hblkhd)
        189117 MiB available memory on the node where the printing process lives
------------------
     ethr =  5.23E-04,  avg # of iterations =  1.0

     total cpu time spent up to now is       38.6 secs

     total energy              =   -1012.38639065 Ry
     estimated scf accuracy    <       0.06710691 Ry

     iteration # 22     ecut=    30.00 Ry     beta= 0.70
     Davidson diagonalization with overlap

---- Real-time Memory Report at c_bands before calling an iterative solver
           286 MiB given to the printing process from OS
             0 MiB allocation reported by mallinfo(arena+hblkhd)
        189167 MiB available memory on the node where the printing process lives
------------------
     ethr =  1.60E-04,  avg # of iterations =  1.0

     total cpu time spent up to now is       40.2 secs

     total energy              =   -1012.33965065 Ry
     estimated scf accuracy    <       0.16162916 Ry

     iteration # 23     ecut=    30.00 Ry     beta= 0.70
     Davidson diagonalization with overlap

---- Real-time Memory Report at c_bands before calling an iterative solver
           286 MiB given to the printing process from OS
             0 MiB allocation reported by mallinfo(arena+hblkhd)
        189169 MiB available memory on the node where the printing process lives
------------------
     ethr =  1.60E-04,  avg # of iterations =  2.0

     total cpu time spent up to now is       42.4 secs

     total energy              =   -1012.04812789 Ry
     estimated scf accuracy    <       8.18392093 Ry

     iteration # 24     ecut=    30.00 Ry     beta= 0.70
     Davidson diagonalization with overlap

---- Real-time Memory Report at c_bands before calling an iterative solver
           286 MiB given to the printing process from OS
             0 MiB allocation reported by mallinfo(arena+hblkhd)
        189694 MiB available memory on the node where the printing process lives
------------------
     ethr =  1.60E-04,  avg # of iterations =  2.0

     total cpu time spent up to now is       44.4 secs

     total energy              =   -1012.39022402 Ry
     estimated scf accuracy    <       0.11714232 Ry

     iteration # 25     ecut=    30.00 Ry     beta= 0.70
     Davidson diagonalization with overlap

---- Real-time Memory Report at c_bands before calling an iterative solver
           286 MiB given to the printing process from OS
             0 MiB allocation reported by mallinfo(arena+hblkhd)
        189695 MiB available memory on the node where the printing process lives
------------------
     ethr =  1.60E-04,  avg # of iterations =  1.0

     total cpu time spent up to now is       45.7 secs

     total energy              =   -1012.38318117 Ry
     estimated scf accuracy    <       0.08134640 Ry

     iteration # 26     ecut=    30.00 Ry     beta= 0.70
     Davidson diagonalization with overlap

---- Real-time Memory Report at c_bands before calling an iterative solver
           286 MiB given to the printing process from OS
             0 MiB allocation reported by mallinfo(arena+hblkhd)
        190023 MiB available memory on the node where the printing process lives
------------------
     ethr =  1.60E-04,  avg # of iterations =  1.0

     total cpu time spent up to now is       47.6 secs

     total energy              =   -1012.37780207 Ry
     estimated scf accuracy    <       0.09778441 Ry

     iteration # 27     ecut=    30.00 Ry     beta= 0.70
     Davidson diagonalization with overlap

---- Real-time Memory Report at c_bands before calling an iterative solver
           286 MiB given to the printing process from OS
             0 MiB allocation reported by mallinfo(arena+hblkhd)
        189997 MiB available memory on the node where the printing process lives
------------------
     ethr =  1.60E-04,  avg # of iterations =  1.0

     total cpu time spent up to now is       48.7 secs

     total energy              =   -1012.38337195 Ry
     estimated scf accuracy    <       0.07210596 Ry

     iteration # 28     ecut=    30.00 Ry     beta= 0.70
     Davidson diagonalization with overlap

---- Real-time Memory Report at c_bands before calling an iterative solver
           286 MiB given to the printing process from OS
             0 MiB allocation reported by mallinfo(arena+hblkhd)
        189930 MiB available memory on the node where the printing process lives
------------------
     ethr =  1.60E-04,  avg # of iterations =  1.0

     total cpu time spent up to now is       50.6 secs

     total energy              =   -1012.37861080 Ry
     estimated scf accuracy    <       0.12095489 Ry

     iteration # 29     ecut=    30.00 Ry     beta= 0.70
     Davidson diagonalization with overlap

---- Real-time Memory Report at c_bands before calling an iterative solver
           286 MiB given to the printing process from OS
             0 MiB allocation reported by mallinfo(arena+hblkhd)
        189986 MiB available memory on the node where the printing process lives
------------------
     ethr =  1.60E-04,  avg # of iterations =  1.0

     total cpu time spent up to now is       53.4 secs

     total energy              =   -1012.38150025 Ry
     estimated scf accuracy    <       0.14797578 Ry

     iteration # 30     ecut=    30.00 Ry     beta= 0.70
     Davidson diagonalization with overlap

---- Real-time Memory Report at c_bands before calling an iterative solver
           286 MiB given to the printing process from OS
             0 MiB allocation reported by mallinfo(arena+hblkhd)
        189997 MiB available memory on the node where the printing process lives
------------------
     ethr =  1.60E-04,  avg # of iterations =  1.0

     total cpu time spent up to now is       55.0 secs

     total energy              =   -1012.39524530 Ry
     estimated scf accuracy    <       0.00936885 Ry

     iteration # 31     ecut=    30.00 Ry     beta= 0.70
     Davidson diagonalization with overlap

---- Real-time Memory Report at c_bands before calling an iterative solver
           286 MiB given to the printing process from OS
             0 MiB allocation reported by mallinfo(arena+hblkhd)
        190002 MiB available memory on the node where the printing process lives
------------------
     ethr =  2.23E-05,  avg # of iterations =  1.0

     total cpu time spent up to now is       56.8 secs

     total energy              =   -1012.39555627 Ry
     estimated scf accuracy    <       0.00332496 Ry

     iteration # 32     ecut=    30.00 Ry     beta= 0.70
     Davidson diagonalization with overlap

---- Real-time Memory Report at c_bands before calling an iterative solver
           286 MiB given to the printing process from OS
             0 MiB allocation reported by mallinfo(arena+hblkhd)
        190002 MiB available memory on the node where the printing process lives
------------------
     ethr =  7.92E-06,  avg # of iterations =  1.0

     total cpu time spent up to now is       58.5 secs

     total energy              =   -1012.39431052 Ry
     estimated scf accuracy    <       0.00399703 Ry

     iteration # 33     ecut=    30.00 Ry     beta= 0.70
     Davidson diagonalization with overlap

---- Real-time Memory Report at c_bands before calling an iterative solver
           286 MiB given to the printing process from OS
             0 MiB allocation reported by mallinfo(arena+hblkhd)
        190000 MiB available memory on the node where the printing process lives
------------------
     ethr =  7.92E-06,  avg # of iterations =  1.0

     total cpu time spent up to now is       59.8 secs

     total energy              =   -1012.39473260 Ry
     estimated scf accuracy    <       0.01580261 Ry

     iteration # 34     ecut=    30.00 Ry     beta= 0.70
     Davidson diagonalization with overlap

---- Real-time Memory Report at c_bands before calling an iterative solver
           286 MiB given to the printing process from OS
             0 MiB allocation reported by mallinfo(arena+hblkhd)
        190004 MiB available memory on the node where the printing process lives
------------------
     ethr =  7.92E-06,  avg # of iterations =  1.0

     total cpu time spent up to now is       60.6 secs

     total energy              =   -1012.39578282 Ry
     estimated scf accuracy    <       0.00340621 Ry

     iteration # 35     ecut=    30.00 Ry     beta= 0.70
     Davidson diagonalization with overlap

---- Real-time Memory Report at c_bands before calling an iterative solver
           286 MiB given to the printing process from OS
             0 MiB allocation reported by mallinfo(arena+hblkhd)
        190005 MiB available memory on the node where the printing process lives
------------------
     ethr =  7.92E-06,  avg # of iterations =  1.0

     total cpu time spent up to now is       61.9 secs

     total energy              =   -1012.39613713 Ry
     estimated scf accuracy    <       0.00082170 Ry

     iteration # 36     ecut=    30.00 Ry     beta= 0.70
     Davidson diagonalization with overlap

---- Real-time Memory Report at c_bands before calling an iterative solver
           286 MiB given to the printing process from OS
             0 MiB allocation reported by mallinfo(arena+hblkhd)
        189813 MiB available memory on the node where the printing process lives
------------------
     ethr =  1.96E-06,  avg # of iterations =  1.0

     total cpu time spent up to now is       63.0 secs

     total energy              =   -1012.39581553 Ry
     estimated scf accuracy    <       0.00216656 Ry

     iteration # 37     ecut=    30.00 Ry     beta= 0.70
     Davidson diagonalization with overlap

---- Real-time Memory Report at c_bands before calling an iterative solver
           286 MiB given to the printing process from OS
             0 MiB allocation reported by mallinfo(arena+hblkhd)
        189815 MiB available memory on the node where the printing process lives
------------------
     ethr =  1.96E-06,  avg # of iterations =  1.0

     total cpu time spent up to now is       64.1 secs

     total energy              =   -1012.39550860 Ry
     estimated scf accuracy    <       0.00330683 Ry

     iteration # 38     ecut=    30.00 Ry     beta= 0.70
     Davidson diagonalization with overlap

---- Real-time Memory Report at c_bands before calling an iterative solver
           286 MiB given to the printing process from OS
             0 MiB allocation reported by mallinfo(arena+hblkhd)
        189815 MiB available memory on the node where the printing process lives
------------------
     ethr =  1.96E-06,  avg # of iterations =  1.0

     total cpu time spent up to now is       64.9 secs

     total energy              =   -1012.39570166 Ry
     estimated scf accuracy    <       0.00263223 Ry

     iteration # 39     ecut=    30.00 Ry     beta= 0.70
     Davidson diagonalization with overlap

---- Real-time Memory Report at c_bands before calling an iterative solver
           286 MiB given to the printing process from OS
             0 MiB allocation reported by mallinfo(arena+hblkhd)
        189816 MiB available memory on the node where the printing process lives
------------------
     ethr =  1.96E-06,  avg # of iterations =  1.0

     total cpu time spent up to now is       66.0 secs

     total energy              =   -1012.39520239 Ry
     estimated scf accuracy    <       0.00664429 Ry

     iteration # 40     ecut=    30.00 Ry     beta= 0.70
     Davidson diagonalization with overlap

---- Real-time Memory Report at c_bands before calling an iterative solver
           286 MiB given to the printing process from OS
             0 MiB allocation reported by mallinfo(arena+hblkhd)
        189817 MiB available memory on the node where the printing process lives
------------------
     ethr =  1.96E-06,  avg # of iterations =  1.0

     total cpu time spent up to now is       67.2 secs

     total energy              =   -1012.39611290 Ry
     estimated scf accuracy    <       0.00172740 Ry

     iteration # 41     ecut=    30.00 Ry     beta= 0.70
     Davidson diagonalization with overlap

---- Real-time Memory Report at c_bands before calling an iterative solver
           286 MiB given to the printing process from OS
             0 MiB allocation reported by mallinfo(arena+hblkhd)
        189817 MiB available memory on the node where the printing process lives
------------------
     ethr =  1.96E-06,  avg # of iterations =  1.0

     total cpu time spent up to now is       68.3 secs

     total energy              =   -1012.39618120 Ry
     estimated scf accuracy    <       0.00065022 Ry

     iteration # 42     ecut=    30.00 Ry     beta= 0.70
     Davidson diagonalization with overlap

---- Real-time Memory Report at c_bands before calling an iterative solver
           286 MiB given to the printing process from OS
             0 MiB allocation reported by mallinfo(arena+hblkhd)
        190098 MiB available memory on the node where the printing process lives
------------------
     ethr =  1.55E-06,  avg # of iterations =  1.0

     total cpu time spent up to now is       69.6 secs

     total energy              =   -1012.39620369 Ry
     estimated scf accuracy    <       0.00023014 Ry

     iteration # 43     ecut=    30.00 Ry     beta= 0.70
     Davidson diagonalization with overlap

---- Real-time Memory Report at c_bands before calling an iterative solver
           286 MiB given to the printing process from OS
             0 MiB allocation reported by mallinfo(arena+hblkhd)
        189963 MiB available memory on the node where the printing process lives
------------------
     ethr =  5.48E-07,  avg # of iterations =  1.0

     total cpu time spent up to now is       70.5 secs

     total energy              =   -1012.39622817 Ry
     estimated scf accuracy    <       0.00001596 Ry

     iteration # 44     ecut=    30.00 Ry     beta= 0.70
     Davidson diagonalization with overlap

---- Real-time Memory Report at c_bands before calling an iterative solver
           286 MiB given to the printing process from OS
             0 MiB allocation reported by mallinfo(arena+hblkhd)
        189987 MiB available memory on the node where the printing process lives
------------------
     ethr =  3.80E-08,  avg # of iterations =  1.0

     total cpu time spent up to now is       71.6 secs

     total energy              =   -1012.39620886 Ry
     estimated scf accuracy    <       0.00044796 Ry

     iteration # 45     ecut=    30.00 Ry     beta= 0.70
     Davidson diagonalization with overlap

---- Real-time Memory Report at c_bands before calling an iterative solver
           286 MiB given to the printing process from OS
             0 MiB allocation reported by mallinfo(arena+hblkhd)
        189693 MiB available memory on the node where the printing process lives
------------------
     ethr =  3.80E-08,  avg # of iterations =  1.0

     total cpu time spent up to now is       72.8 secs

     total energy              =   -1012.39623179 Ry
     estimated scf accuracy    <       0.00005436 Ry

     iteration # 46     ecut=    30.00 Ry     beta= 0.70
     Davidson diagonalization with overlap

---- Real-time Memory Report at c_bands before calling an iterative solver
           286 MiB given to the printing process from OS
             0 MiB allocation reported by mallinfo(arena+hblkhd)
        189696 MiB available memory on the node where the printing process lives
------------------
     ethr =  3.80E-08,  avg # of iterations =  1.0

     total cpu time spent up to now is       73.7 secs

     total energy              =   -1012.39623454 Ry
     estimated scf accuracy    <       0.00007805 Ry

     iteration # 47     ecut=    30.00 Ry     beta= 0.70
     Davidson diagonalization with overlap

---- Real-time Memory Report at c_bands before calling an iterative solver
           286 MiB given to the printing process from OS
             0 MiB allocation reported by mallinfo(arena+hblkhd)
        189695 MiB available memory on the node where the printing process lives
------------------
     ethr =  3.80E-08,  avg # of iterations =  1.0

     total cpu time spent up to now is       75.0 secs

     total energy              =   -1012.39623798 Ry
     estimated scf accuracy    <       0.00004186 Ry

     iteration # 48     ecut=    30.00 Ry     beta= 0.70
     Davidson diagonalization with overlap

---- Real-time Memory Report at c_bands before calling an iterative solver
           286 MiB given to the printing process from OS
             0 MiB allocation reported by mallinfo(arena+hblkhd)
        189696 MiB available memory on the node where the printing process lives
------------------
     ethr =  3.80E-08,  avg # of iterations =  1.0

     total cpu time spent up to now is       76.1 secs

     total energy              =   -1012.39623218 Ry
     estimated scf accuracy    <       0.00002328 Ry

     iteration # 49     ecut=    30.00 Ry     beta= 0.70
     Davidson diagonalization with overlap

---- Real-time Memory Report at c_bands before calling an iterative solver
           286 MiB given to the printing process from OS
             0 MiB allocation reported by mallinfo(arena+hblkhd)
        189694 MiB available memory on the node where the printing process lives
------------------
     ethr =  3.80E-08,  avg # of iterations =  1.0

     total cpu time spent up to now is       77.3 secs

     total energy              =   -1012.39622255 Ry
     estimated scf accuracy    <       0.00007935 Ry

     iteration # 50     ecut=    30.00 Ry     beta= 0.70
     Davidson diagonalization with overlap

---- Real-time Memory Report at c_bands before calling an iterative solver
           286 MiB given to the printing process from OS
             0 MiB allocation reported by mallinfo(arena+hblkhd)
        189693 MiB available memory on the node where the printing process lives
------------------
     ethr =  3.80E-08,  avg # of iterations =  1.0

     total cpu time spent up to now is       78.2 secs

     total energy              =   -1012.39618660 Ry
     estimated scf accuracy    <       0.00061868 Ry

     iteration # 51     ecut=    30.00 Ry     beta= 0.70
     Davidson diagonalization with overlap

---- Real-time Memory Report at c_bands before calling an iterative solver
           286 MiB given to the printing process from OS
             0 MiB allocation reported by mallinfo(arena+hblkhd)
        189693 MiB available memory on the node where the printing process lives
------------------
     ethr =  3.80E-08,  avg # of iterations =  1.0

     total cpu time spent up to now is       79.0 secs

     total energy              =   -1012.39623652 Ry
     estimated scf accuracy    <       0.00004139 Ry

     iteration # 52     ecut=    30.00 Ry     beta= 0.70
     Davidson diagonalization with overlap

---- Real-time Memory Report at c_bands before calling an iterative solver
           286 MiB given to the printing process from OS
             0 MiB allocation reported by mallinfo(arena+hblkhd)
        189696 MiB available memory on the node where the printing process lives
------------------
     ethr =  3.80E-08,  avg # of iterations =  1.0

     total cpu time spent up to now is       80.1 secs

     total energy              =   -1012.39623793 Ry
     estimated scf accuracy    <       0.00002038 Ry

     iteration # 53     ecut=    30.00 Ry     beta= 0.70
     Davidson diagonalization with overlap

---- Real-time Memory Report at c_bands before calling an iterative solver
           286 MiB given to the printing process from OS
             0 MiB allocation reported by mallinfo(arena+hblkhd)
        189696 MiB available memory on the node where the printing process lives
------------------
     ethr =  3.80E-08,  avg # of iterations =  1.0

     total cpu time spent up to now is       81.3 secs

     total energy              =   -1012.39623722 Ry
     estimated scf accuracy    <       0.00005274 Ry

     iteration # 54     ecut=    30.00 Ry     beta= 0.70
     Davidson diagonalization with overlap

---- Real-time Memory Report at c_bands before calling an iterative solver
           286 MiB given to the printing process from OS
             0 MiB allocation reported by mallinfo(arena+hblkhd)
        189693 MiB available memory on the node where the printing process lives
------------------
     ethr =  3.80E-08,  avg # of iterations =  1.0

     total cpu time spent up to now is       82.6 secs

     total energy              =   -1012.39623248 Ry
     estimated scf accuracy    <       0.00002537 Ry

     iteration # 55     ecut=    30.00 Ry     beta= 0.70
     Davidson diagonalization with overlap

---- Real-time Memory Report at c_bands before calling an iterative solver
           286 MiB given to the printing process from OS
             0 MiB allocation reported by mallinfo(arena+hblkhd)
        189693 MiB available memory on the node where the printing process lives
------------------
     ethr =  3.80E-08,  avg # of iterations =  1.0

     total cpu time spent up to now is       83.9 secs

     total energy              =   -1012.39623774 Ry
     estimated scf accuracy    <       0.00001833 Ry

     iteration # 56     ecut=    30.00 Ry     beta= 0.70
     Davidson diagonalization with overlap

---- Real-time Memory Report at c_bands before calling an iterative solver
           286 MiB given to the printing process from OS
             0 MiB allocation reported by mallinfo(arena+hblkhd)
        189697 MiB available memory on the node where the printing process lives
------------------
     ethr =  3.80E-08,  avg # of iterations =  1.0

     total cpu time spent up to now is       85.1 secs

     total energy              =   -1012.39623674 Ry
     estimated scf accuracy    <       0.00001732 Ry

     iteration # 57     ecut=    30.00 Ry     beta= 0.70
     Davidson diagonalization with overlap

---- Real-time Memory Report at c_bands before calling an iterative solver
           286 MiB given to the printing process from OS
             0 MiB allocation reported by mallinfo(arena+hblkhd)
        189696 MiB available memory on the node where the printing process lives
------------------
     ethr =  3.80E-08,  avg # of iterations =  1.0

     total cpu time spent up to now is       86.4 secs

     total energy              =   -1012.39623856 Ry
     estimated scf accuracy    <       0.00002002 Ry

     iteration # 58     ecut=    30.00 Ry     beta= 0.70
     Davidson diagonalization with overlap

---- Real-time Memory Report at c_bands before calling an iterative solver
           286 MiB given to the printing process from OS
             0 MiB allocation reported by mallinfo(arena+hblkhd)
        190021 MiB available memory on the node where the printing process lives
------------------
     ethr =  3.80E-08,  avg # of iterations =  1.0

     total cpu time spent up to now is       87.6 secs

     total energy              =   -1012.39623707 Ry
     estimated scf accuracy    <       0.00001533 Ry

     iteration # 59     ecut=    30.00 Ry     beta= 0.70
     Davidson diagonalization with overlap

---- Real-time Memory Report at c_bands before calling an iterative solver
           286 MiB given to the printing process from OS
             0 MiB allocation reported by mallinfo(arena+hblkhd)
        190001 MiB available memory on the node where the printing process lives
------------------
     ethr =  3.65E-08,  avg # of iterations =  1.0

     total cpu time spent up to now is       88.9 secs

     total energy              =   -1012.39622703 Ry
     estimated scf accuracy    <       0.00006381 Ry

     iteration # 60     ecut=    30.00 Ry     beta= 0.70
     Davidson diagonalization with overlap

---- Real-time Memory Report at c_bands before calling an iterative solver
           286 MiB given to the printing process from OS
             0 MiB allocation reported by mallinfo(arena+hblkhd)
        189930 MiB available memory on the node where the printing process lives
------------------
     ethr =  3.65E-08,  avg # of iterations =  1.0

     total cpu time spent up to now is       90.6 secs

     total energy              =   -1012.39619514 Ry
     estimated scf accuracy    <       0.00076462 Ry

     iteration # 61     ecut=    30.00 Ry     beta= 0.70
     Davidson diagonalization with overlap

---- Real-time Memory Report at c_bands before calling an iterative solver
           286 MiB given to the printing process from OS
             0 MiB allocation reported by mallinfo(arena+hblkhd)
        190042 MiB available memory on the node where the printing process lives
------------------
     ethr =  3.65E-08,  avg # of iterations =  1.0

     total cpu time spent up to now is       92.2 secs

     total energy              =   -1012.39623885 Ry
     estimated scf accuracy    <       0.00002344 Ry

     iteration # 62     ecut=    30.00 Ry     beta= 0.70
     Davidson diagonalization with overlap

---- Real-time Memory Report at c_bands before calling an iterative solver
           286 MiB given to the printing process from OS
             0 MiB allocation reported by mallinfo(arena+hblkhd)
        189996 MiB available memory on the node where the printing process lives
------------------
     ethr =  3.65E-08,  avg # of iterations =  1.0

     total cpu time spent up to now is       93.1 secs

     total energy              =   -1012.39623843 Ry
     estimated scf accuracy    <       0.00002088 Ry

     iteration # 63     ecut=    30.00 Ry     beta= 0.70
     Davidson diagonalization with overlap

---- Real-time Memory Report at c_bands before calling an iterative solver
           286 MiB given to the printing process from OS
             0 MiB allocation reported by mallinfo(arena+hblkhd)
        189997 MiB available memory on the node where the printing process lives
------------------
     ethr =  3.65E-08,  avg # of iterations =  1.0

     total cpu time spent up to now is       93.9 secs

     total energy              =   -1012.39623658 Ry
     estimated scf accuracy    <       0.00000670 Ry

     iteration # 64     ecut=    30.00 Ry     beta= 0.70
     Davidson diagonalization with overlap

---- Real-time Memory Report at c_bands before calling an iterative solver
           286 MiB given to the printing process from OS
             0 MiB allocation reported by mallinfo(arena+hblkhd)
        190011 MiB available memory on the node where the printing process lives
------------------
     ethr =  1.60E-08,  avg # of iterations =  1.0

     total cpu time spent up to now is       94.7 secs

     total energy              =   -1012.39623776 Ry
     estimated scf accuracy    <       0.00001365 Ry

     iteration # 65     ecut=    30.00 Ry     beta= 0.70
     Davidson diagonalization with overlap

---- Real-time Memory Report at c_bands before calling an iterative solver
           286 MiB given to the printing process from OS
             0 MiB allocation reported by mallinfo(arena+hblkhd)
        190010 MiB available memory on the node where the printing process lives
------------------
     ethr =  1.60E-08,  avg # of iterations =  1.0

     total cpu time spent up to now is       95.5 secs

     total energy              =   -1012.39623811 Ry
     estimated scf accuracy    <       0.00002288 Ry

     iteration # 66     ecut=    30.00 Ry     beta= 0.70
     Davidson diagonalization with overlap

---- Real-time Memory Report at c_bands before calling an iterative solver
           286 MiB given to the printing process from OS
             0 MiB allocation reported by mallinfo(arena+hblkhd)
        190012 MiB available memory on the node where the printing process lives
------------------
     ethr =  1.60E-08,  avg # of iterations =  1.0

     total cpu time spent up to now is       96.3 secs

     total energy              =   -1012.39623790 Ry
     estimated scf accuracy    <       0.00001901 Ry

     iteration # 67     ecut=    30.00 Ry     beta= 0.70
     Davidson diagonalization with overlap

---- Real-time Memory Report at c_bands before calling an iterative solver
           286 MiB given to the printing process from OS
             0 MiB allocation reported by mallinfo(arena+hblkhd)
        190008 MiB available memory on the node where the printing process lives
------------------
     ethr =  1.60E-08,  avg # of iterations =  1.0

     total cpu time spent up to now is       97.2 secs

     total energy              =   -1012.39623785 Ry
     estimated scf accuracy    <       0.00002661 Ry

     iteration # 68     ecut=    30.00 Ry     beta= 0.70
     Davidson diagonalization with overlap

---- Real-time Memory Report at c_bands before calling an iterative solver
           286 MiB given to the printing process from OS
             0 MiB allocation reported by mallinfo(arena+hblkhd)
        190010 MiB available memory on the node where the printing process lives
------------------
     ethr =  1.60E-08,  avg # of iterations =  1.0

     total cpu time spent up to now is       98.0 secs

     total energy              =   -1012.39623783 Ry
     estimated scf accuracy    <       0.00002086 Ry

     iteration # 69     ecut=    30.00 Ry     beta= 0.70
     Davidson diagonalization with overlap

---- Real-time Memory Report at c_bands before calling an iterative solver
           286 MiB given to the printing process from OS
             0 MiB allocation reported by mallinfo(arena+hblkhd)
        190011 MiB available memory on the node where the printing process lives
------------------
     ethr =  1.60E-08,  avg # of iterations =  1.0

     total cpu time spent up to now is       99.1 secs

     total energy              =   -1012.39621748 Ry
     estimated scf accuracy    <       0.00017740 Ry

     iteration # 70     ecut=    30.00 Ry     beta= 0.70
     Davidson diagonalization with overlap

---- Real-time Memory Report at c_bands before calling an iterative solver
           286 MiB given to the printing process from OS
             0 MiB allocation reported by mallinfo(arena+hblkhd)
        190011 MiB available memory on the node where the printing process lives
------------------
     ethr =  1.60E-08,  avg # of iterations =  1.0

     total cpu time spent up to now is      100.1 secs

     total energy              =   -1012.39617799 Ry
     estimated scf accuracy    <       0.00112189 Ry

     iteration # 71     ecut=    30.00 Ry     beta= 0.70
     Davidson diagonalization with overlap

---- Real-time Memory Report at c_bands before calling an iterative solver
           286 MiB given to the printing process from OS
             0 MiB allocation reported by mallinfo(arena+hblkhd)
        190007 MiB available memory on the node where the printing process lives
------------------
     ethr =  1.60E-08,  avg # of iterations =  1.0

     total cpu time spent up to now is      101.6 secs

     total energy              =   -1012.39623833 Ry
     estimated scf accuracy    <       0.00001113 Ry

     iteration # 72     ecut=    30.00 Ry     beta= 0.70
     Davidson diagonalization with overlap

---- Real-time Memory Report at c_bands before calling an iterative solver
           286 MiB given to the printing process from OS
             0 MiB allocation reported by mallinfo(arena+hblkhd)
        190009 MiB available memory on the node where the printing process lives
------------------
     ethr =  1.60E-08,  avg # of iterations =  1.0

     total cpu time spent up to now is      102.5 secs

     total energy              =   -1012.39623863 Ry
     estimated scf accuracy    <       0.00002232 Ry

     iteration # 73     ecut=    30.00 Ry     beta= 0.70
     Davidson diagonalization with overlap

---- Real-time Memory Report at c_bands before calling an iterative solver
           286 MiB given to the printing process from OS
             0 MiB allocation reported by mallinfo(arena+hblkhd)
        190008 MiB available memory on the node where the printing process lives
------------------
     ethr =  1.60E-08,  avg # of iterations =  1.0

     total cpu time spent up to now is      103.7 secs

     total energy              =   -1012.39623662 Ry
     estimated scf accuracy    <       0.00000841 Ry

     iteration # 74     ecut=    30.00 Ry     beta= 0.70
     Davidson diagonalization with overlap

---- Real-time Memory Report at c_bands before calling an iterative solver
           286 MiB given to the printing process from OS
             0 MiB allocation reported by mallinfo(arena+hblkhd)
        190011 MiB available memory on the node where the printing process lives
------------------
     ethr =  1.60E-08,  avg # of iterations =  1.0

     total cpu time spent up to now is      104.7 secs

     total energy              =   -1012.39623838 Ry
     estimated scf accuracy    <       0.00001400 Ry

     iteration # 75     ecut=    30.00 Ry     beta= 0.70
     Davidson diagonalization with overlap

---- Real-time Memory Report at c_bands before calling an iterative solver
           286 MiB given to the printing process from OS
             0 MiB allocation reported by mallinfo(arena+hblkhd)
        190011 MiB available memory on the node where the printing process lives
------------------
     ethr =  1.60E-08,  avg # of iterations =  1.0

     total cpu time spent up to now is      106.0 secs

     total energy              =   -1012.39623876 Ry
     estimated scf accuracy    <       0.00001846 Ry

     iteration # 76     ecut=    30.00 Ry     beta= 0.70
     Davidson diagonalization with overlap

---- Real-time Memory Report at c_bands before calling an iterative solver
           286 MiB given to the printing process from OS
             0 MiB allocation reported by mallinfo(arena+hblkhd)
        190009 MiB available memory on the node where the printing process lives
------------------
     ethr =  1.60E-08,  avg # of iterations =  1.0

     total cpu time spent up to now is      107.0 secs

     total energy              =   -1012.39623814 Ry
     estimated scf accuracy    <       0.00001900 Ry

     iteration # 77     ecut=    30.00 Ry     beta= 0.70
     Davidson diagonalization with overlap

---- Real-time Memory Report at c_bands before calling an iterative solver
           286 MiB given to the printing process from OS
             0 MiB allocation reported by mallinfo(arena+hblkhd)
        190011 MiB available memory on the node where the printing process lives
------------------
     ethr =  1.60E-08,  avg # of iterations =  1.0

     total cpu time spent up to now is      108.2 secs

     total energy              =   -1012.39623722 Ry
     estimated scf accuracy    <       0.00003161 Ry

     iteration # 78     ecut=    30.00 Ry     beta= 0.70
     Davidson diagonalization with overlap

---- Real-time Memory Report at c_bands before calling an iterative solver
           286 MiB given to the printing process from OS
             0 MiB allocation reported by mallinfo(arena+hblkhd)
        191021 MiB available memory on the node where the printing process lives
------------------
     ethr =  1.60E-08,  avg # of iterations =  1.0

     total cpu time spent up to now is      109.7 secs

     total energy              =   -1012.39623856 Ry
     estimated scf accuracy    <       0.00001400 Ry

     iteration # 79     ecut=    30.00 Ry     beta= 0.70
     Davidson diagonalization with overlap

---- Real-time Memory Report at c_bands before calling an iterative solver
           286 MiB given to the printing process from OS
             0 MiB allocation reported by mallinfo(arena+hblkhd)
        191023 MiB available memory on the node where the printing process lives
------------------
     ethr =  1.60E-08,  avg # of iterations =  1.0

     total cpu time spent up to now is      111.2 secs

     total energy              =   -1012.39622651 Ry
     estimated scf accuracy    <       0.00004075 Ry

     iteration # 80     ecut=    30.00 Ry     beta= 0.70
     Davidson diagonalization with overlap

---- Real-time Memory Report at c_bands before calling an iterative solver
           286 MiB given to the printing process from OS
             0 MiB allocation reported by mallinfo(arena+hblkhd)
        191020 MiB available memory on the node where the printing process lives
------------------
     ethr =  1.60E-08,  avg # of iterations =  1.0

     total cpu time spent up to now is      112.0 secs

     total energy              =   -1012.39616394 Ry
     estimated scf accuracy    <       0.00140398 Ry

     iteration # 81     ecut=    30.00 Ry     beta= 0.70
     Davidson diagonalization with overlap

---- Real-time Memory Report at c_bands before calling an iterative solver
           286 MiB given to the printing process from OS
             0 MiB allocation reported by mallinfo(arena+hblkhd)
        191024 MiB available memory on the node where the printing process lives
------------------
     ethr =  1.60E-08,  avg # of iterations =  1.0

     total cpu time spent up to now is      113.1 secs

     total energy              =   -1012.39623803 Ry
     estimated scf accuracy    <       0.00001031 Ry

     iteration # 82     ecut=    30.00 Ry     beta= 0.70
     Davidson diagonalization with overlap

---- Real-time Memory Report at c_bands before calling an iterative solver
           286 MiB given to the printing process from OS
             0 MiB allocation reported by mallinfo(arena+hblkhd)
        191021 MiB available memory on the node where the printing process lives
------------------
     ethr =  1.60E-08,  avg # of iterations =  1.0

     total cpu time spent up to now is      114.2 secs

     total energy              =   -1012.39623496 Ry
     estimated scf accuracy    <       0.00003262 Ry

     iteration # 83     ecut=    30.00 Ry     beta= 0.70
     Davidson diagonalization with overlap

---- Real-time Memory Report at c_bands before calling an iterative solver
           286 MiB given to the printing process from OS
             0 MiB allocation reported by mallinfo(arena+hblkhd)
        191020 MiB available memory on the node where the printing process lives
------------------
     ethr =  1.60E-08,  avg # of iterations =  1.0

     total cpu time spent up to now is      115.1 secs

     total energy              =   -1012.39623855 Ry
     estimated scf accuracy    <       0.00001136 Ry

     iteration # 84     ecut=    30.00 Ry     beta= 0.70
     Davidson diagonalization with overlap

---- Real-time Memory Report at c_bands before calling an iterative solver
           286 MiB given to the printing process from OS
             0 MiB allocation reported by mallinfo(arena+hblkhd)
        191024 MiB available memory on the node where the printing process lives
------------------
     ethr =  1.60E-08,  avg # of iterations =  1.0

     total cpu time spent up to now is      116.7 secs

     total energy              =   -1012.39623867 Ry
     estimated scf accuracy    <       0.00001383 Ry

     iteration # 85     ecut=    30.00 Ry     beta= 0.70
     Davidson diagonalization with overlap

---- Real-time Memory Report at c_bands before calling an iterative solver
           286 MiB given to the printing process from OS
             0 MiB allocation reported by mallinfo(arena+hblkhd)
        191022 MiB available memory on the node where the printing process lives
------------------
     ethr =  1.60E-08,  avg # of iterations =  1.0

     total cpu time spent up to now is      118.4 secs

     total energy              =   -1012.39623856 Ry
     estimated scf accuracy    <       0.00000940 Ry

     iteration # 86     ecut=    30.00 Ry     beta= 0.70
     Davidson diagonalization with overlap

---- Real-time Memory Report at c_bands before calling an iterative solver
           286 MiB given to the printing process from OS
             0 MiB allocation reported by mallinfo(arena+hblkhd)
        191021 MiB available memory on the node where the printing process lives
------------------
     ethr =  1.60E-08,  avg # of iterations =  1.0

     total cpu time spent up to now is      119.3 secs

     total energy              =   -1012.39623888 Ry
     estimated scf accuracy    <       0.00001072 Ry

     iteration # 87     ecut=    30.00 Ry     beta= 0.70
     Davidson diagonalization with overlap

---- Real-time Memory Report at c_bands before calling an iterative solver
           286 MiB given to the printing process from OS
             0 MiB allocation reported by mallinfo(arena+hblkhd)
        191019 MiB available memory on the node where the printing process lives
------------------
     ethr =  1.60E-08,  avg # of iterations =  1.0

     total cpu time spent up to now is      120.1 secs

     total energy              =   -1012.39623885 Ry
     estimated scf accuracy    <       0.00001378 Ry

     iteration # 88     ecut=    30.00 Ry     beta= 0.70
     Davidson diagonalization with overlap

---- Real-time Memory Report at c_bands before calling an iterative solver
           286 MiB given to the printing process from OS
             0 MiB allocation reported by mallinfo(arena+hblkhd)
        191022 MiB available memory on the node where the printing process lives
------------------
     ethr =  1.60E-08,  avg # of iterations =  1.0

     total cpu time spent up to now is      121.9 secs

     total energy              =   -1012.39623882 Ry
     estimated scf accuracy    <       0.00001373 Ry

     iteration # 89     ecut=    30.00 Ry     beta= 0.70
     Davidson diagonalization with overlap

---- Real-time Memory Report at c_bands before calling an iterative solver
           286 MiB given to the printing process from OS
             0 MiB allocation reported by mallinfo(arena+hblkhd)
        191023 MiB available memory on the node where the printing process lives
------------------
     ethr =  1.60E-08,  avg # of iterations =  1.0

     total cpu time spent up to now is      123.8 secs

     total energy              =   -1012.39623223 Ry
     estimated scf accuracy    <       0.00000810 Ry

     iteration # 90     ecut=    30.00 Ry     beta= 0.70
     Davidson diagonalization with overlap

---- Real-time Memory Report at c_bands before calling an iterative solver
           286 MiB given to the printing process from OS
             0 MiB allocation reported by mallinfo(arena+hblkhd)
        191022 MiB available memory on the node where the printing process lives
------------------
     ethr =  1.60E-08,  avg # of iterations =  1.0

     total cpu time spent up to now is      124.7 secs

     total energy              =   -1012.39617329 Ry
     estimated scf accuracy    <       0.00135278 Ry

     iteration # 91     ecut=    30.00 Ry     beta= 0.70
     Davidson diagonalization with overlap

---- Real-time Memory Report at c_bands before calling an iterative solver
           286 MiB given to the printing process from OS
             0 MiB allocation reported by mallinfo(arena+hblkhd)
        191024 MiB available memory on the node where the printing process lives
------------------
     ethr =  1.60E-08,  avg # of iterations =  1.0

     total cpu time spent up to now is      126.2 secs

     total energy              =   -1012.39623792 Ry
     estimated scf accuracy    <       0.00001187 Ry

     iteration # 92     ecut=    30.00 Ry     beta= 0.70
     Davidson diagonalization with overlap

---- Real-time Memory Report at c_bands before calling an iterative solver
           286 MiB given to the printing process from OS
             0 MiB allocation reported by mallinfo(arena+hblkhd)
        191021 MiB available memory on the node where the printing process lives
------------------
     ethr =  1.60E-08,  avg # of iterations =  1.0

     total cpu time spent up to now is      127.1 secs

     total energy              =   -1012.39623115 Ry
     estimated scf accuracy    <       0.00006595 Ry

     iteration # 93     ecut=    30.00 Ry     beta= 0.70
     Davidson diagonalization with overlap

---- Real-time Memory Report at c_bands before calling an iterative solver
           286 MiB given to the printing process from OS
             0 MiB allocation reported by mallinfo(arena+hblkhd)
        191025 MiB available memory on the node where the printing process lives
------------------
     ethr =  1.60E-08,  avg # of iterations =  1.0

     total cpu time spent up to now is      127.9 secs

     total energy              =   -1012.39623848 Ry
     estimated scf accuracy    <       0.00001099 Ry

     iteration # 94     ecut=    30.00 Ry     beta= 0.70
     Davidson diagonalization with overlap

---- Real-time Memory Report at c_bands before calling an iterative solver
           286 MiB given to the printing process from OS
             0 MiB allocation reported by mallinfo(arena+hblkhd)
        191024 MiB available memory on the node where the printing process lives
------------------
     ethr =  1.60E-08,  avg # of iterations =  1.0

     total cpu time spent up to now is      128.7 secs

     total energy              =   -1012.39623843 Ry
     estimated scf accuracy    <       0.00001042 Ry

     iteration # 95     ecut=    30.00 Ry     beta= 0.70
     Davidson diagonalization with overlap

---- Real-time Memory Report at c_bands before calling an iterative solver
           286 MiB given to the printing process from OS
             0 MiB allocation reported by mallinfo(arena+hblkhd)
        191024 MiB available memory on the node where the printing process lives
------------------
     ethr =  1.60E-08,  avg # of iterations =  1.0

     total cpu time spent up to now is      129.6 secs

     total energy              =   -1012.39623808 Ry
     estimated scf accuracy    <       0.00001129 Ry

     iteration # 96     ecut=    30.00 Ry     beta= 0.70
     Davidson diagonalization with overlap

---- Real-time Memory Report at c_bands before calling an iterative solver
           286 MiB given to the printing process from OS
             0 MiB allocation reported by mallinfo(arena+hblkhd)
        191024 MiB available memory on the node where the printing process lives
------------------
     ethr =  1.60E-08,  avg # of iterations =  1.0

     total cpu time spent up to now is      130.5 secs

     total energy              =   -1012.39623795 Ry
     estimated scf accuracy    <       0.00000760 Ry

     iteration # 97     ecut=    30.00 Ry     beta= 0.70
     Davidson diagonalization with overlap

---- Real-time Memory Report at c_bands before calling an iterative solver
           286 MiB given to the printing process from OS
             0 MiB allocation reported by mallinfo(arena+hblkhd)
        190831 MiB available memory on the node where the printing process lives
------------------
     ethr =  1.60E-08,  avg # of iterations =  1.0

     total cpu time spent up to now is      131.3 secs

     total energy              =   -1012.39623778 Ry
     estimated scf accuracy    <       0.00000839 Ry

     iteration # 98     ecut=    30.00 Ry     beta= 0.70
     Davidson diagonalization with overlap

---- Real-time Memory Report at c_bands before calling an iterative solver
           286 MiB given to the printing process from OS
             0 MiB allocation reported by mallinfo(arena+hblkhd)
        190828 MiB available memory on the node where the printing process lives
------------------
     ethr =  1.60E-08,  avg # of iterations =  1.0

     total cpu time spent up to now is      132.3 secs

     total energy              =   -1012.39623882 Ry
     estimated scf accuracy    <       0.00000916 Ry

     iteration # 99     ecut=    30.00 Ry     beta= 0.70
     Davidson diagonalization with overlap

---- Real-time Memory Report at c_bands before calling an iterative solver
           286 MiB given to the printing process from OS
             0 MiB allocation reported by mallinfo(arena+hblkhd)
        190828 MiB available memory on the node where the printing process lives
------------------
     ethr =  1.60E-08,  avg # of iterations =  1.0

     total cpu time spent up to now is      133.5 secs

     total energy              =   -1012.39623463 Ry
     estimated scf accuracy    <       0.00000756 Ry

     iteration #100     ecut=    30.00 Ry     beta= 0.70
     Davidson diagonalization with overlap

---- Real-time Memory Report at c_bands before calling an iterative solver
           286 MiB given to the printing process from OS
             0 MiB allocation reported by mallinfo(arena+hblkhd)
        190828 MiB available memory on the node where the printing process lives
------------------
     ethr =  1.60E-08,  avg # of iterations =  1.0

     total cpu time spent up to now is      134.5 secs

     total energy              =   -1012.39619804 Ry
     estimated scf accuracy    <       0.00081888 Ry

     iteration #101     ecut=    30.00 Ry     beta= 0.70
     Davidson diagonalization with overlap

---- Real-time Memory Report at c_bands before calling an iterative solver
           286 MiB given to the printing process from OS
             0 MiB allocation reported by mallinfo(arena+hblkhd)
        190830 MiB available memory on the node where the printing process lives
------------------
     ethr =  1.60E-08,  avg # of iterations =  1.0

     total cpu time spent up to now is      135.3 secs

     total energy              =   -1012.39623856 Ry
     estimated scf accuracy    <       0.00001157 Ry

     iteration #102     ecut=    30.00 Ry     beta= 0.70
     Davidson diagonalization with overlap

---- Real-time Memory Report at c_bands before calling an iterative solver
           286 MiB given to the printing process from OS
             0 MiB allocation reported by mallinfo(arena+hblkhd)
        190828 MiB available memory on the node where the printing process lives
------------------
     ethr =  1.60E-08,  avg # of iterations =  1.0

     total cpu time spent up to now is      136.2 secs

     total energy              =   -1012.39623725 Ry
     estimated scf accuracy    <       0.00000812 Ry

     iteration #103     ecut=    30.00 Ry     beta= 0.70
     Davidson diagonalization with overlap

---- Real-time Memory Report at c_bands before calling an iterative solver
           286 MiB given to the printing process from OS
             0 MiB allocation reported by mallinfo(arena+hblkhd)
        190829 MiB available memory on the node where the printing process lives
------------------
     ethr =  1.60E-08,  avg # of iterations =  1.0

     total cpu time spent up to now is      137.0 secs

     total energy              =   -1012.39623884 Ry
     estimated scf accuracy    <       0.00001014 Ry

     iteration #104     ecut=    30.00 Ry     beta= 0.70
     Davidson diagonalization with overlap

---- Real-time Memory Report at c_bands before calling an iterative solver
           286 MiB given to the printing process from OS
             0 MiB allocation reported by mallinfo(arena+hblkhd)
        191137 MiB available memory on the node where the printing process lives
------------------
     ethr =  1.60E-08,  avg # of iterations =  1.0

     total cpu time spent up to now is      137.8 secs

     total energy              =   -1012.39623867 Ry
     estimated scf accuracy    <       0.00001075 Ry

     iteration #105     ecut=    30.00 Ry     beta= 0.70
     Davidson diagonalization with overlap

---- Real-time Memory Report at c_bands before calling an iterative solver
           286 MiB given to the printing process from OS
             0 MiB allocation reported by mallinfo(arena+hblkhd)
        191037 MiB available memory on the node where the printing process lives
------------------
     ethr =  1.60E-08,  avg # of iterations =  1.0

     total cpu time spent up to now is      138.6 secs

     total energy              =   -1012.39623879 Ry
     estimated scf accuracy    <       0.00000886 Ry

     iteration #106     ecut=    30.00 Ry     beta= 0.70
     Davidson diagonalization with overlap

---- Real-time Memory Report at c_bands before calling an iterative solver
           286 MiB given to the printing process from OS
             0 MiB allocation reported by mallinfo(arena+hblkhd)
        190976 MiB available memory on the node where the printing process lives
------------------
     ethr =  1.60E-08,  avg # of iterations =  1.0

     total cpu time spent up to now is      139.5 secs

     total energy              =   -1012.39623587 Ry
     estimated scf accuracy    <       0.00000858 Ry

     iteration #107     ecut=    30.00 Ry     beta= 0.70
     Davidson diagonalization with overlap

---- Real-time Memory Report at c_bands before calling an iterative solver
           286 MiB given to the printing process from OS
             0 MiB allocation reported by mallinfo(arena+hblkhd)
        191002 MiB available memory on the node where the printing process lives
------------------
     ethr =  1.60E-08,  avg # of iterations =  1.0

     total cpu time spent up to now is      140.6 secs

     total energy              =   -1012.39623778 Ry
     estimated scf accuracy    <       0.00002342 Ry

     iteration #108     ecut=    30.00 Ry     beta= 0.70
     Davidson diagonalization with overlap

---- Real-time Memory Report at c_bands before calling an iterative solver
           286 MiB given to the printing process from OS
             0 MiB allocation reported by mallinfo(arena+hblkhd)
        190692 MiB available memory on the node where the printing process lives
------------------
     ethr =  1.60E-08,  avg # of iterations =  1.0

     total cpu time spent up to now is      141.8 secs

     total energy              =   -1012.39623699 Ry
     estimated scf accuracy    <       0.00001397 Ry

     iteration #109     ecut=    30.00 Ry     beta= 0.70
     Davidson diagonalization with overlap

---- Real-time Memory Report at c_bands before calling an iterative solver
           286 MiB given to the printing process from OS
             0 MiB allocation reported by mallinfo(arena+hblkhd)
        190680 MiB available memory on the node where the printing process lives
------------------
     ethr =  1.60E-08,  avg # of iterations =  1.0

     total cpu time spent up to now is      143.0 secs

     total energy              =   -1012.39622725 Ry
     estimated scf accuracy    <       0.00010606 Ry

     iteration #110     ecut=    30.00 Ry     beta= 0.70
     Davidson diagonalization with overlap

---- Real-time Memory Report at c_bands before calling an iterative solver
           286 MiB given to the printing process from OS
             0 MiB allocation reported by mallinfo(arena+hblkhd)
        190681 MiB available memory on the node where the printing process lives
------------------
     ethr =  1.60E-08,  avg # of iterations =  1.0

     total cpu time spent up to now is      144.0 secs

     total energy              =   -1012.39621821 Ry
     estimated scf accuracy    <       0.00041209 Ry

     iteration #111     ecut=    30.00 Ry     beta= 0.70
     Davidson diagonalization with overlap

---- Real-time Memory Report at c_bands before calling an iterative solver
           286 MiB given to the printing process from OS
             0 MiB allocation reported by mallinfo(arena+hblkhd)
        190679 MiB available memory on the node where the printing process lives
------------------
     ethr =  1.60E-08,  avg # of iterations =  1.0

     total cpu time spent up to now is      144.8 secs

     total energy              =   -1012.39623830 Ry
     estimated scf accuracy    <       0.00000550 Ry

     iteration #112     ecut=    30.00 Ry     beta= 0.70
     Davidson diagonalization with overlap

---- Real-time Memory Report at c_bands before calling an iterative solver
           286 MiB given to the printing process from OS
             0 MiB allocation reported by mallinfo(arena+hblkhd)
        190674 MiB available memory on the node where the printing process lives
------------------
     ethr =  1.31E-08,  avg # of iterations =  1.0

     total cpu time spent up to now is      145.7 secs

     total energy              =   -1012.39623832 Ry
     estimated scf accuracy    <       0.00000254 Ry

     iteration #113     ecut=    30.00 Ry     beta= 0.70
     Davidson diagonalization with overlap

[...]

          k = 0.0000 0.6204-0.3192 (  1934 PWs)   bands (ev):

   -44.8261 -39.8178 -16.7405 -16.7355 -16.7306 -15.0969 -15.0538 -14.9869
    -5.2625  -4.9995   3.5398   3.9185   4.2264   4.9017   5.3277   5.4333
     6.4493   6.4692   6.4879   6.5080   6.5564   6.6240   6.7082   9.4241
    11.1204  11.7293  11.8893  12.3558  12.6866  13.2335  13.8406  14.7623
    15.5612  16.5819  16.5972  16.9229  17.8240  18.4573  19.6309  20.6279
    20.7322  22.2941  23.0049  23.7417  23.8225  24.3103  24.4142  24.4459
    24.8241  25.6019  26.2423  27.1785  27.3264  27.7284  28.2143  29.3749
    29.9915  30.0640  30.5191  30.7457  31.3792  32.2211  32.6555  33.1589

     occupation numbers 
     1.0000   1.0000   1.0000   1.0000   1.0000   1.0000   1.0000   1.0000
     1.0000   1.0000   1.0000   1.0000   1.0000   1.0000   1.0000   1.0000
     1.0000   1.0000   1.0000   1.0000   1.0000   0.0000   0.0000   0.0000
     0.0000   0.0000   0.0000   0.0000   0.0000   0.0000   0.0000   0.0000
     0.0000   0.0000   0.0000   0.0000   0.0000   0.0000   0.0000   0.0000
     0.0000   0.0000   0.0000   0.0000   0.0000   0.0000   0.0000   0.0000
     0.0000   0.0000   0.0000   0.0000   0.0000   0.0000   0.0000   0.0000
     0.0000   0.0000   0.0000   0.0000   0.0000   0.0000   0.0000   0.0000

          k = 0.0000 0.6204 0.3785 (  1923 PWs)   bands (ev):

   -44.8259 -39.8178 -16.7393 -16.7344 -16.7306 -15.0969 -15.0538 -14.9868
    -5.2092  -5.0562   3.4054   3.8083   4.5263   4.9467   5.3916   5.4391
     6.4500   6.4706   6.4962   6.5091   6.5595   6.6202   6.6919   9.2237
    10.7046  11.6413  11.8606  12.5131  12.7821  12.8471  13.9239  15.6724
    15.7744  16.2476  16.5886  18.1003  18.3266  18.8024  19.2320  19.9261
    20.5013  20.7224  21.9819  23.1339  23.9952  24.2800  24.6897  24.8818
    25.1349  25.2550  26.3187  27.1106  27.8387  27.9296  28.4981  29.2178
    30.0586  30.4231  31.4462  32.0049  32.4813  32.7961  33.2017  33.4020

     occupation numbers 
     1.0000   1.0000   1.0000   1.0000   1.0000   1.0000   1.0000   1.0000
     1.0000   1.0000   1.0000   1.0000   1.0000   1.0000   1.0000   1.0000
     1.0000   1.0000   1.0000   1.0000   1.0000   0.0000   0.0000   0.0000
     0.0000   0.0000   0.0000   0.0000   0.0000   0.0000   0.0000   0.0000
     0.0000   0.0000   0.0000   0.0000   0.0000   0.0000   0.0000   0.0000
     0.0000   0.0000   0.0000   0.0000   0.0000   0.0000   0.0000   0.0000
     0.0000   0.0000   0.0000   0.0000   0.0000   0.0000   0.0000   0.0000
     0.0000   0.0000   0.0000   0.0000   0.0000   0.0000   0.0000   0.0000

          k = 0.0000 0.6204-1.0169 (  1939 PWs)   bands (ev):

   -44.8260 -39.8160 -16.7410 -16.7402 -16.7301 -15.0818 -15.0807 -15.0368
    -4.9999  -4.9999   3.6400   3.7975   4.0348   4.6102   4.8995   5.1388
     6.4421   6.4430   6.4454   6.4656   6.5455   6.5500   6.5749  10.5040
    11.0401  11.1388  11.8602  12.8833  13.2852  13.5041  14.4485  15.3087
    15.6054  16.0352  16.5444  17.1090  18.5318  19.1984  19.2871  20.3173
    20.4506  22.4935  23.2183  23.2295  23.7386  23.8288  24.0077  25.3448
    25.4205  26.4212  27.0063  27.4799  28.0249  28.1415  28.2332  28.6445
    28.7924  30.2599  30.4734  30.9526  31.2585  31.5845  31.5911  31.9367

     occupation numbers 
     1.0000   1.0000   1.0000   1.0000   1.0000   1.0000   1.0000   1.0000
     1.0000   1.0000   1.0000   1.0000   1.0000   1.0000   1.0000   1.0000
     1.0000   1.0000   1.0000   1.0000   1.0000   0.0000   0.0000   0.0000
     0.0000   0.0000   0.0000   0.0000   0.0000   0.0000   0.0000   0.0000
     0.0000   0.0000   0.0000   0.0000   0.0000   0.0000   0.0000   0.0000
     0.0000   0.0000   0.0000   0.0000   0.0000   0.0000   0.0000   0.0000
     0.0000   0.0000   0.0000   0.0000   0.0000   0.0000   0.0000   0.0000
     0.0000   0.0000   0.0000   0.0000   0.0000   0.0000   0.0000   0.0000

          k = 0.3333-0.5232-0.3192 (  1934 PWs)   bands (ev):

   -44.8261 -39.8178 -16.7405 -16.7355 -16.7306 -15.0970 -15.0539 -14.9868
    -5.2625  -4.9995   3.5398   3.9185   4.2264   4.9017   5.3278   5.4333
     6.4493   6.4692   6.4878   6.5078   6.5563   6.6241   6.7083   9.4242
    11.1204  11.7293  11.8893  12.3558  12.6866  13.2335  13.8406  14.7623
    15.5612  16.5819  16.5972  16.9229  17.8240  18.4573  19.6309  20.6279
    20.7322  22.2941  23.0049  23.7417  23.8225  24.3103  24.4142  24.4459
    24.8241  25.6019  26.2423  27.1785  27.3264  27.7283  28.2143  29.3749
    29.9915  30.0640  30.5191  30.7457  31.3792  32.2211  32.6555  33.1589

     occupation numbers 
     1.0000   1.0000   1.0000   1.0000   1.0000   1.0000   1.0000   1.0000
     1.0000   1.0000   1.0000   1.0000   1.0000   1.0000   1.0000   1.0000
     1.0000   1.0000   1.0000   1.0000   1.0000   0.0000   0.0000   0.0000
     0.0000   0.0000   0.0000   0.0000   0.0000   0.0000   0.0000   0.0000
     0.0000   0.0000   0.0000   0.0000   0.0000   0.0000   0.0000   0.0000
     0.0000   0.0000   0.0000   0.0000   0.0000   0.0000   0.0000   0.0000
     0.0000   0.0000   0.0000   0.0000   0.0000   0.0000   0.0000   0.0000
     0.0000   0.0000   0.0000   0.0000   0.0000   0.0000   0.0000   0.0000

          k = 0.3333-0.5232 0.3785 (  1923 PWs)   bands (ev):

   -44.8259 -39.8178 -16.7393 -16.7344 -16.7306 -15.0969 -15.0538 -14.9868
    -5.2092  -5.0562   3.4054   3.8083   4.5263   4.9467   5.3916   5.4391
     6.4500   6.4707   6.4961   6.5093   6.5596   6.6202   6.6918   9.2237
    10.7046  11.6413  11.8606  12.5131  12.7821  12.8471  13.9239  15.6724
    15.7744  16.2476  16.5886  18.1003  18.3266  18.8024  19.2320  19.9260
    20.5013  20.7224  21.9819  23.1339  23.9952  24.2800  24.6897  24.8818
    25.1349  25.2550  26.3187  27.1106  27.8387  27.9296  28.4981  29.2178
    30.0586  30.4231  31.4462  32.0049  32.4813  32.7961  33.2017  33.4020

     occupation numbers 
     1.0000   1.0000   1.0000   1.0000   1.0000   1.0000   1.0000   1.0000
     1.0000   1.0000   1.0000   1.0000   1.0000   1.0000   1.0000   1.0000
     1.0000   1.0000   1.0000   1.0000   1.0000   0.0000   0.0000   0.0000
     0.0000   0.0000   0.0000   0.0000   0.0000   0.0000   0.0000   0.0000
     0.0000   0.0000   0.0000   0.0000   0.0000   0.0000   0.0000   0.0000
     0.0000   0.0000   0.0000   0.0000   0.0000   0.0000   0.0000   0.0000
     0.0000   0.0000   0.0000   0.0000   0.0000   0.0000   0.0000   0.0000
     0.0000   0.0000   0.0000   0.0000   0.0000   0.0000   0.0000   0.0000

          k = 0.3333-0.5232-1.0169 (  1939 PWs)   bands (ev):

   -44.8260 -39.8160 -16.7410 -16.7402 -16.7301 -15.0818 -15.0807 -15.0368
    -4.9999  -4.9999   3.6400   3.7975   4.0348   4.6102   4.8995   5.1388
     6.4421   6.4431   6.4453   6.4656   6.5456   6.5499   6.5749  10.5039
    11.0401  11.1388  11.8602  12.8833  13.2852  13.5041  14.4485  15.3087
    15.6054  16.0352  16.5444  17.1090  18.5318  19.1984  19.2871  20.3173
    20.4506  22.4935  23.2183  23.2295  23.7386  23.8288  24.0077  25.3448
    25.4205  26.4212  27.0063  27.4799  28.0249  28.1415  28.2332  28.6445
    28.7924  30.2599  30.4734  30.9526  31.2585  31.5845  31.5912  31.9367

     occupation numbers 
     1.0000   1.0000   1.0000   1.0000   1.0000   1.0000   1.0000   1.0000
     1.0000   1.0000   1.0000   1.0000   1.0000   1.0000   1.0000   1.0000
     1.0000   1.0000   1.0000   1.0000   1.0000   0.0000   0.0000   0.0000
     0.0000   0.0000   0.0000   0.0000   0.0000   0.0000   0.0000   0.0000
     0.0000   0.0000   0.0000   0.0000   0.0000   0.0000   0.0000   0.0000
     0.0000   0.0000   0.0000   0.0000   0.0000   0.0000   0.0000   0.0000
     0.0000   0.0000   0.0000   0.0000   0.0000   0.0000   0.0000   0.0000
     0.0000   0.0000   0.0000   0.0000   0.0000   0.0000   0.0000   0.0000

          k = 0.3333 0.0972-0.6384 (  1923 PWs)   bands (ev):

   -44.8259 -39.8178 -16.7393 -16.7344 -16.7306 -15.0980 -15.0534 -14.9861
    -5.2092  -5.0562   3.4053   3.8084   4.5262   4.9467   5.3916   5.4390
     6.4512   6.4722   6.4979   6.5085   6.5578   6.6191   6.6911   9.2233
    10.7046  11.6416  11.8606  12.5129  12.7823  12.8472  13.9238  15.6724
    15.7745  16.2477  16.5883  18.1004  18.3265  18.8025  19.2321  19.9259
    20.5015  20.7224  21.9819  23.1339  23.9949  24.2799  24.6897  24.8818
    25.1349  25.2551  26.3188  27.1106  27.8386  27.9296  28.4982  29.2178
    30.0585  30.4232  31.4461  32.0048  32.4812  32.7959  33.2017  33.4019

     occupation numbers 
     1.0000   1.0000   1.0000   1.0000   1.0000   1.0000   1.0000   1.0000
     1.0000   1.0000   1.0000   1.0000   1.0000   1.0000   1.0000   1.0000
     1.0000   1.0000   1.0000   1.0000   1.0000   0.0000   0.0000   0.0000
     0.0000   0.0000   0.0000   0.0000   0.0000   0.0000   0.0000   0.0000
     0.0000   0.0000   0.0000   0.0000   0.0000   0.0000   0.0000   0.0000
     0.0000   0.0000   0.0000   0.0000   0.0000   0.0000   0.0000   0.0000
     0.0000   0.0000   0.0000   0.0000   0.0000   0.0000   0.0000   0.0000
     0.0000   0.0000   0.0000   0.0000   0.0000   0.0000   0.0000   0.0000

          k = 0.3333 0.0972 0.0593 (  1931 PWs)   bands (ev):

   -44.8265 -39.8215 -16.7337 -16.7336 -16.7336 -15.0938 -14.9600 -14.9590
    -5.6659  -5.0927   3.3745   4.8532   4.9433   4.9433   5.7012   5.7013
     6.4911   6.5068   6.5069   6.5202   6.6770   6.9890   6.9892   9.9657
    10.3032  10.3038  10.9670  11.6337  12.4571  12.4572  13.6268  15.0238
    15.0239  16.9455  16.9864  16.9865  18.1054  18.5481  18.5482  19.2495
    20.7667  20.7972  20.7975  22.7696  23.2353  23.2355  24.8147  24.8149
    24.8547  27.1812  27.1813  27.5646  28.5326  28.5327  28.5419  30.9703
    30.9704  31.6360  32.5439  32.8744  33.6685  33.6685  34.3770  34.3771

     occupation numbers 
     1.0000   1.0000   1.0000   1.0000   1.0000   1.0000   1.0000   1.0000
     1.0000   1.0000   1.0000   1.0000   1.0000   1.0000   1.0000   1.0000
     1.0000   1.0000   1.0000   1.0000   1.0000   0.0000   0.0000   0.0000
     0.0000   0.0000   0.0000   0.0000   0.0000   0.0000   0.0000   0.0000
     0.0000   0.0000   0.0000   0.0000   0.0000   0.0000   0.0000   0.0000
     0.0000   0.0000   0.0000   0.0000   0.0000   0.0000   0.0000   0.0000
     0.0000   0.0000   0.0000   0.0000   0.0000   0.0000   0.0000   0.0000
     0.0000   0.0000   0.0000   0.0000   0.0000   0.0000   0.0000   0.0000

          k = 0.3333 0.0972-1.3361 (  1941 PWs)   bands (ev):

   -44.8262 -39.8178 -16.7404 -16.7357 -16.7322 -15.0979 -15.0536 -14.9861
    -5.2215  -5.0410   3.2983   3.7753   4.7950   4.9896   5.3342   5.3395
     6.4519   6.4634   6.4988   6.5058   6.5564   6.6745   6.6825   9.0255
    10.8579  11.4374  11.7293  12.6155  12.9894  13.0175  15.1185  15.1876
    15.4109  15.7156  16.4024  17.3470  17.6972  18.6509  19.5968  20.8811
    21.4649  21.8447  22.9046  23.1680  23.5087  23.6529  23.9736  24.5165
    25.0871  25.1080  25.3144  26.5792  27.0990  27.7114  29.1147  29.8227
    30.3132  30.9577  31.8580  31.9347  32.3019  32.3946  33.3632  33.4958

     occupation numbers 
     1.0000   1.0000   1.0000   1.0000   1.0000   1.0000   1.0000   1.0000
     1.0000   1.0000   1.0000   1.0000   1.0000   1.0000   1.0000   1.0000
     1.0000   1.0000   1.0000   1.0000   1.0000   0.0000   0.0000   0.0000
     0.0000   0.0000   0.0000   0.0000   0.0000   0.0000   0.0000   0.0000
     0.0000   0.0000   0.0000   0.0000   0.0000   0.0000   0.0000   0.0000
     0.0000   0.0000   0.0000   0.0000   0.0000   0.0000   0.0000   0.0000
     0.0000   0.0000   0.0000   0.0000   0.0000   0.0000   0.0000   0.0000
     0.0000   0.0000   0.0000   0.0000   0.0000   0.0000   0.0000   0.0000

          k = 0.3333-1.1436-0.0000 (  1939 PWs)   bands (ev):

   -44.8260 -39.8160 -16.7411 -16.7402 -16.7301 -15.0817 -15.0808 -15.0368
    -4.9999  -4.9999   3.6400   3.7974   4.0349   4.6103   4.8997   5.1385
     6.4417   6.4434   6.4455   6.4658   6.5458   6.5494   6.5749  10.5039
    11.0399  11.1392  11.8601  12.8835  13.2850  13.5041  14.4486  15.3088
    15.6055  16.0352  16.5444  17.1089  18.5318  19.1985  19.2870  20.3172
    20.4505  22.4936  23.2183  23.2295  23.7386  23.8290  24.0076  25.3448
    25.4205  26.4212  27.0063  27.4799  28.0250  28.1415  28.2332  28.6446
    28.7924  30.2601  30.4734  30.9524  31.2584  31.5845  31.5912  31.9367

     occupation numbers 
     1.0000   1.0000   1.0000   1.0000   1.0000   1.0000   1.0000   1.0000
     1.0000   1.0000   1.0000   1.0000   1.0000   1.0000   1.0000   1.0000
     1.0000   1.0000   1.0000   1.0000   1.0000   0.0000   0.0000   0.0000
     0.0000   0.0000   0.0000   0.0000   0.0000   0.0000   0.0000   0.0000
     0.0000   0.0000   0.0000   0.0000   0.0000   0.0000   0.0000   0.0000
     0.0000   0.0000   0.0000   0.0000   0.0000   0.0000   0.0000   0.0000
     0.0000   0.0000   0.0000   0.0000   0.0000   0.0000   0.0000   0.0000
     0.0000   0.0000   0.0000   0.0000   0.0000   0.0000   0.0000   0.0000

          k = 0.3333-1.1436 0.6977 (  1941 PWs)   bands (ev):

   -44.8262 -39.8178 -16.7404 -16.7357 -16.7322 -15.0968 -15.0540 -14.9869
    -5.2215  -5.0409   3.2985   3.7751   4.7949   4.9896   5.3344   5.3395
     6.4508   6.4632   6.4964   6.5065   6.5581   6.6751   6.6832   9.0258
    10.8580  11.4374  11.7289  12.6157  12.9894  13.0173  15.1185  15.1876
    15.4109  15.7157  16.4025  17.3471  17.6970  18.6507  19.5969  20.8811
    21.4648  21.8447  22.9046  23.1678  23.5089  23.6529  23.9736  24.5166
    25.0871  25.1079  25.3144  26.5791  27.0988  27.7115  29.1145  29.8227
    30.3133  30.9577  31.8580  31.9347  32.3021  32.3947  33.3633  33.4959

     occupation numbers 
     1.0000   1.0000   1.0000   1.0000   1.0000   1.0000   1.0000   1.0000
     1.0000   1.0000   1.0000   1.0000   1.0000   1.0000   1.0000   1.0000
     1.0000   1.0000   1.0000   1.0000   1.0000   0.0000   0.0000   0.0000
     0.0000   0.0000   0.0000   0.0000   0.0000   0.0000   0.0000   0.0000
     0.0000   0.0000   0.0000   0.0000   0.0000   0.0000   0.0000   0.0000
     0.0000   0.0000   0.0000   0.0000   0.0000   0.0000   0.0000   0.0000
     0.0000   0.0000   0.0000   0.0000   0.0000   0.0000   0.0000   0.0000
     0.0000   0.0000   0.0000   0.0000   0.0000   0.0000   0.0000   0.0000

          k = 0.3333-1.1436-0.6977 (  1941 PWs)   bands (ev):

   -44.8262 -39.8178 -16.7404 -16.7357 -16.7322 -15.0968 -15.0540 -14.9868
    -5.2215  -5.0409   3.2985   3.7751   4.7949   4.9896   5.3344   5.3395
     6.4508   6.4631   6.4964   6.5063   6.5580   6.6752   6.6834   9.0258
    10.8580  11.4374  11.7289  12.6157  12.9894  13.0173  15.1185  15.1876
    15.4109  15.7157  16.4025  17.3470  17.6970  18.6507  19.5969  20.8811
    21.4648  21.8447  22.9046  23.1678  23.5089  23.6529  23.9736  24.5166
    25.0871  25.1079  25.3144  26.5791  27.0988  27.7115  29.1145  29.8227
    30.3133  30.9577  31.8580  31.9347  32.3021  32.3947  33.3633  33.4959

     occupation numbers 
     1.0000   1.0000   1.0000   1.0000   1.0000   1.0000   1.0000   1.0000
     1.0000   1.0000   1.0000   1.0000   1.0000   1.0000   1.0000   1.0000
     1.0000   1.0000   1.0000   1.0000   1.0000   0.0000   0.0000   0.0000
     0.0000   0.0000   0.0000   0.0000   0.0000   0.0000   0.0000   0.0000
     0.0000   0.0000   0.0000   0.0000   0.0000   0.0000   0.0000   0.0000
     0.0000   0.0000   0.0000   0.0000   0.0000   0.0000   0.0000   0.0000
     0.0000   0.0000   0.0000   0.0000   0.0000   0.0000   0.0000   0.0000
     0.0000   0.0000   0.0000   0.0000   0.0000   0.0000   0.0000   0.0000

     highest occupied, lowest unoccupied level (ev):     6.9744    6.5494

!    total energy              =   -1012.39623570 Ry
     estimated scf accuracy    <       0.00000066 Ry

     The total energy is the sum of the following terms:
     one-electron contribution =    -355.02106071 Ry
     hartree contribution      =     187.89235516 Ry
     xc contribution           =    -104.26025286 Ry
     ewald contribution        =    -256.05911259 Ry
     one-center paw contrib.   =    -484.94816471 Ry
      -> PAW hartree energy AE =       0.00000000 Ry
      -> PAW hartree energy PS =       0.00000000 Ry
      -> PAW xc energy AE      =       0.00000000 Ry
      -> PAW xc energy PS      =       0.00000000 Ry
      -> total E_H with PAW    =     187.89235516 Ry
      -> total E_XC with PAW   =    -104.26025286 Ry

     convergence has been achieved in 116 iterations

     Writing all to output data dir bands_nm/myprefix.save/
 
     init_run     :      3.90s CPU      1.22s WALL (       1 calls)
     electrons    :    562.11s CPU    147.97s WALL (       1 calls)

     Called by init_run:
     wfcinit      :      0.76s CPU      0.20s WALL (       1 calls)
     wfcinit:atom :      0.00s CPU      0.00s WALL (       7 calls)
     wfcinit:wfcr :      0.74s CPU      0.19s WALL (       7 calls)
     potinit      :      0.67s CPU      0.18s WALL (       1 calls)
     hinit0       :      1.38s CPU      0.55s WALL (       1 calls)

     Called by electrons:
     c_bands      :    337.97s CPU     88.88s WALL (     116 calls)
     sum_band     :    120.81s CPU     31.84s WALL (     116 calls)
     v_of_rho     :      7.51s CPU      1.94s WALL (     117 calls)
     v_h          :      0.49s CPU      0.13s WALL (     117 calls)
     v_xc         :      7.02s CPU      1.81s WALL (     117 calls)
     newd         :     34.67s CPU      9.19s WALL (     117 calls)
     PAW_pot      :     57.26s CPU     15.01s WALL (     117 calls)
     mix_rho      :      1.65s CPU      0.43s WALL (     116 calls)

     Called by c_bands:
     init_us_2    :      0.93s CPU      0.26s WALL (    1631 calls)
     init_us_2:cp :      0.91s CPU      0.26s WALL (    1631 calls)
     cegterg      :    240.03s CPU     61.99s WALL (     812 calls)

     Called by sum_band:
     sum_band:wei :      0.03s CPU      0.01s WALL (     116 calls)
     sum_band:loo :     54.57s CPU     14.08s WALL (     116 calls)
     sum_band:buf :      0.43s CPU      0.08s WALL (     812 calls)
     sum_band:ini :      0.45s CPU      0.12s WALL (     812 calls)
     sum_band:cal :      2.90s CPU      0.70s WALL (     812 calls)
     sum_band:bec :      0.18s CPU      0.08s WALL (     812 calls)
     addusdens    :     22.93s CPU      6.25s WALL (     116 calls)
     addusd:skk   :      0.01s CPU      0.01s WALL (     348 calls)
     addusd:dgemm :      2.84s CPU      1.06s WALL (     348 calls)
     addusd:qvan2 :      9.94s CPU      2.64s WALL (     348 calls)

     Called by *egterg:
     cdiaghg      :     25.23s CPU      6.53s WALL (    1726 calls)
     cegterg:over :     10.08s CPU      2.33s WALL (     914 calls)
     cegterg:upda :      2.15s CPU      0.76s WALL (     914 calls)
     cegterg:last :      2.68s CPU      0.82s WALL (     872 calls)
     h_psi        :    188.27s CPU     48.82s WALL (    1733 calls)
     s_psi        :      2.99s CPU      0.90s WALL (    1733 calls)
     g_psi        :      0.08s CPU      0.03s WALL (     914 calls)

     Called by h_psi:
     h_psi:calbec :      5.59s CPU      1.41s WALL (    1733 calls)
     vloc_psi     :    180.07s CPU     46.40s WALL (    1733 calls)
     add_vuspsi   :      2.51s CPU      0.94s WALL (    1733 calls)

     General routines
     calbec       :      8.48s CPU      2.11s WALL (    2545 calls)
     fft          :      6.03s CPU      1.69s WALL (    1519 calls)
     ffts         :      0.81s CPU      0.22s WALL (     233 calls)
     fftw         :    221.35s CPU     51.71s WALL (  264506 calls)
     interpolate  :      0.90s CPU      0.24s WALL (     117 calls)
 
     Parallel routines

     PAW routines
     PAW_pot      :     57.26s CPU     15.01s WALL (     117 calls)
     PAW_symme    :      0.17s CPU      0.05s WALL (     233 calls)
 
     PWSCF        :   9m27.54s CPU   2m30.12s WALL

 
   This run was terminated on:  13: 2:35  16Jul2023            

=------------------------------------------------------------------------------=
   JOB DONE.
=------------------------------------------------------------------------------=
