
     Program PWSCF v.7.1 starts on 14Jul2023 at 21: 7:23 

     This program is part of the open-source Quantum ESPRESSO suite
     for quantum simulation of materials; please cite
         "P. Giannozzi et al., J. Phys.:Condens. Matter 21 395502 (2009);
         "P. Giannozzi et al., J. Phys.:Condens. Matter 29 465901 (2017);
         "P. Giannozzi et al., J. Chem. Phys. 152 154105 (2020);
          URL http://www.quantum-espresso.org", 
     in publications or presentations arising from this work. More details at
     http://www.quantum-espresso.org/quote

     Parallel version (MPI & OpenMP), running on      32 processor cores
     Number of MPI processes:                 8
     Threads/MPI process:                     4

     MPI processes distributed on     1 nodes
     219403 MiB available memory on the printing compute node when the environment starts
 
     Reading input from espresso_21997.pwi
Warning: card &CELL ignored
Warning: card / ignored

     Current dimensions of program PWSCF are:
     Max number of different atomic species (ntypx) = 10
     Max number of k-points (npk) =  40000
     Max angular momentum in pseudopotentials (lmaxx) =  4
     Message from routine setup:
     using ibrav=0 with symmetry is DISCOURAGED, use correct ibrav instead
 
     K-points division:     npool     =       2
     R & G space division:  proc/nbgrp/npool/nimage =       4
     Subspace diagonalization in iterative solution of the eigenvalue problem:
     a serial algorithm will be used

 
     Parallelization info
     --------------------
     sticks:   dense  smooth     PW     G-vecs:    dense   smooth      PW
     Min         326     164     46                11980     4244     659
     Max         327     165     49                11983     4247     660
     Sum        1307     659    189                47925    16981    2637
 
     Using Slab Decomposition
 


     bravais-lattice index     =            0
     lattice parameter (alat)  =       6.4305  a.u.
     unit-cell volume          =     763.9945 (a.u.)^3
     number of atoms/cell      =           16
     number of atomic types    =            2
     number of electrons       =        32.00
     number of Kohn-Sham states=           64
     kinetic-energy cutoff     =      30.0000  Ry
     charge density cutoff     =     240.0000  Ry
     scf convergence threshold =      1.0E-06
     mixing beta               =       0.7000
     number of iterations used =            8  plain     mixing
     Exchange-correlation= PBE
                           (   1   4   3   4   0   0   0)

     celldm(1)=   6.430534  celldm(2)=   0.000000  celldm(3)=   0.000000
     celldm(4)=   0.000000  celldm(5)=   0.000000  celldm(6)=   0.000000

     crystal axes: (cart. coord. in units of alat)
               a(1) = (   1.000000   0.000000   0.000000 )  
               a(2) = (   0.000000   1.659930   0.000000 )  
               a(3) = (   0.000000   0.000000   1.730850 )  

     reciprocal axes: (cart. coord. in units 2 pi/alat)
               b(1) = (  1.000000  0.000000  0.000000 )  
               b(2) = (  0.000000  0.602435  0.000000 )  
               b(3) = (  0.000000  0.000000  0.577751 )  


     PseudoPot. # 1 for H  read from file:
     /lustre07/scratch/pragov/crystal_structure_design/utils/SSSP/H.pbe-rrkjus_psl.1.0.0.UPF
     MD5 check sum: f52b6d4d1c606e5624b1dc7b2218f220
     Pseudo is Ultrasoft, Zval =  1.0
     Generated using "atomic" code by A. Dal Corso  v.5.1
     Using radial grid of  929 points,  2 beta functions with: 
                l(1) =   0
                l(2) =   0
     Q(r) pseudized with 0 coefficients 


     PseudoPot. # 2 for N  read from file:
     /lustre07/scratch/pragov/crystal_structure_design/utils/SSSP/N.pbe-n-radius_5.UPF
     MD5 check sum: 16739722b17309cd8fe442a2ace49922
     Pseudo is Ultrasoft + core correction, Zval =  5.0
     Generated using "atomic" code by A. Dal Corso  v.5.1
     Using radial grid of 1085 points,  4 beta functions with: 
                l(1) =   0
                l(2) =   0
                l(3) =   1
                l(4) =   1
     Q(r) pseudized with 0 coefficients 


     atomic species   valence    mass     pseudopotential
        H              1.00     1.00800     H ( 1.00)
        N              5.00    14.00700     N ( 1.00)

      4 Sym. Ops. (no inversion) found ( 3 have fractional translation)


                                    s                        frac. trans.

      isym =  1     identity                                     

 cryst.   s( 1) = (     1          0          0      )
                  (     0          1          0      )
                  (     0          0          1      )

 cart.    s( 1) = (  1.0000000  0.0000000  0.0000000 )
                  (  0.0000000  1.0000000  0.0000000 )
                  (  0.0000000  0.0000000  1.0000000 )


      isym =  2     180 deg rotation - cart. axis [0,0,1]        

 cryst.   s( 2) = (    -1          0          0      )    f =(  0.5000000 )
                  (     0         -1          0      )       (  0.0000000 )
                  (     0          0          1      )       ( -0.5000000 )

 cart.    s( 2) = ( -1.0000000  0.0000000  0.0000000 )    f =(  0.5000000 )
                  (  0.0000000 -1.0000000  0.0000000 )       (  0.0000000 )
                  (  0.0000000  0.0000000  1.0000000 )       ( -0.8654249 )


      isym =  3     180 deg rotation - cart. axis [0,1,0]        

 cryst.   s( 3) = (    -1          0          0      )    f =(  0.0000000 )
                  (     0          1          0      )       ( -0.5000000 )
                  (     0          0         -1      )       (  0.5000000 )

 cart.    s( 3) = ( -1.0000000  0.0000000  0.0000000 )    f =(  0.0000000 )
                  (  0.0000000  1.0000000  0.0000000 )       ( -0.8299649 )
                  (  0.0000000  0.0000000 -1.0000000 )       (  0.8654249 )


      isym =  4     180 deg rotation - cart. axis [1,0,0]        

 cryst.   s( 4) = (     1          0          0      )    f =( -0.5000000 )
                  (     0         -1          0      )       (  0.5000000 )
                  (     0          0         -1      )       (  0.0000000 )

 cart.    s( 4) = (  1.0000000  0.0000000  0.0000000 )    f =( -0.5000000 )
                  (  0.0000000 -1.0000000  0.0000000 )       (  0.8299649 )
                  (  0.0000000  0.0000000 -1.0000000 )       (  0.0000000 )


   Cartesian axes

     site n.     atom                  positions (alat units)
         1           H   tau(   1) = (   0.1222420   0.8036700   0.0958562  )
         2           H   tau(   2) = (   0.8777580   1.6336349   0.7695687  )
         3           H   tau(   3) = (   0.6222420   0.0262949   1.6349936  )
         4           H   tau(   4) = (   0.3777580   0.8562599   0.9612811  )
         5           H   tau(   5) = (   0.7295300   0.9470199   1.5870785  )
         6           H   tau(   6) = (   0.2704700   0.1170549   1.0091962  )
         7           H   tau(   7) = (   0.2295300   1.5428749   0.1437713  )
         8           H   tau(   8) = (   0.7704700   0.7129100   0.7216536  )
         9           H   tau(   9) = (   0.9786530   0.5651132   1.4301856  )
        10           H   tau(  10) = (   0.0213470   1.3950781   1.1660891  )
        11           H   tau(  11) = (   0.4786530   0.2648518   0.3006642  )
        12           H   tau(  12) = (   0.5213470   1.0948167   0.5647607  )
        13           N   tau(  13) = (   0.0101150   0.8405735   1.5494723  )
        14           N   tau(  14) = (   0.9898850   0.0106086   1.0468024  )
        15           N   tau(  15) = (   0.5101150   1.6493212   0.1813775  )
        16           N   tau(  16) = (   0.4898850   0.8193563   0.6840474  )

   Crystallographic axes

     site n.     atom                  positions (cryst. coord.)
         1           H   tau(   1) = (  0.1222420  0.4841590  0.0553810  )
         2           H   tau(   2) = (  0.8777580  0.9841590  0.4446190  )
         3           H   tau(   3) = (  0.6222420  0.0158410  0.9446190  )
         4           H   tau(   4) = (  0.3777580  0.5158410  0.5553810  )
         5           H   tau(   5) = (  0.7295300  0.5705180  0.9169360  )
         6           H   tau(   6) = (  0.2704700  0.0705180  0.5830640  )
         7           H   tau(   7) = (  0.2295300  0.9294820  0.0830640  )
         8           H   tau(   8) = (  0.7704700  0.4294820  0.4169360  )
         9           H   tau(   9) = (  0.9786530  0.3404440  0.8262910  )
        10           H   tau(  10) = (  0.0213470  0.8404440  0.6737090  )
        11           H   tau(  11) = (  0.4786530  0.1595560  0.1737090  )
        12           H   tau(  12) = (  0.5213470  0.6595560  0.3262910  )
        13           N   tau(  13) = (  0.0101150  0.5063910  0.8952090  )
        14           N   tau(  14) = (  0.9898850  0.0063910  0.6047910  )
        15           N   tau(  15) = (  0.5101150  0.9936090  0.1047910  )
        16           N   tau(  16) = (  0.4898850  0.4936090  0.3952090  )

     number of k points=     8
                       cart. coord. in units 2pi/alat
        k(    1) = (   0.0000000   0.0000000   0.0000000), wk =   0.0740741
        k(    2) = (   0.0000000   0.0000000   0.1925836), wk =   0.1481481
        k(    3) = (   0.0000000   0.2008117   0.0000000), wk =   0.1481481
        k(    4) = (   0.0000000   0.2008117   0.1925836), wk =   0.2962963
        k(    5) = (   0.3333333   0.0000000   0.0000000), wk =   0.1481481
        k(    6) = (   0.3333333   0.0000000   0.1925836), wk =   0.2962963
        k(    7) = (   0.3333333   0.2008117   0.0000000), wk =   0.2962963
        k(    8) = (   0.3333333   0.2008117   0.1925836), wk =   0.5925926

                       cryst. coord.
        k(    1) = (   0.0000000   0.0000000   0.0000000), wk =   0.0740741
        k(    2) = (   0.0000000   0.0000000   0.3333333), wk =   0.1481481
        k(    3) = (   0.0000000   0.3333333   0.0000000), wk =   0.1481481
        k(    4) = (   0.0000000   0.3333333   0.3333333), wk =   0.2962963
        k(    5) = (   0.3333333   0.0000000   0.0000000), wk =   0.1481481
        k(    6) = (   0.3333333   0.0000000   0.3333333), wk =   0.2962963
        k(    7) = (   0.3333333   0.3333333   0.0000000), wk =   0.2962963
        k(    8) = (   0.3333333   0.3333333   0.3333333), wk =   0.5925926

     Dense  grid:    47925 G-vectors     FFT dimensions: (  32,  54,  60)

     Smooth grid:    16981 G-vectors     FFT dimensions: (  24,  40,  40)

     Dynamical RAM for                 wfc:       0.52 MB

     Dynamical RAM for     wfc (w. buffer):       2.59 MB

     Dynamical RAM for           str. fact:       0.37 MB

     Dynamical RAM for           local pot:       0.00 MB

     Dynamical RAM for          nlocal pot:       0.45 MB

     Dynamical RAM for                qrad:       0.71 MB

     Dynamical RAM for          rho,v,vnew:       1.14 MB

     Dynamical RAM for               rhoin:       0.38 MB

     Dynamical RAM for            rho*nmix:       2.93 MB

     Dynamical RAM for           G-vectors:       0.72 MB

     Dynamical RAM for          h,s,v(r/c):       0.75 MB

     Dynamical RAM for          <psi|beta>:       0.05 MB

     Dynamical RAM for                 psi:       1.04 MB

     Dynamical RAM for                hpsi:       1.04 MB

     Dynamical RAM for                spsi:       1.04 MB

     Dynamical RAM for      wfcinit/wfcrot:       1.13 MB

     Dynamical RAM for           addusdens:       5.12 MB

     Estimated static dynamical RAM per process >       7.90 MB

     Estimated max dynamical RAM per process >      15.94 MB

     Estimated total dynamical RAM >     115.82 MB

     Check: negative core charge=   -0.000003

     Initial potential from superposition of free atoms

     starting charge      31.9999, renormalised to      32.0000
     Starting wfcs are   28 randomized atomic wfcs +   36 random wfcs

     total cpu time spent up to now is        0.5 secs

     Self-consistent Calculation

     iteration #  1     ecut=    30.00 Ry     beta= 0.70
     Davidson diagonalization with overlap

---- Real-time Memory Report at c_bands before calling an iterative solver
           189 MiB given to the printing process from OS
             0 MiB allocation reported by mallinfo(arena+hblkhd)
        219200 MiB available memory on the node where the printing process lives
------------------
     ethr =  1.00E-02,  avg # of iterations =  7.0

     total cpu time spent up to now is        0.9 secs

     total energy              =     -94.28567471 Ry
     estimated scf accuracy    <       2.07895004 Ry

     iteration #  2     ecut=    30.00 Ry     beta= 0.70
     Davidson diagonalization with overlap

---- Real-time Memory Report at c_bands before calling an iterative solver
           199 MiB given to the printing process from OS
             0 MiB allocation reported by mallinfo(arena+hblkhd)
        219138 MiB available memory on the node where the printing process lives
------------------
     ethr =  6.50E-03,  avg # of iterations =  1.1

     total cpu time spent up to now is        1.1 secs

     total energy              =     -94.78948885 Ry
     estimated scf accuracy    <       1.28968573 Ry

     iteration #  3     ecut=    30.00 Ry     beta= 0.70
     Davidson diagonalization with overlap

---- Real-time Memory Report at c_bands before calling an iterative solver
           205 MiB given to the printing process from OS
             0 MiB allocation reported by mallinfo(arena+hblkhd)
        219105 MiB available memory on the node where the printing process lives
------------------
     ethr =  4.03E-03,  avg # of iterations =  1.0

     total cpu time spent up to now is        1.3 secs

     total energy              =     -95.04641756 Ry
     estimated scf accuracy    <       0.01226119 Ry

     iteration #  4     ecut=    30.00 Ry     beta= 0.70
     Davidson diagonalization with overlap

---- Real-time Memory Report at c_bands before calling an iterative solver
           205 MiB given to the printing process from OS
             0 MiB allocation reported by mallinfo(arena+hblkhd)
        219105 MiB available memory on the node where the printing process lives
------------------
     ethr =  3.83E-05,  avg # of iterations =  3.1

     total cpu time spent up to now is        1.5 secs

     total energy              =     -95.04792350 Ry
     estimated scf accuracy    <       0.00017982 Ry

     iteration #  5     ecut=    30.00 Ry     beta= 0.70
     Davidson diagonalization with overlap

---- Real-time Memory Report at c_bands before calling an iterative solver
           205 MiB given to the printing process from OS
             0 MiB allocation reported by mallinfo(arena+hblkhd)
        219104 MiB available memory on the node where the printing process lives
------------------
     ethr =  5.62E-07,  avg # of iterations =  6.8

     total cpu time spent up to now is        1.8 secs

     total energy              =     -95.04794953 Ry
     estimated scf accuracy    <       0.00000557 Ry

     iteration #  6     ecut=    30.00 Ry     beta= 0.70
     Davidson diagonalization with overlap

---- Real-time Memory Report at c_bands before calling an iterative solver
           205 MiB given to the printing process from OS
             0 MiB allocation reported by mallinfo(arena+hblkhd)
        219098 MiB available memory on the node where the printing process lives
------------------
     ethr =  1.74E-08,  avg # of iterations =  2.0

     total cpu time spent up to now is        2.0 secs

     End of self-consistent calculation

          k = 0.0000 0.0000 0.0000 (  2151 PWs)   bands (ev):

   -16.6593 -16.0008 -15.9033 -15.8055  -7.0328  -6.9571  -5.9191  -5.8663
    -5.6576  -5.4540  -5.2814  -5.1387  -1.7007  -0.9259  -0.8074  -0.7765
     3.7383   6.2757   6.7695   6.8031   8.3694   9.1007   9.4299  10.1088
    10.6657  10.7285  10.8513  12.1267  12.5347  12.7413  13.3778  13.8045
    14.4975  15.3061  15.9460  16.9272  17.4081  17.4910  18.0339  18.1306
    18.1503  19.1831  20.0316  20.6212  20.8021  21.6021  22.0712  22.0870
    22.2853  22.4053  23.0514  23.6871  24.8501  24.8723  25.1516  25.6856
    25.8740  26.1894  26.5450  27.6576  27.7521  28.8768  30.4833  30.6623

     occupation numbers 
     1.0000   1.0000   1.0000   1.0000   1.0000   1.0000   1.0000   1.0000
     1.0000   1.0000   1.0000   1.0000   1.0000   1.0000   1.0000   1.0000
     0.0000   0.0000   0.0000   0.0000   0.0000   0.0000   0.0000   0.0000
     0.0000   0.0000   0.0000   0.0000   0.0000   0.0000   0.0000   0.0000
     0.0000   0.0000   0.0000   0.0000   0.0000   0.0000   0.0000   0.0000
     0.0000   0.0000   0.0000   0.0000   0.0000   0.0000   0.0000   0.0000
     0.0000   0.0000   0.0000   0.0000   0.0000   0.0000   0.0000   0.0000
     0.0000   0.0000   0.0000   0.0000   0.0000   0.0000   0.0000   0.0000

          k = 0.0000 0.0000 0.1926 (  2126 PWs)   bands (ev):

   -16.5114 -16.1641 -15.9254 -15.7988  -6.8012  -6.5807  -6.2828  -5.8289
    -5.7375  -5.4513  -5.3600  -5.2029  -1.5948  -1.1840  -0.9172  -0.8519
     4.5594   5.9953   7.0795   7.3831   8.7016   9.1012   9.2222   9.3152
     9.8957  10.2992  11.0278  12.0866  12.1980  12.6032  13.7634  14.1000
    14.8228  14.9557  15.4087  16.1256  16.6526  16.9078  18.3794  19.0507
    19.3524  19.7861  20.1756  21.0080  21.0626  21.8416  22.0490  22.6538
    22.7677  23.7967  23.8237  24.0246  24.5681  24.8531  25.6463  25.7874
    25.9796  26.2589  26.4095  26.8014  27.3874  27.6483  27.9638  28.2156

     occupation numbers 
     1.0000   1.0000   1.0000   1.0000   1.0000   1.0000   1.0000   1.0000
     1.0000   1.0000   1.0000   1.0000   1.0000   1.0000   1.0000   1.0000
     0.0000   0.0000   0.0000   0.0000   0.0000   0.0000   0.0000   0.0000
     0.0000   0.0000   0.0000   0.0000   0.0000   0.0000   0.0000   0.0000
     0.0000   0.0000   0.0000   0.0000   0.0000   0.0000   0.0000   0.0000
     0.0000   0.0000   0.0000   0.0000   0.0000   0.0000   0.0000   0.0000
     0.0000   0.0000   0.0000   0.0000   0.0000   0.0000   0.0000   0.0000
     0.0000   0.0000   0.0000   0.0000   0.0000   0.0000   0.0000   0.0000

          k = 0.0000 0.2008 0.0000 (  2122 PWs)   bands (ev):

   -16.5087 -16.1817 -15.8744 -15.8265  -6.9969  -6.9289  -6.1116  -5.5791
    -5.5114  -5.4257  -5.3688  -5.2907  -1.6018  -1.2647  -0.7229  -0.7093
     4.5773   5.8279   6.4618   6.7474   8.4563   8.8310   9.5208   9.9874
    10.0961  10.3563  11.0972  11.5273  12.4678  12.8082  14.0064  14.4717
    15.2512  15.4173  15.6056  16.2625  17.5814  17.5937  18.2285  18.8023
    19.2202  19.3040  19.9270  20.1073  21.0836  21.4698  21.4771  22.3649
    22.4622  22.7681  23.1401  23.2250  23.9186  24.2305  24.3996  24.9896
    25.3227  27.1660  27.2682  27.8529  28.3732  28.4797  29.4229  29.4325

     occupation numbers 
     1.0000   1.0000   1.0000   1.0000   1.0000   1.0000   1.0000   1.0000
     1.0000   1.0000   1.0000   1.0000   1.0000   1.0000   1.0000   1.0000
     0.0000   0.0000   0.0000   0.0000   0.0000   0.0000   0.0000   0.0000
     0.0000   0.0000   0.0000   0.0000   0.0000   0.0000   0.0000   0.0000
     0.0000   0.0000   0.0000   0.0000   0.0000   0.0000   0.0000   0.0000
     0.0000   0.0000   0.0000   0.0000   0.0000   0.0000   0.0000   0.0000
     0.0000   0.0000   0.0000   0.0000   0.0000   0.0000   0.0000   0.0000
     0.0000   0.0000   0.0000   0.0000   0.0000   0.0000   0.0000   0.0000

          k = 0.0000 0.2008 0.1926 (  2133 PWs)   bands (ev):

   -16.3767 -16.1013 -16.0576 -15.8919  -6.7054  -6.6875  -6.1588  -5.8636
    -5.5838  -5.4436  -5.4033  -5.3347  -1.5270  -1.3046  -0.9441  -0.8475
     5.2270   6.1139   6.6011   7.0153   8.4736   8.8865   9.2095   9.3900
    10.0561  10.3432  10.4568  10.9048  13.0788  13.5268  14.0328  14.1723
    14.9282  15.1117  15.4454  16.3249  16.7682  17.2118  18.2423  18.5265
    19.2380  19.8428  20.4861  20.7168  20.8803  21.6243  22.0651  22.3970
    22.8827  23.2123  23.7774  23.9620  24.4566  24.6881  25.2626  25.6225
    26.1316  26.3001  26.9037  27.1729  27.5776  28.2978  28.9817  29.1330

     occupation numbers 
     1.0000   1.0000   1.0000   1.0000   1.0000   1.0000   1.0000   1.0000
     1.0000   1.0000   1.0000   1.0000   1.0000   1.0000   1.0000   1.0000
     0.0000   0.0000   0.0000   0.0000   0.0000   0.0000   0.0000   0.0000
     0.0000   0.0000   0.0000   0.0000   0.0000   0.0000   0.0000   0.0000
     0.0000   0.0000   0.0000   0.0000   0.0000   0.0000   0.0000   0.0000
     0.0000   0.0000   0.0000   0.0000   0.0000   0.0000   0.0000   0.0000
     0.0000   0.0000   0.0000   0.0000   0.0000   0.0000   0.0000   0.0000
     0.0000   0.0000   0.0000   0.0000   0.0000   0.0000   0.0000   0.0000

          k = 0.3333 0.0000 0.0000 (  2119 PWs)   bands (ev):

   -16.2798 -15.8282 -15.7977 -15.7470  -6.7509  -6.6552  -6.4257  -6.2364
    -6.0175  -5.8693  -5.6558  -5.6497  -2.1614  -1.4478  -1.2696  -1.1887
     5.7512   7.6503   8.1077   8.1562   8.6874   8.7172   8.8152   9.2315
    10.3590  10.3832  10.7875  11.3774  11.5538  11.9367  12.8423  13.1823
    13.3199  13.9232  16.0977  16.9735  17.4997  17.5355  19.2651  19.4943
    19.6097  20.2507  20.3711  20.7946  21.3169  22.2297  23.2147  23.2589
    23.6949  23.7520  23.9823  24.7874  24.8141  25.1334  25.3550  25.7107
    25.9842  26.2546  26.9050  27.6301  27.7316  28.0115  28.2838  28.8787

     occupation numbers 
     1.0000   1.0000   1.0000   1.0000   1.0000   1.0000   1.0000   1.0000
     1.0000   1.0000   1.0000   1.0000   1.0000   1.0000   1.0000   1.0000
     0.0000   0.0000   0.0000   0.0000   0.0000   0.0000   0.0000   0.0000
     0.0000   0.0000   0.0000   0.0000   0.0000   0.0000   0.0000   0.0000
     0.0000   0.0000   0.0000   0.0000   0.0000   0.0000   0.0000   0.0000
     0.0000   0.0000   0.0000   0.0000   0.0000   0.0000   0.0000   0.0000
     0.0000   0.0000   0.0000   0.0000   0.0000   0.0000   0.0000   0.0000
     0.0000   0.0000   0.0000   0.0000   0.0000   0.0000   0.0000   0.0000

          k = 0.3333 0.0000 0.1926 (  2119 PWs)   bands (ev):

   -16.1868 -15.9762 -15.7684 -15.7272  -6.7784  -6.6751  -6.5050  -6.3226
    -5.9805  -5.8579  -5.6557  -5.5057  -1.9279  -1.5582  -1.2309  -1.1396
     6.1032   7.2870   7.7614   7.7706   7.9677   8.2456   9.0225   9.4203
    10.3799  10.4653  10.9625  11.1324  11.6124  12.3389  12.7396  13.2710
    14.7389  15.0162  16.1858  16.8357  17.1533  17.9343  18.0611  18.9132
    19.8441  20.0840  20.3901  20.8317  21.7862  22.1575  22.5366  23.1004
    23.2172  23.4672  23.9958  24.2267  24.6275  25.4223  25.7844  26.0537
    26.2654  26.7056  27.0784  27.2409  28.3983  28.6179  29.3023  29.6012

     occupation numbers 
     1.0000   1.0000   1.0000   1.0000   1.0000   1.0000   1.0000   1.0000
     1.0000   1.0000   1.0000   1.0000   1.0000   1.0000   1.0000   1.0000
     0.0000   0.0000   0.0000   0.0000   0.0000   0.0000   0.0000   0.0000
     0.0000   0.0000   0.0000   0.0000   0.0000   0.0000   0.0000   0.0000
     0.0000   0.0000   0.0000   0.0000   0.0000   0.0000   0.0000   0.0000
     0.0000   0.0000   0.0000   0.0000   0.0000   0.0000   0.0000   0.0000
     0.0000   0.0000   0.0000   0.0000   0.0000   0.0000   0.0000   0.0000
     0.0000   0.0000   0.0000   0.0000   0.0000   0.0000   0.0000   0.0000

          k = 0.3333 0.2008 0.0000 (  2118 PWs)   bands (ev):

   -16.1663 -15.9263 -15.8055 -15.7642  -6.7802  -6.6618  -6.4604  -6.3971
    -6.0046  -5.7726  -5.6131  -5.5667  -1.9829  -1.5722  -1.2650  -1.1634
     6.2130   7.2841   8.0611   8.1251   8.4012   8.6618   9.2637   9.5448
     9.7959   9.8960  10.6152  10.9174  11.6347  12.1219  12.9423  13.6189
    14.0310  14.4251  15.7569  16.0396  17.0090  17.3293  17.9940  18.6137
    20.0228  20.8944  21.5853  21.6839  21.9942  22.1997  22.6467  23.0736
    23.4751  23.5955  24.3241  24.7342  25.0228  25.6037  25.7561  26.2059
    26.6438  27.0989  27.6402  27.7779  28.0355  28.2836  28.9121  29.5083

     occupation numbers 
     1.0000   1.0000   1.0000   1.0000   1.0000   1.0000   1.0000   1.0000
     1.0000   1.0000   1.0000   1.0000   1.0000   1.0000   1.0000   1.0000
     0.0000   0.0000   0.0000   0.0000   0.0000   0.0000   0.0000   0.0000
     0.0000   0.0000   0.0000   0.0000   0.0000   0.0000   0.0000   0.0000
     0.0000   0.0000   0.0000   0.0000   0.0000   0.0000   0.0000   0.0000
     0.0000   0.0000   0.0000   0.0000   0.0000   0.0000   0.0000   0.0000
     0.0000   0.0000   0.0000   0.0000   0.0000   0.0000   0.0000   0.0000
     0.0000   0.0000   0.0000   0.0000   0.0000   0.0000   0.0000   0.0000

          k = 0.3333 0.2008 0.1926 (  2117 PWs)   bands (ev):

   -16.0871 -15.9170 -15.8744 -15.7891  -6.8105  -6.7538  -6.5649  -6.4862
    -5.8180  -5.7098  -5.5791  -5.5108  -1.7965  -1.5327  -1.3077  -1.1745
     6.3387   7.0812   7.1999   7.6372   8.4439   8.8360   9.1679   9.3743
    10.0199  10.2032  10.5158  10.7519  11.8434  12.6224  13.1639  13.3245
    14.6289  15.3481  15.8308  16.1918  16.9401  17.2243  18.0539  18.4851
    19.6745  20.3607  21.1458  21.4703  21.7627  22.1857  22.4512  22.9858
    23.6522  23.9650  24.2044  24.6694  25.0823  25.3233  25.9407  26.3930
    26.7438  26.9845  27.5641  27.8206  28.5727  28.7376  29.3616  29.7687

     occupation numbers 
     1.0000   1.0000   1.0000   1.0000   1.0000   1.0000   1.0000   1.0000
     1.0000   1.0000   1.0000   1.0000   1.0000   1.0000   1.0000   1.0000
     0.0000   0.0000   0.0000   0.0000   0.0000   0.0000   0.0000   0.0000
     0.0000   0.0000   0.0000   0.0000   0.0000   0.0000   0.0000   0.0000
     0.0000   0.0000   0.0000   0.0000   0.0000   0.0000   0.0000   0.0000
     0.0000   0.0000   0.0000   0.0000   0.0000   0.0000   0.0000   0.0000
     0.0000   0.0000   0.0000   0.0000   0.0000   0.0000   0.0000   0.0000
     0.0000   0.0000   0.0000   0.0000   0.0000   0.0000   0.0000   0.0000

     highest occupied, lowest unoccupied level (ev):    -0.7093    3.7383

!    total energy              =     -95.04795087 Ry
     estimated scf accuracy    <       0.00000035 Ry

     The total energy is the sum of the following terms:
     one-electron contribution =     -47.01071450 Ry
     hartree contribution      =      33.83390951 Ry
     xc contribution           =     -30.48187688 Ry
     ewald contribution        =     -51.38926899 Ry

     convergence has been achieved in   6 iterations

     Writing all to output data dir bands_nm/myprefix.save/
 
     init_run     :      1.15s CPU      0.40s WALL (       1 calls)
     electrons    :      6.13s CPU      1.60s WALL (       1 calls)

     Called by init_run:
     wfcinit      :      0.72s CPU      0.19s WALL (       1 calls)
     wfcinit:atom :      0.00s CPU      0.00s WALL (       4 calls)
     wfcinit:wfcr :      0.71s CPU      0.18s WALL (       4 calls)
     potinit      :      0.11s CPU      0.04s WALL (       1 calls)
     hinit0       :      0.22s CPU      0.09s WALL (       1 calls)

     Called by electrons:
     c_bands      :      5.07s CPU      1.31s WALL (       6 calls)
     sum_band     :      0.63s CPU      0.16s WALL (       6 calls)
     v_of_rho     :      0.16s CPU      0.04s WALL (       7 calls)
     v_h          :      0.01s CPU      0.00s WALL (       7 calls)
     v_xc         :      0.14s CPU      0.04s WALL (       7 calls)
     newd         :      0.08s CPU      0.02s WALL (       7 calls)
     mix_rho      :      0.03s CPU      0.01s WALL (       6 calls)

     Called by c_bands:
     init_us_2    :      0.02s CPU      0.01s WALL (      52 calls)
     init_us_2:cp :      0.02s CPU      0.01s WALL (      52 calls)
     cegterg      :      4.96s CPU      1.28s WALL (      24 calls)

     Called by sum_band:
     sum_band:wei :      0.00s CPU      0.00s WALL (       6 calls)
     sum_band:loo :      0.53s CPU      0.14s WALL (       6 calls)
     sum_band:buf :      0.01s CPU      0.00s WALL (      24 calls)
     sum_band:ini :      0.01s CPU      0.00s WALL (      24 calls)
     sum_band:cal :      0.05s CPU      0.01s WALL (      24 calls)
     sum_band:bec :      0.00s CPU      0.00s WALL (      24 calls)
     addusdens    :      0.04s CPU      0.01s WALL (       6 calls)
     addusd:skk   :      0.00s CPU      0.00s WALL (      12 calls)
     addusd:dgemm :      0.01s CPU      0.00s WALL (      12 calls)
     addusd:qvan2 :      0.01s CPU      0.00s WALL (      12 calls)

     Called by *egterg:
     cdiaghg      :      1.65s CPU      0.43s WALL (     118 calls)
     cegterg:over :      0.34s CPU      0.08s WALL (      94 calls)
     cegterg:upda :      0.09s CPU      0.04s WALL (      94 calls)
     cegterg:last :      0.29s CPU      0.08s WALL (      49 calls)
     h_psi        :      2.88s CPU      0.76s WALL (     122 calls)
     s_psi        :      0.11s CPU      0.03s WALL (     122 calls)
     g_psi        :      0.00s CPU      0.00s WALL (      94 calls)

     Called by h_psi:
     h_psi:calbec :      0.13s CPU      0.03s WALL (     122 calls)
     vloc_psi     :      2.69s CPU      0.69s WALL (     122 calls)
     add_vuspsi   :      0.06s CPU      0.03s WALL (     122 calls)

     General routines
     calbec       :      0.17s CPU      0.04s WALL (     146 calls)
     fft          :      0.16s CPU      0.05s WALL (      89 calls)
     ffts         :      0.01s CPU      0.00s WALL (      13 calls)
     fftw         :      2.92s CPU      0.69s WALL (    9830 calls)
     interpolate  :      0.02s CPU      0.00s WALL (       7 calls)
 
     Parallel routines
 
     PWSCF        :      9.02s CPU      3.03s WALL

 
   This run was terminated on:  21: 7:26  14Jul2023            

=------------------------------------------------------------------------------=
   JOB DONE.
=------------------------------------------------------------------------------=
