
     Program PWSCF v.7.1 starts on 16Jul2023 at 15:21:45 

     This program is part of the open-source Quantum ESPRESSO suite
     for quantum simulation of materials; please cite
         "P. Giannozzi et al., J. Phys.:Condens. Matter 21 395502 (2009);
         "P. Giannozzi et al., J. Phys.:Condens. Matter 29 465901 (2017);
         "P. Giannozzi et al., J. Chem. Phys. 152 154105 (2020);
          URL http://www.quantum-espresso.org", 
     in publications or presentations arising from this work. More details at
     http://www.quantum-espresso.org/quote

     Parallel version (MPI & OpenMP), running on      32 processor cores
     Number of MPI processes:                 8
     Threads/MPI process:                     4

     MPI processes distributed on     1 nodes
     172640 MiB available memory on the printing compute node when the environment starts
 
     Reading input from espresso_26910.pwi
Warning: card &CELL ignored
Warning: card / ignored

     Current dimensions of program PWSCF are:
     Max number of different atomic species (ntypx) = 10
     Max number of k-points (npk) =  40000
     Max angular momentum in pseudopotentials (lmaxx) =  4
     file K.pbe-spn-kjpaw_psl.1.0.0.UPF: wavefunction(s)  3S renormalized
     Message from routine setup:
     using ibrav=0 with symmetry is DISCOURAGED, use correct ibrav instead
 
     K-points division:     npool     =       2
     R & G space division:  proc/nbgrp/npool/nimage =       4
     Subspace diagonalization in iterative solution of the eigenvalue problem:
     a serial algorithm will be used

 
     Parallelization info
     --------------------
     sticks:   dense  smooth     PW     G-vecs:    dense   smooth      PW
     Min         823     412    112                31258    11092    1604
     Max         824     413    113                31260    11095    1607
     Sum        3295    1651    451               125037    44375    6423
 
     Using Slab Decomposition
 


     bravais-lattice index     =            0
     lattice parameter (alat)  =      14.1254  a.u.
     unit-cell volume          =    1992.9161 (a.u.)^3
     number of atoms/cell      =            9
     number of atomic types    =            3
     number of electrons       =        76.00
     number of Kohn-Sham states=           64
     kinetic-energy cutoff     =      30.0000  Ry
     charge density cutoff     =     240.0000  Ry
     scf convergence threshold =      1.0E-06
     mixing beta               =       0.7000
     number of iterations used =            8  plain     mixing
     Exchange-correlation=  SLA  PW   PBX  PBC
                           (   1   4   3   4   0   0   0)

     celldm(1)=  14.125419  celldm(2)=   0.000000  celldm(3)=   0.000000
     celldm(4)=   0.000000  celldm(5)=   0.000000  celldm(6)=   0.000000

     crystal axes: (cart. coord. in units of alat)
               a(1) = (   1.000000   0.000000   0.000000 )  
               a(2) = (   0.500000   0.866025   0.000000 )  
               a(3) = (   0.500000   0.288675   0.816497 )  

     reciprocal axes: (cart. coord. in units 2 pi/alat)
               b(1) = (  1.000000 -0.577350 -0.408248 )  
               b(2) = (  0.000000  1.154701 -0.408248 )  
               b(3) = (  0.000000  0.000000  1.224745 )  


     PseudoPot. # 1 for K  read from file:
     /lustre07/scratch/pragov/crystal_structure_design/utils/SSSP/K.pbe-spn-kjpaw_psl.1.0.0.UPF
     MD5 check sum: 7d58810084cac21f60fbe77ea2b688fd
     Pseudo is Projector augmented-wave + core cor, Zval =  9.0
     Generated using "atomic" code by A. Dal Corso  v.5.1
     Shape of augmentation charge: PSQ
     Using radial grid of 1165 points,  6 beta functions with: 
                l(1) =   0
                l(2) =   0
                l(3) =   1
                l(4) =   1
                l(5) =   2
                l(6) =   2
     Q(r) pseudized with 0 coefficients 


     PseudoPot. # 2 for Pt read from file:
     /lustre07/scratch/pragov/crystal_structure_design/utils/SSSP/pt_pbe_v1.4.uspp.F.UPF
     MD5 check sum: f09d6de1a584b5a045c4fc126da2d0c4
     Pseudo is Ultrasoft + core correction, Zval = 16.0
     Generated by new atomic code, or converted to UPF format
     Using radial grid of  985 points,  6 beta functions with: 
                l(1) =   0
                l(2) =   0
                l(3) =   1
                l(4) =   1
                l(5) =   2
                l(6) =   2
     Q(r) pseudized with  8 coefficients,  rinner =    1.300   1.300   1.300
                                                       1.300   1.300

     PseudoPot. # 3 for Br read from file:
     /lustre07/scratch/pragov/crystal_structure_design/utils/SSSP/br_pbe_v1.4.uspp.F.UPF
     MD5 check sum: d3ffb7b29f6225aa16fe06858fb2a80b
     Pseudo is Ultrasoft + core correction, Zval =  7.0
     Generated by new atomic code, or converted to UPF format
     Using radial grid of  879 points,  6 beta functions with: 
                l(1) =   0
                l(2) =   0
                l(3) =   1
                l(4) =   1
                l(5) =   2
                l(6) =   2
     Q(r) pseudized with  8 coefficients,  rinner =    1.100   1.100   1.100
                                                       1.100   1.100

     atomic species   valence    mass     pseudopotential
        K              9.00    39.09830     K ( 1.00)
        Pt            16.00   195.08400     Pt( 1.00)
        Br             7.00    79.90400     Br( 1.00)

     12 Sym. Ops., with inversion, found


                                    s                        frac. trans.

      isym =  1     identity                                     

 cryst.   s( 1) = (     1          0          0      )
                  (     0          1          0      )
                  (     0          0          1      )

 cart.    s( 1) = (  1.0000000  0.0000000  0.0000000 )
                  (  0.0000000  1.0000000  0.0000000 )
                  (  0.0000000  0.0000000  1.0000000 )


      isym =  2     180 deg rotation - cart. axis [1,0,0]        

 cryst.   s( 2) = (     1          0          0      )
                  (     1         -1          0      )
                  (     1          0         -1      )

 cart.    s( 2) = (  1.0000000  0.0000000  0.0000000 )
                  (  0.0000000 -1.0000000  0.0000000 )
                  (  0.0000000  0.0000000 -1.0000000 )


      isym =  3     120 deg rotation - cryst. axis [0,0,1]       

 cryst.   s( 3) = (    -1          1          0      )
                  (    -1          0          0      )
                  (    -1          0          1      )

 cart.    s( 3) = ( -0.5000000 -0.8660254 -0.0000000 )
                  (  0.8660254 -0.5000000 -0.0000000 )
                  (  0.0000000  0.0000000  1.0000000 )


      isym =  4     120 deg rotation - cryst. axis [0,0,-1]      

 cryst.   s( 4) = (     0         -1          0      )
                  (     1         -1          0      )
                  (     0         -1          1      )

 cart.    s( 4) = ( -0.5000000  0.8660254  0.0000000 )
                  ( -0.8660254 -0.5000000 -0.0000000 )
                  (  0.0000000  0.0000000  1.0000000 )


      isym =  5     180 deg rotation - cryst. axis [0,1,0]       

 cryst.   s( 5) = (     0         -1          0      )
                  (    -1          0          0      )
                  (     0          0         -1      )

 cart.    s( 5) = ( -0.5000000 -0.8660254 -0.0000000 )
                  ( -0.8660254  0.5000000  0.0000000 )
                  (  0.0000000  0.0000000 -1.0000000 )


      isym =  6     180 deg rotation - cryst. axis [1,1,0]       

 cryst.   s( 6) = (    -1          1          0      )
                  (     0          1          0      )
                  (     0          1         -1      )

 cart.    s( 6) = ( -0.5000000  0.8660254  0.0000000 )
                  (  0.8660254  0.5000000  0.0000000 )
                  (  0.0000000  0.0000000 -1.0000000 )


      isym =  7     inversion                                    

 cryst.   s( 7) = (    -1          0          0      )
                  (     0         -1          0      )
                  (     0          0         -1      )

 cart.    s( 7) = ( -1.0000000  0.0000000  0.0000000 )
                  (  0.0000000 -1.0000000  0.0000000 )
                  (  0.0000000  0.0000000 -1.0000000 )


      isym =  8     inv. 180 deg rotation - cart. axis [1,0,0]   

 cryst.   s( 8) = (    -1          0          0      )
                  (    -1          1          0      )
                  (    -1          0          1      )

 cart.    s( 8) = ( -1.0000000  0.0000000  0.0000000 )
                  (  0.0000000  1.0000000  0.0000000 )
                  (  0.0000000  0.0000000  1.0000000 )


      isym =  9     inv. 120 deg rotation - cryst. axis [0,0,1]  

 cryst.   s( 9) = (     1         -1          0      )
                  (     1          0          0      )
                  (     1          0         -1      )

 cart.    s( 9) = (  0.5000000  0.8660254  0.0000000 )
                  ( -0.8660254  0.5000000  0.0000000 )
                  (  0.0000000  0.0000000 -1.0000000 )


      isym = 10     inv. 120 deg rotation - cryst. axis [0,0,-1] 

 cryst.   s(10) = (     0          1          0      )
                  (    -1          1          0      )
                  (     0          1         -1      )

 cart.    s(10) = (  0.5000000 -0.8660254 -0.0000000 )
                  (  0.8660254  0.5000000  0.0000000 )
                  (  0.0000000  0.0000000 -1.0000000 )


      isym = 11     inv. 180 deg rotation - cryst. axis [0,1,0]  

 cryst.   s(11) = (     0          1          0      )
                  (     1          0          0      )
                  (     0          0          1      )

 cart.    s(11) = (  0.5000000  0.8660254  0.0000000 )
                  (  0.8660254 -0.5000000 -0.0000000 )
                  (  0.0000000  0.0000000  1.0000000 )


      isym = 12     inv. 180 deg rotation - cryst. axis [1,1,0]  

 cryst.   s(12) = (     1         -1          0      )
                  (     0         -1          0      )
                  (     0         -1          1      )

 cart.    s(12) = (  0.5000000 -0.8660254 -0.0000000 )
                  ( -0.8660254 -0.5000000 -0.0000000 )
                  (  0.0000000  0.0000000  1.0000000 )


   Cartesian axes

     site n.     atom                  positions (alat units)
         1           K   tau(   1) = (   0.5000000   0.2886751   0.2041241  )
         2           K   tau(   2) = (   1.5000000   0.8660254   0.6123724  )
         3           Pt  tau(   3) = (   0.0000000   0.0000000   0.0000000  )
         4           Br  tau(   4) = (   0.7369260   0.7292361   0.1934493  )
         5           Br  tau(   5) = (   1.0000000   0.8811220   0.6230473  )
         6           Br  tau(   6) = (   1.2630740   0.7292361   0.1934493  )
         7           Br  tau(   7) = (   1.0000000   0.2735786   0.1934493  )
         8           Br  tau(   8) = (   0.7369260   0.4254644   0.6230473  )
         9           Br  tau(   9) = (   1.2630740   0.4254644   0.6230473  )

   Crystallographic axes

     site n.     atom                  positions (cryst. coord.)
         1           K   tau(   1) = (  0.2500000  0.2500000  0.2500000  )
         2           K   tau(   2) = (  0.7500000  0.7500000  0.7500000  )
         3           Pt  tau(   3) = (  0.0000000  0.0000000  0.0000000  )
         4           Br  tau(   4) = (  0.2369260  0.7630740  0.2369260  )
         5           Br  tau(   5) = (  0.2369260  0.7630740  0.7630740  )
         6           Br  tau(   6) = (  0.7630740  0.7630740  0.2369260  )
         7           Br  tau(   7) = (  0.7630740  0.2369260  0.2369260  )
         8           Br  tau(   8) = (  0.2369260  0.2369260  0.7630740  )
         9           Br  tau(   9) = (  0.7630740  0.2369260  0.7630740  )

     number of k points=     6
                       cart. coord. in units 2pi/alat
        k(    1) = (   0.0000000   0.0000000   0.0000000), wk =   0.0740741
        k(    2) = (   0.0000000   0.0000000   0.4082483), wk =   0.1481481
        k(    3) = (   0.0000000   0.3849002  -0.1360828), wk =   0.4444444
        k(    4) = (   0.0000000   0.3849002   0.2721655), wk =   0.4444444
        k(    5) = (   0.0000000   0.3849002  -0.5443311), wk =   0.4444444
        k(    6) = (   0.3333333  -0.5773503  -0.0000000), wk =   0.4444444

                       cryst. coord.
        k(    1) = (   0.0000000   0.0000000   0.0000000), wk =   0.0740741
        k(    2) = (   0.0000000   0.0000000   0.3333333), wk =   0.1481481
        k(    3) = (   0.0000000   0.3333333   0.0000000), wk =   0.4444444
        k(    4) = (   0.0000000   0.3333333   0.3333333), wk =   0.4444444
        k(    5) = (   0.0000000   0.3333333  -0.3333333), wk =   0.4444444
        k(    6) = (   0.3333333  -0.3333333  -0.0000000), wk =   0.4444444

     Dense  grid:   125037 G-vectors     FFT dimensions: (  72,  72,  72)

     Smooth grid:    44375 G-vectors     FFT dimensions: (  50,  50,  50)

     Dynamical RAM for                 wfc:       1.35 MB

     Dynamical RAM for     wfc (w. buffer):       5.40 MB

     Dynamical RAM for           str. fact:       1.43 MB

     Dynamical RAM for           local pot:       0.00 MB

     Dynamical RAM for          nlocal pot:       3.42 MB

     Dynamical RAM for                qrad:       3.73 MB

     Dynamical RAM for          rho,v,vnew:       3.57 MB

     Dynamical RAM for               rhoin:       1.19 MB

     Dynamical RAM for            rho*nmix:       7.63 MB

     Dynamical RAM for           G-vectors:       1.87 MB

     Dynamical RAM for          h,s,v(r/c):       0.75 MB

     Dynamical RAM for          <psi|beta>:       0.16 MB

     Dynamical RAM for                 psi:       2.70 MB

     Dynamical RAM for                hpsi:       2.70 MB

     Dynamical RAM for                spsi:       2.70 MB

     Dynamical RAM for      wfcinit/wfcrot:       2.79 MB

     Dynamical RAM for           addusdens:      46.03 MB

     Estimated static dynamical RAM per process >      26.07 MB

     Estimated max dynamical RAM per process >      79.74 MB

     Estimated total dynamical RAM >     607.36 MB

     Check: negative core charge=   -0.000002

     Initial potential from superposition of free atoms

     starting charge      75.4622, renormalised to      76.0000

     negative rho (up, down):  1.869E-01 0.000E+00
     Starting wfcs are   52 randomized atomic wfcs +   12 random wfcs
     Checking if some PAW data can be deallocated... 
       PAW data deallocated on    7 nodes for type:  1

     total cpu time spent up to now is        0.8 secs

     Self-consistent Calculation

     iteration #  1     ecut=    30.00 Ry     beta= 0.70
     Davidson diagonalization with overlap

---- Real-time Memory Report at c_bands before calling an iterative solver
           262 MiB given to the printing process from OS
             0 MiB allocation reported by mallinfo(arena+hblkhd)
        172115 MiB available memory on the node where the printing process lives
------------------
     ethr =  1.00E-02,  avg # of iterations =  8.0

     negative rho (up, down):  1.716E-01 0.000E+00

     total cpu time spent up to now is        1.7 secs

     total energy              =    -717.41548333 Ry
     estimated scf accuracy    <       1.69391552 Ry

     iteration #  2     ecut=    30.00 Ry     beta= 0.70
     Davidson diagonalization with overlap

---- Real-time Memory Report at c_bands before calling an iterative solver
           291 MiB given to the printing process from OS
             0 MiB allocation reported by mallinfo(arena+hblkhd)
        171729 MiB available memory on the node where the printing process lives
------------------
     ethr =  2.23E-03,  avg # of iterations =  3.0

     negative rho (up, down):  1.781E-01 0.000E+00

     total cpu time spent up to now is        2.4 secs

     total energy              =    -717.44872205 Ry
     estimated scf accuracy    <       6.85643161 Ry

     iteration #  3     ecut=    30.00 Ry     beta= 0.70
     Davidson diagonalization with overlap

---- Real-time Memory Report at c_bands before calling an iterative solver
           303 MiB given to the printing process from OS
             0 MiB allocation reported by mallinfo(arena+hblkhd)
        171497 MiB available memory on the node where the printing process lives
------------------
     ethr =  2.23E-03,  avg # of iterations =  2.0

     negative rho (up, down):  1.786E-01 0.000E+00

     total cpu time spent up to now is        3.0 secs

     total energy              =    -718.43818265 Ry
     estimated scf accuracy    <       0.04666190 Ry

     iteration #  4     ecut=    30.00 Ry     beta= 0.70
     Davidson diagonalization with overlap

---- Real-time Memory Report at c_bands before calling an iterative solver
           313 MiB given to the printing process from OS
             0 MiB allocation reported by mallinfo(arena+hblkhd)
        171471 MiB available memory on the node where the printing process lives
------------------
     ethr =  6.14E-05,  avg # of iterations =  8.8

     negative rho (up, down):  1.783E-01 0.000E+00

     total cpu time spent up to now is        3.9 secs

     total energy              =    -718.44631363 Ry
     estimated scf accuracy    <       0.00351156 Ry

     iteration #  5     ecut=    30.00 Ry     beta= 0.70
     Davidson diagonalization with overlap

---- Real-time Memory Report at c_bands before calling an iterative solver
           313 MiB given to the printing process from OS
             0 MiB allocation reported by mallinfo(arena+hblkhd)
        171456 MiB available memory on the node where the printing process lives
------------------
     ethr =  4.62E-06,  avg # of iterations =  7.7

     negative rho (up, down):  1.783E-01 0.000E+00

     total cpu time spent up to now is        4.7 secs

     total energy              =    -718.44672860 Ry
     estimated scf accuracy    <       0.00249770 Ry

     iteration #  6     ecut=    30.00 Ry     beta= 0.70
     Davidson diagonalization with overlap

---- Real-time Memory Report at c_bands before calling an iterative solver
           313 MiB given to the printing process from OS
             0 MiB allocation reported by mallinfo(arena+hblkhd)
        171404 MiB available memory on the node where the printing process lives
------------------
     ethr =  3.29E-06,  avg # of iterations =  2.0

     negative rho (up, down):  1.783E-01 0.000E+00

     total cpu time spent up to now is        5.2 secs

     total energy              =    -718.44707035 Ry
     estimated scf accuracy    <       0.00000245 Ry

     iteration #  7     ecut=    30.00 Ry     beta= 0.70
     Davidson diagonalization with overlap

---- Real-time Memory Report at c_bands before calling an iterative solver
           313 MiB given to the printing process from OS
             0 MiB allocation reported by mallinfo(arena+hblkhd)
        171384 MiB available memory on the node where the printing process lives
------------------
     ethr =  3.22E-09,  avg # of iterations =  4.0

     negative rho (up, down):  1.784E-01 0.000E+00

     total cpu time spent up to now is        6.0 secs

     total energy              =    -718.44707352 Ry
     estimated scf accuracy    <       0.00000146 Ry

     iteration #  8     ecut=    30.00 Ry     beta= 0.70
     Davidson diagonalization with overlap

---- Real-time Memory Report at c_bands before calling an iterative solver
           313 MiB given to the printing process from OS
             0 MiB allocation reported by mallinfo(arena+hblkhd)
        171370 MiB available memory on the node where the printing process lives
------------------
     ethr =  1.93E-09,  avg # of iterations =  2.0

     negative rho (up, down):  1.784E-01 0.000E+00

     total cpu time spent up to now is        6.6 secs

     End of self-consistent calculation

          k = 0.0000 0.0000 0.0000 (  5577 PWs)   bands (ev):

   -50.0074 -50.0074 -50.0074 -26.0380 -26.0373 -11.4771 -10.7790 -10.7790
   -10.7790 -10.7032 -10.7032  -9.5183  -9.5183  -9.5183  -9.5077  -9.5077
    -9.5077  -2.2803  -1.5463  -1.5463  -1.0008  -1.0008  -1.0008  -0.1766
    -0.1766  -0.1766   1.7788   1.7788   1.7788   1.7898   1.7898   1.7898
     2.1740   2.1740   2.1740   2.6393   2.6393   2.6393   4.8521   4.8521
     6.9575   7.2394   8.1314   8.8953   8.8953   9.4223   9.4223   9.4223
    10.1831  10.1831  10.1831  11.6863  11.6863  12.0390  12.0390  12.0390
    12.6789  12.6789  12.6790  13.5814  13.5814  13.5815  13.9512  13.9548

     occupation numbers 
     1.0000   1.0000   1.0000   1.0000   1.0000   1.0000   1.0000   1.0000
     1.0000   1.0000   1.0000   1.0000   1.0000   1.0000   1.0000   1.0000
     1.0000   1.0000   1.0000   1.0000   1.0000   1.0000   1.0000   1.0000
     1.0000   1.0000   1.0000   1.0000   1.0000   1.0000   1.0000   1.0000
     1.0000   1.0000   1.0000   1.0000   1.0000   1.0000   0.0000   0.0000
     0.0000   0.0000   0.0000   0.0000   0.0000   0.0000   0.0000   0.0000
     0.0000   0.0000   0.0000   0.0000   0.0000   0.0000   0.0000   0.0000
     0.0000   0.0000   0.0000   0.0000   0.0000   0.0000   0.0000   0.0000

          k = 0.0000 0.0000 0.4082 (  5534 PWs)   bands (ev):

   -50.0074 -50.0074 -50.0074 -26.0378 -26.0374 -11.4146 -10.8837 -10.7679
   -10.7679 -10.7232 -10.7232  -9.5099  -9.5099  -9.5038  -9.5038  -9.4957
    -9.4941  -2.0140  -1.6533  -1.6533  -0.9615  -0.9243  -0.9243  -0.3474
     0.1799   0.1799   1.3142   1.3568   1.3568   1.9388   1.9640   2.0611
     2.0611   2.1304   2.1304   2.3073   2.3073   2.4469   4.6022   4.6022
     7.9666   8.0637   8.7378   9.5156   9.5156   9.5313  10.1972  10.1972
    10.4311  10.6943  10.6943  10.7253  11.3591  11.3591  11.8141  12.3712
    12.3712  12.4360  12.5697  12.5697  13.0276  13.2095  13.2098  13.4237

     occupation numbers 
     1.0000   1.0000   1.0000   1.0000   1.0000   1.0000   1.0000   1.0000
     1.0000   1.0000   1.0000   1.0000   1.0000   1.0000   1.0000   1.0000
     1.0000   1.0000   1.0000   1.0000   1.0000   1.0000   1.0000   1.0000
     1.0000   1.0000   1.0000   1.0000   1.0000   1.0000   1.0000   1.0000
     1.0000   1.0000   1.0000   1.0000   1.0000   1.0000   0.0000   0.0000
     0.0000   0.0000   0.0000   0.0000   0.0000   0.0000   0.0000   0.0000
     0.0000   0.0000   0.0000   0.0000   0.0000   0.0000   0.0000   0.0000
     0.0000   0.0000   0.0000   0.0000   0.0000   0.0000   0.0000   0.0000

          k = 0.0000 0.3849-0.1361 (  5534 PWs)   bands (ev):

   -50.0074 -50.0074 -50.0074 -26.0378 -26.0374 -11.4146 -10.8837 -10.7679
   -10.7679 -10.7232 -10.7232  -9.5099  -9.5099  -9.5038  -9.5038  -9.4957
    -9.4941  -2.0140  -1.6533  -1.6533  -0.9615  -0.9243  -0.9243  -0.3474
     0.1799   0.1799   1.3142   1.3568   1.3568   1.9388   1.9639   2.0611
     2.0611   2.1304   2.1304   2.3073   2.3073   2.4469   4.6022   4.6022
     7.9666   8.0637   8.7378   9.5156   9.5156   9.5313  10.1972  10.1972
    10.4311  10.6943  10.6943  10.7253  11.3591  11.3591  11.8140  12.3712
    12.3712  12.4360  12.5697  12.5697  13.0276  13.2095  13.2095  13.4237

     occupation numbers 
     1.0000   1.0000   1.0000   1.0000   1.0000   1.0000   1.0000   1.0000
     1.0000   1.0000   1.0000   1.0000   1.0000   1.0000   1.0000   1.0000
     1.0000   1.0000   1.0000   1.0000   1.0000   1.0000   1.0000   1.0000
     1.0000   1.0000   1.0000   1.0000   1.0000   1.0000   1.0000   1.0000
     1.0000   1.0000   1.0000   1.0000   1.0000   1.0000   0.0000   0.0000
     0.0000   0.0000   0.0000   0.0000   0.0000   0.0000   0.0000   0.0000
     0.0000   0.0000   0.0000   0.0000   0.0000   0.0000   0.0000   0.0000
     0.0000   0.0000   0.0000   0.0000   0.0000   0.0000   0.0000   0.0000

          k = 0.0000 0.3849 0.2722 (  5514 PWs)   bands (ev):

   -50.0074 -50.0073 -50.0073 -26.0378 -26.0374 -11.3978 -10.8382 -10.7994
   -10.7994 -10.7668 -10.6988  -9.5070  -9.5066  -9.5066  -9.4959  -9.4959
    -9.4851  -1.9924  -1.7320  -1.5474  -1.0426  -0.8686  -0.8686  -0.0074
    -0.0074   0.1956   1.3700   1.3700   1.3743   1.6110   1.7065   1.9958
     1.9958   2.0796   2.0796   2.3658   2.3658   2.6243   4.0439   4.8424
     8.2196   8.4110   9.0946   9.3597   9.9242  10.2785  10.2785  10.4126
    10.4462  10.9444  10.9444  11.1885  11.5491  11.5491  11.6134  11.6362
    12.0080  12.1664  12.1664  12.3108  12.8722  12.8723  12.9312  13.2012

     occupation numbers 
     1.0000   1.0000   1.0000   1.0000   1.0000   1.0000   1.0000   1.0000
     1.0000   1.0000   1.0000   1.0000   1.0000   1.0000   1.0000   1.0000
     1.0000   1.0000   1.0000   1.0000   1.0000   1.0000   1.0000   1.0000
     1.0000   1.0000   1.0000   1.0000   1.0000   1.0000   1.0000   1.0000
     1.0000   1.0000   1.0000   1.0000   1.0000   1.0000   0.0000   0.0000
     0.0000   0.0000   0.0000   0.0000   0.0000   0.0000   0.0000   0.0000
     0.0000   0.0000   0.0000   0.0000   0.0000   0.0000   0.0000   0.0000
     0.0000   0.0000   0.0000   0.0000   0.0000   0.0000   0.0000   0.0000

          k = 0.0000 0.3849-0.5443 (  5516 PWs)   bands (ev):

   -50.0074 -50.0074 -50.0073 -26.0376 -26.0376 -11.3681 -10.9132 -10.7985
   -10.7831 -10.7404 -10.7158  -9.5089  -9.5045  -9.4972  -9.4931  -9.4907
    -9.4844  -1.8520  -1.7459  -1.6507  -0.9567  -0.8973  -0.8610  -0.0740
     0.1665   0.3012   1.2937   1.3267   1.4047   1.4314   1.4907   2.0110
     2.0398   2.0761   2.1389   2.3546   2.3622   2.3638   4.1806   4.6047
     8.7457   9.1332   9.3017   9.5837  10.2387  10.3132  10.4081  10.4718
    10.6394  10.7975  11.0351  11.0633  11.2383  11.2778  11.3989  11.8397
    11.8652  12.2097  12.2185  12.3431  12.5328  12.5593  12.7478  12.9834

     occupation numbers 
     1.0000   1.0000   1.0000   1.0000   1.0000   1.0000   1.0000   1.0000
     1.0000   1.0000   1.0000   1.0000   1.0000   1.0000   1.0000   1.0000
     1.0000   1.0000   1.0000   1.0000   1.0000   1.0000   1.0000   1.0000
     1.0000   1.0000   1.0000   1.0000   1.0000   1.0000   1.0000   1.0000
     1.0000   1.0000   1.0000   1.0000   1.0000   1.0000   0.0000   0.0000
     0.0000   0.0000   0.0000   0.0000   0.0000   0.0000   0.0000   0.0000
     0.0000   0.0000   0.0000   0.0000   0.0000   0.0000   0.0000   0.0000
     0.0000   0.0000   0.0000   0.0000   0.0000   0.0000   0.0000   0.0000

          k = 0.3333-0.5774-0.0000 (  5516 PWs)   bands (ev):

   -50.0074 -50.0074 -50.0073 -26.0376 -26.0376 -11.3681 -10.9132 -10.7985
   -10.7831 -10.7404 -10.7158  -9.5089  -9.5045  -9.4973  -9.4931  -9.4907
    -9.4844  -1.8520  -1.7459  -1.6507  -0.9567  -0.8973  -0.8610  -0.0740
     0.1665   0.3012   1.2937   1.3267   1.4047   1.4314   1.4907   2.0110
     2.0398   2.0761   2.1389   2.3546   2.3622   2.3638   4.1806   4.6047
     8.7457   9.1332   9.3017   9.5837  10.2387  10.3132  10.4081  10.4718
    10.6394  10.7975  11.0351  11.0633  11.2383  11.2778  11.3989  11.8397
    11.8652  12.2098  12.2185  12.3431  12.5328  12.5593  12.7478  12.9833

     occupation numbers 
     1.0000   1.0000   1.0000   1.0000   1.0000   1.0000   1.0000   1.0000
     1.0000   1.0000   1.0000   1.0000   1.0000   1.0000   1.0000   1.0000
     1.0000   1.0000   1.0000   1.0000   1.0000   1.0000   1.0000   1.0000
     1.0000   1.0000   1.0000   1.0000   1.0000   1.0000   1.0000   1.0000
     1.0000   1.0000   1.0000   1.0000   1.0000   1.0000   0.0000   0.0000
     0.0000   0.0000   0.0000   0.0000   0.0000   0.0000   0.0000   0.0000
     0.0000   0.0000   0.0000   0.0000   0.0000   0.0000   0.0000   0.0000
     0.0000   0.0000   0.0000   0.0000   0.0000   0.0000   0.0000   0.0000

     highest occupied, lowest unoccupied level (ev):     2.6393    4.0439

!    total energy              =    -718.44707374 Ry
     estimated scf accuracy    <       0.00000001 Ry

     The total energy is the sum of the following terms:
     one-electron contribution =    -230.90709883 Ry
     hartree contribution      =     143.05919754 Ry
     xc contribution           =    -236.14987279 Ry
     ewald contribution        =    -283.61707454 Ry
     one-center paw contrib.   =    -110.83222512 Ry
      -> PAW hartree energy AE =      75.09978001 Ry
      -> PAW hartree energy PS =     -74.68023989 Ry
      -> PAW xc energy AE      =    -132.39578334 Ry
      -> PAW xc energy PS      =      21.14401809 Ry
      -> total E_H with PAW    =     143.47873766 Ry
      -> total E_XC with PAW   =    -347.40163803 Ry

     convergence has been achieved in   8 iterations

     Writing all to output data dir bands_nm/myprefix.save/
