
     Program PWSCF v.7.0 starts on  5Jun2023 at  5:13:32 

     This program is part of the open-source Quantum ESPRESSO suite
     for quantum simulation of materials; please cite
         "P. Giannozzi et al., J. Phys.:Condens. Matter 21 395502 (2009);
         "P. Giannozzi et al., J. Phys.:Condens. Matter 29 465901 (2017);
         "P. Giannozzi et al., J. Chem. Phys. 152 154105 (2020);
          URL http://www.quantum-espresso.org", 
     in publications or presentations arising from this work. More details at
     http://www.quantum-espresso.org/quote

     Parallel version (MPI & OpenMP), running on      32 processor cores
     Number of MPI processes:                 8
     Threads/MPI process:                     4

     MPI processes distributed on     1 nodes
     K-points division:     npool     =       2
     R & G space division:  proc/nbgrp/npool/nimage =       4
     126091 MiB available memory on the printing compute node when the environment starts
 
     Reading input from espresso_10423.pwi
Warning: card &CELL ignored
Warning: card / ignored

     Current dimensions of program PWSCF are:
     Max number of different atomic species (ntypx) = 10
     Max number of k-points (npk) =  40000
     Max angular momentum in pseudopotentials (lmaxx) =  4
     file Pb.pbe-dn-kjpaw_psl.0.2.2.UPF: wavefunction(s)  6S renormalized
     Message from routine setup:
     using ibrav=0 with symmetry is DISCOURAGED, use correct ibrav instead

     Subspace diagonalization in iterative solution of the eigenvalue problem:
     one sub-group per band group will be used
     scalapack distributed-memory algorithm (size of sub-group:  2*  2 procs)

 
     Parallelization info
     --------------------
     sticks:   dense  smooth     PW     G-vecs:    dense   smooth      PW
     Min        1012     510    155                23286     8251    1401
     Max        1013     511    156                23287     8252    1402
     Sum        4051    2041    621                93147    33007    5607
 
     Using Slab Decomposition
 


     bravais-lattice index     =            0
     lattice parameter (alat)  =      26.6606  a.u.
     unit-cell volume          =    1483.9414 (a.u.)^3
     number of atoms/cell      =            8
     number of atomic types    =            3
     number of electrons       =        76.00
     number of Kohn-Sham states=           64
     kinetic-energy cutoff     =      30.0000  Ry
     charge density cutoff     =     240.0000  Ry
     scf convergence threshold =      1.0E-06
     mixing beta               =       0.7000
     number of iterations used =            8  plain     mixing
     Exchange-correlation=  SLA  PW   PBX  PBC
                           (   1   4   3   4   0   0   0)

     celldm(1)=  26.660581  celldm(2)=   0.000000  celldm(3)=   0.000000
     celldm(4)=   0.000000  celldm(5)=   0.000000  celldm(6)=   0.000000

     crystal axes: (cart. coord. in units of alat)
               a(1) = (   1.000000   0.000000   0.000000 )  
               a(2) = (   0.954080   0.299551   0.000000 )  
               a(3) = (   0.954080   0.146256   0.261419 )  

     reciprocal axes: (cart. coord. in units 2 pi/alat)
               b(1) = (  1.000000 -3.185036 -1.867692 )  
               b(2) = (  0.000000  3.338331 -1.867692 )  
               b(3) = (  0.000000  0.000000  3.825275 )  


     PseudoPot. # 1 for Sr read from file:
     /home/pragov/projects/rrg-bengioy-ad/pragov/crystal_structure_design/SSSP/Sr_pbe_v1.uspp.F.UPF
     MD5 check sum: 6b418c05fbe9db5448babca5e47b7a5b
     Pseudo is Ultrasoft + core correction, Zval = 10.0
     Generated by new atomic code, or converted to UPF format
     Using radial grid of  883 points,  6 beta functions with: 
                l(1) =   0
                l(2) =   0
                l(3) =   1
                l(4) =   1
                l(5) =   2
                l(6) =   2
     Q(r) pseudized with  6 coefficients,  rinner =    1.400   1.400   1.400
                                                       1.400   1.400

     PseudoPot. # 2 for Pb read from file:
     /home/pragov/projects/rrg-bengioy-ad/pragov/crystal_structure_design/SSSP/Pb.pbe-dn-kjpaw_psl.0.2.2.UPF
     MD5 check sum: 9d431e6316058b74ade52399a6cf67da
     Pseudo is Projector augmented-wave + core cor, Zval = 14.0
     Generated using "atomic" code by A. Dal Corso  v.5.0.99 svn rev. 10869
     Shape of augmentation charge: PSQ
     Using radial grid of 1281 points,  6 beta functions with: 
                l(1) =   0
                l(2) =   0
                l(3) =   1
                l(4) =   1
                l(5) =   2
                l(6) =   2
     Q(r) pseudized with 0 coefficients 


     PseudoPot. # 3 for S  read from file:
     /home/pragov/projects/rrg-bengioy-ad/pragov/crystal_structure_design/SSSP/s_pbe_v1.4.uspp.F.UPF
     MD5 check sum: 88d86576ff6df21479756cfb9bdac1df
     Pseudo is Ultrasoft + core correction, Zval =  6.0
     Generated by new atomic code, or converted to UPF format
     Using radial grid of  907 points,  6 beta functions with: 
                l(1) =   0
                l(2) =   0
                l(3) =   1
                l(4) =   1
                l(5) =   2
                l(6) =   2
     Q(r) pseudized with  8 coefficients,  rinner =    1.300   1.300   1.300
                                                       1.300   1.300

     atomic species   valence    mass     pseudopotential
        Sr            10.00    87.62000     Sr( 1.00)
        Pb            14.00   207.20000     Pb( 1.00)
        S              6.00    32.06000     S ( 1.00)

      2 Sym. Ops., with inversion, found


                                    s                        frac. trans.

      isym =  1     identity                                     

 cryst.   s( 1) = (     1          0          0      )
                  (     0          1          0      )
                  (     0          0          1      )

 cart.    s( 1) = (  1.0000000  0.0000000  0.0000000 )
                  (  0.0000000  1.0000000  0.0000000 )
                  (  0.0000000  0.0000000  1.0000000 )


      isym =  2     inversion                                    

 cryst.   s( 2) = (    -1          0          0      )
                  (     0         -1          0      )
                  (     0          0         -1      )

 cart.    s( 2) = ( -1.0000000 -0.0000000 -0.0000000 )
                  (  0.0000000 -1.0000000 -0.0000000 )
                  (  0.0000000  0.0000000 -1.0000000 )


   Cartesian axes

     site n.     atom                  positions (alat units)
         1           Sr  tau(   1) = (   0.0000000   0.0000000   0.0000000  )
         2           Pb  tau(   2) = (   0.7264818   0.1113661   0.0653046  )
         3           Pb  tau(   3) = (   1.4540803   0.2229033   0.1307096  )
         4           Pb  tau(   4) = (   2.1816789   0.3344406   0.1961145  )
         5           S   tau(   5) = (   0.3637818   0.0557660   0.0327009  )
         6           S   tau(   6) = (   1.0899786   0.1670883   0.0979799  )
         7           S   tau(   7) = (   1.8181821   0.2787183   0.1634392  )
         8           S   tau(   8) = (   2.5443789   0.3900407   0.2287182  )

   Crystallographic axes

     site n.     atom                  positions (cryst. coord.)
         1           Sr  tau(   1) = (  0.0000000  0.0000000  0.0000000  )
         2           Pb  tau(   2) = (  0.2498080  0.2498080  0.2498080  )
         3           Pb  tau(   3) = (  0.5000000  0.5000000  0.5000000  )
         4           Pb  tau(   4) = (  0.7501920  0.7501920  0.7501920  )
         5           S   tau(   5) = (  0.1250900  0.1250900  0.1250900  )
         6           S   tau(   6) = (  0.3748000  0.3748000  0.3748000  )
         7           S   tau(   7) = (  0.6252000  0.6252000  0.6252000  )
         8           S   tau(   8) = (  0.8749100  0.8749100  0.8749100  )

     number of k points=    14
                       cart. coord. in units 2pi/alat
        k(    1) = (   0.0000000   0.0000000   0.0000000), wk =   0.0740741
        k(    2) = (   0.0000000   0.0000000   1.2750916), wk =   0.1481481
        k(    3) = (   0.0000000   1.1127772  -0.6225639), wk =   0.1481481
        k(    4) = (   0.0000000   1.1127772   0.6525277), wk =   0.1481481
        k(    5) = (   0.0000000   1.1127772  -1.8976555), wk =   0.1481481
        k(    6) = (   0.3333333  -1.0616788  -0.6225639), wk =   0.1481481
        k(    7) = (   0.3333333  -1.0616788   0.6525277), wk =   0.1481481
        k(    8) = (   0.3333333  -1.0616788  -1.8976555), wk =   0.1481481
        k(    9) = (   0.3333333   0.0510983  -1.2451278), wk =   0.1481481
        k(   10) = (   0.3333333   0.0510983   0.0299638), wk =   0.1481481
        k(   11) = (   0.3333333   0.0510983  -2.5202194), wk =   0.1481481
        k(   12) = (   0.3333333  -2.1744560  -0.0000000), wk =   0.1481481
        k(   13) = (   0.3333333  -2.1744560   1.2750916), wk =   0.1481481
        k(   14) = (   0.3333333  -2.1744560  -1.2750916), wk =   0.1481481

                       cryst. coord.
        k(    1) = (   0.0000000   0.0000000   0.0000000), wk =   0.0740741
        k(    2) = (   0.0000000   0.0000000   0.3333333), wk =   0.1481481
        k(    3) = (   0.0000000   0.3333333   0.0000000), wk =   0.1481481
        k(    4) = (   0.0000000   0.3333333   0.3333333), wk =   0.1481481
        k(    5) = (   0.0000000   0.3333333  -0.3333333), wk =   0.1481481
        k(    6) = (   0.3333333  -0.0000000  -0.0000000), wk =   0.1481481
        k(    7) = (   0.3333333  -0.0000000   0.3333333), wk =   0.1481481
        k(    8) = (   0.3333333  -0.0000000  -0.3333333), wk =   0.1481481
        k(    9) = (   0.3333333   0.3333333  -0.0000000), wk =   0.1481481
        k(   10) = (   0.3333333   0.3333333   0.3333333), wk =   0.1481481
        k(   11) = (   0.3333333   0.3333333  -0.3333333), wk =   0.1481481
        k(   12) = (   0.3333333  -0.3333333  -0.0000000), wk =   0.1481481
        k(   13) = (   0.3333333  -0.3333333   0.3333333), wk =   0.1481481
        k(   14) = (   0.3333333  -0.3333333  -0.3333333), wk =   0.1481481

     Dense  grid:    93147 G-vectors     FFT dimensions: ( 135, 135, 135)

     Smooth grid:    33007 G-vectors     FFT dimensions: (  96,  96,  96)

     Dynamical RAM for                 wfc:       1.00 MB

     Dynamical RAM for     wfc (w. buffer):       8.04 MB

     Dynamical RAM for           str. fact:       1.07 MB

     Dynamical RAM for           local pot:       0.00 MB

     Dynamical RAM for          nlocal pot:       2.26 MB

     Dynamical RAM for                qrad:       3.73 MB

     Dynamical RAM for          rho,v,vnew:      15.25 MB

     Dynamical RAM for               rhoin:       5.08 MB

     Dynamical RAM for            rho*nmix:       5.69 MB

     Dynamical RAM for           G-vectors:       1.40 MB

     Dynamical RAM for          h,s,v(r/c):       0.19 MB

     Dynamical RAM for          <psi|beta>:       0.14 MB

     Dynamical RAM for                 psi:       2.01 MB

     Dynamical RAM for                hpsi:       2.01 MB

     Dynamical RAM for                spsi:       2.01 MB

     Dynamical RAM for      wfcinit/wfcrot:       2.10 MB

     Dynamical RAM for           addusdens:      33.93 MB

     Estimated static dynamical RAM per process >      61.88 MB

     Estimated max dynamical RAM per process >     101.50 MB

     Estimated total dynamical RAM >     789.28 MB

     Check: negative core charge=   -0.000002

     Initial potential from superposition of free atoms

     starting charge      75.9591, renormalised to      76.0000

     negative rho (up, down):  6.347E-02 0.000E+00
     Starting wfcs are   56 randomized atomic wfcs +    8 random wfcs
     Checking if some PAW data can be deallocated... 
       PAW data deallocated on    5 nodes for type:  2

     total cpu time spent up to now is       11.5 secs

     Self-consistent Calculation

     iteration #  1     ecut=    30.00 Ry     beta= 0.70
     Davidson diagonalization with overlap

---- Real-time Memory Report at c_bands before calling an iterative solver
           264 MiB given to the printing process from OS
             0 MiB allocation reported by mallinfo(arena+hblkhd)
        125281 MiB available memory on the node where the printing process lives
------------------
     ethr =  1.00E-02,  avg # of iterations =  6.5

     negative rho (up, down):  6.495E-02 0.000E+00

     total cpu time spent up to now is       39.3 secs

     total energy              =   -2778.31740150 Ry
     estimated scf accuracy    <       0.80565307 Ry

     iteration #  2     ecut=    30.00 Ry     beta= 0.70
     Davidson diagonalization with overlap

---- Real-time Memory Report at c_bands before calling an iterative solver
           332 MiB given to the printing process from OS
             0 MiB allocation reported by mallinfo(arena+hblkhd)
        124670 MiB available memory on the node where the printing process lives
------------------
     ethr =  1.06E-03,  avg # of iterations =  6.9

     negative rho (up, down):  6.510E-02 0.000E+00

     total cpu time spent up to now is       64.4 secs

     total energy              =   -2776.94444834 Ry
     estimated scf accuracy    <      10.82222738 Ry

     iteration #  3     ecut=    30.00 Ry     beta= 0.70
     Davidson diagonalization with overlap

---- Real-time Memory Report at c_bands before calling an iterative solver
           343 MiB given to the printing process from OS
             0 MiB allocation reported by mallinfo(arena+hblkhd)
        124491 MiB available memory on the node where the printing process lives
------------------
     ethr =  1.06E-03,  avg # of iterations =  6.2

     negative rho (up, down):  6.546E-02 0.000E+00

     total cpu time spent up to now is       90.7 secs

     total energy              =   -2778.24429845 Ry
     estimated scf accuracy    <       5.86964259 Ry

     iteration #  4     ecut=    30.00 Ry     beta= 0.70
     Davidson diagonalization with overlap

---- Real-time Memory Report at c_bands before calling an iterative solver
           345 MiB given to the printing process from OS
             0 MiB allocation reported by mallinfo(arena+hblkhd)
        124554 MiB available memory on the node where the printing process lives
------------------
     ethr =  1.06E-03,  avg # of iterations =  4.4

     negative rho (up, down):  6.590E-02 0.000E+00

     total cpu time spent up to now is      107.3 secs

     total energy              =   -2778.73107266 Ry
     estimated scf accuracy    <       0.10849641 Ry

     iteration #  5     ecut=    30.00 Ry     beta= 0.70
     Davidson diagonalization with overlap

---- Real-time Memory Report at c_bands before calling an iterative solver
           347 MiB given to the printing process from OS
             0 MiB allocation reported by mallinfo(arena+hblkhd)
        124566 MiB available memory on the node where the printing process lives
------------------
     ethr =  1.43E-04,  avg # of iterations =  6.6

     negative rho (up, down):  6.648E-02 0.000E+00

     total cpu time spent up to now is      119.8 secs

     total energy              =   -2778.72578114 Ry
     estimated scf accuracy    <       0.04643258 Ry

     iteration #  6     ecut=    30.00 Ry     beta= 0.70
     Davidson diagonalization with overlap

---- Real-time Memory Report at c_bands before calling an iterative solver
           347 MiB given to the printing process from OS
             0 MiB allocation reported by mallinfo(arena+hblkhd)
        124542 MiB available memory on the node where the printing process lives
------------------
     ethr =  6.11E-05,  avg # of iterations =  4.4

     negative rho (up, down):  6.646E-02 0.000E+00

     total cpu time spent up to now is      144.9 secs

     total energy              =   -2778.72940389 Ry
     estimated scf accuracy    <       0.00351835 Ry

     iteration #  7     ecut=    30.00 Ry     beta= 0.70
     Davidson diagonalization with overlap

---- Real-time Memory Report at c_bands before calling an iterative solver
           348 MiB given to the printing process from OS
             0 MiB allocation reported by mallinfo(arena+hblkhd)
        124547 MiB available memory on the node where the printing process lives
------------------
     c_bands:  1 eigenvalues not converged
     ethr =  4.63E-06,  avg # of iterations = 12.5

     negative rho (up, down):  6.647E-02 0.000E+00

     total cpu time spent up to now is      164.6 secs

     total energy              =   -2778.73016686 Ry
     estimated scf accuracy    <       0.00030092 Ry

     iteration #  8     ecut=    30.00 Ry     beta= 0.70
     Davidson diagonalization with overlap

---- Real-time Memory Report at c_bands before calling an iterative solver
           350 MiB given to the printing process from OS
             0 MiB allocation reported by mallinfo(arena+hblkhd)
        124488 MiB available memory on the node where the printing process lives
------------------
     ethr =  3.96E-07,  avg # of iterations =  6.1

     negative rho (up, down):  6.647E-02 0.000E+00

     total cpu time spent up to now is      178.1 secs

     total energy              =   -2778.73025220 Ry
     estimated scf accuracy    <       0.00001111 Ry

     iteration #  9     ecut=    30.00 Ry     beta= 0.70
     Davidson diagonalization with overlap

---- Real-time Memory Report at c_bands before calling an iterative solver
           351 MiB given to the printing process from OS
             0 MiB allocation reported by mallinfo(arena+hblkhd)
        124482 MiB available memory on the node where the printing process lives
------------------
     ethr =  1.46E-08,  avg # of iterations =  5.0

     negative rho (up, down):  6.647E-02 0.000E+00

     total cpu time spent up to now is      191.2 secs

     total energy              =   -2778.73026288 Ry
     estimated scf accuracy    <       0.00000112 Ry

     iteration # 10     ecut=    30.00 Ry     beta= 0.70
     Davidson diagonalization with overlap

---- Real-time Memory Report at c_bands before calling an iterative solver
           351 MiB given to the printing process from OS
             0 MiB allocation reported by mallinfo(arena+hblkhd)
        124467 MiB available memory on the node where the printing process lives
------------------
     ethr =  1.47E-09,  avg # of iterations =  3.2

     negative rho (up, down):  6.648E-02 0.000E+00

     total cpu time spent up to now is      207.4 secs

     End of self-consistent calculation

          k = 0.0000 0.0000 0.0000 (  4083 PWs)   bands (ev):

   -27.0808  -9.2498  -9.0779  -9.0779  -9.0763  -9.0763  -9.0747  -9.0714
    -9.0609  -9.0609  -9.0596  -9.0596  -9.0433  -9.0433  -9.0430  -9.0430
    -9.0406  -9.0162  -9.0162  -5.3733  -4.9083  -4.6025  -4.1289  -0.5764
     0.3209   1.0849   5.0745   5.5523   5.5523   5.7749   5.7749   5.8492
     5.9978   5.9978   6.1420   6.1420   6.7948   7.0977   8.5505   9.3711
     9.9864   9.9864  10.5107  10.5107  11.1293  11.7539  11.8171  11.8171
    11.9877  11.9877  13.4578  13.7370  13.7370  14.1538  14.7629  15.0718
    15.0718  15.4705  15.4705  15.9064  15.9106  16.4340  17.2095  17.2095

     occupation numbers 
     1.0000   1.0000   1.0000   1.0000   1.0000   1.0000   1.0000   1.0000
     1.0000   1.0000   1.0000   1.0000   1.0000   1.0000   1.0000   1.0000
     1.0000   1.0000   1.0000   1.0000   1.0000   1.0000   1.0000   1.0000
     1.0000   1.0000   1.0000   1.0000   1.0000   1.0000   1.0000   1.0000
     1.0000   1.0000   1.0000   1.0000   1.0000   1.0000   0.0000   0.0000
     0.0000   0.0000   0.0000   0.0000   0.0000   0.0000   0.0000   0.0000
     0.0000   0.0000   0.0000   0.0000   0.0000   0.0000   0.0000   0.0000
     0.0000   0.0000   0.0000   0.0000   0.0000   0.0000   0.0000   0.0000

          k = 0.0000 0.0000 1.2751 (  4118 PWs)   bands (ev):

   -27.0724  -9.2680  -9.1844  -9.1167  -9.1072  -9.1007  -9.0800  -9.0717
    -9.0593  -9.0584  -9.0570  -9.0534  -9.0503  -9.0430  -9.0409  -9.0292
    -9.0205  -9.0138  -9.0124  -4.6928  -4.4152  -4.0987  -3.9861  -0.4272
    -0.1335   0.1657   3.6360   4.1254   4.8599   4.8612   5.0538   5.1894
     5.3462   5.6882   5.9235   6.0168   6.1640   6.9865   9.1756   9.7241
    10.2554  10.3045  10.7836  10.9662  11.1593  11.6114  12.1652  12.2780
    12.7285  13.0251  13.1350  13.9683  14.2684  14.4051  14.7649  15.4371
    16.2080  16.5352  16.5951  16.9612  17.3873  17.6359  17.7456  18.4607

     occupation numbers 
     1.0000   1.0000   1.0000   1.0000   1.0000   1.0000   1.0000   1.0000
     1.0000   1.0000   1.0000   1.0000   1.0000   1.0000   1.0000   1.0000
     1.0000   1.0000   1.0000   1.0000   1.0000   1.0000   1.0000   1.0000
     1.0000   1.0000   1.0000   1.0000   1.0000   1.0000   1.0000   1.0000
     1.0000   1.0000   1.0000   1.0000   1.0000   1.0000   0.0000   0.0000
     0.0000   0.0000   0.0000   0.0000   0.0000   0.0000   0.0000   0.0000
     0.0000   0.0000   0.0000   0.0000   0.0000   0.0000   0.0000   0.0000
     0.0000   0.0000   0.0000   0.0000   0.0000   0.0000   0.0000   0.0000

          k = 0.0000 1.1128-0.6226 (  4118 PWs)   bands (ev):

   -27.0724  -9.2680  -9.1844  -9.1167  -9.1072  -9.1007  -9.0800  -9.0717
    -9.0593  -9.0584  -9.0570  -9.0534  -9.0503  -9.0430  -9.0409  -9.0292
    -9.0205  -9.0138  -9.0124  -4.6928  -4.4152  -4.0987  -3.9861  -0.4272
    -0.1335   0.1657   3.6360   4.1254   4.8599   4.8612   5.0538   5.1894
     5.3462   5.6882   5.9235   6.0168   6.1640   6.9865   9.1756   9.7241
    10.2554  10.3045  10.7836  10.9662  11.1593  11.6114  12.1652  12.2780
    12.7285  13.0251  13.1350  13.9683  14.2684  14.4051  14.7649  15.4371
    16.2080  16.5352  16.5951  16.9612  17.3872  17.6358  17.7456  18.4607

     occupation numbers 
     1.0000   1.0000   1.0000   1.0000   1.0000   1.0000   1.0000   1.0000
     1.0000   1.0000   1.0000   1.0000   1.0000   1.0000   1.0000   1.0000
     1.0000   1.0000   1.0000   1.0000   1.0000   1.0000   1.0000   1.0000
     1.0000   1.0000   1.0000   1.0000   1.0000   1.0000   1.0000   1.0000
     1.0000   1.0000   1.0000   1.0000   1.0000   1.0000   0.0000   0.0000
     0.0000   0.0000   0.0000   0.0000   0.0000   0.0000   0.0000   0.0000
     0.0000   0.0000   0.0000   0.0000   0.0000   0.0000   0.0000   0.0000
     0.0000   0.0000   0.0000   0.0000   0.0000   0.0000   0.0000   0.0000

          k = 0.0000 1.1128 0.6525 (  4122 PWs)   bands (ev):

   -27.0724  -9.2678  -9.1842  -9.1243  -9.1003  -9.1000  -9.0790  -9.0685
    -9.0648  -9.0608  -9.0566  -9.0511  -9.0481  -9.0427  -9.0416  -9.0290
    -9.0209  -9.0147  -9.0125  -4.6980  -4.3902  -4.1481  -3.9561  -0.4154
    -0.1600   0.1805   3.6143   4.1947   4.7452   4.8757   5.1445   5.1499
     5.3603   5.7404   5.7451   5.9882   6.3767   6.9157   9.0434   9.9320
    10.2357  10.3851  10.7303  10.9441  11.1305  11.6818  12.1274  12.1487
    12.6975  12.9290  13.1390  14.1467  14.3542  14.4175  14.7582  15.6677
    16.0022  16.3913  16.6551  16.7750  17.2293  17.6055  17.9012  18.6044

     occupation numbers 
     1.0000   1.0000   1.0000   1.0000   1.0000   1.0000   1.0000   1.0000
     1.0000   1.0000   1.0000   1.0000   1.0000   1.0000   1.0000   1.0000
     1.0000   1.0000   1.0000   1.0000   1.0000   1.0000   1.0000   1.0000
     1.0000   1.0000   1.0000   1.0000   1.0000   1.0000   1.0000   1.0000
     1.0000   1.0000   1.0000   1.0000   1.0000   1.0000   0.0000   0.0000
     0.0000   0.0000   0.0000   0.0000   0.0000   0.0000   0.0000   0.0000
     0.0000   0.0000   0.0000   0.0000   0.0000   0.0000   0.0000   0.0000
     0.0000   0.0000   0.0000   0.0000   0.0000   0.0000   0.0000   0.0000

          k = 0.0000 1.1128-1.8977 (  4131 PWs)   bands (ev):

   -27.0681  -9.2407  -9.2407  -9.1597  -9.1137  -9.1020  -9.0803  -9.0784
    -9.0572  -9.0552  -9.0543  -9.0530  -9.0520  -9.0447  -9.0393  -9.0346
    -9.0199  -9.0190  -9.0093  -4.0834  -4.0833  -3.9498  -3.9497  -0.4047
    -0.4047  -0.3905   3.7425   3.7817   3.8161   4.2289   4.4280   4.6591
     5.2142   5.3504   5.4930   6.3918   6.4556   6.4960   9.7876   9.9898
    10.2160  10.7903  11.2132  11.3117  11.7062  11.8844  12.1421  12.1427
    12.2146  12.7484  14.6528  14.7648  14.8365  15.0014  15.3731  15.6219
    15.6613  16.1501  16.2101  17.0937  17.1602  17.5477  18.0023  18.7513

     occupation numbers 
     1.0000   1.0000   1.0000   1.0000   1.0000   1.0000   1.0000   1.0000
     1.0000   1.0000   1.0000   1.0000   1.0000   1.0000   1.0000   1.0000
     1.0000   1.0000   1.0000   1.0000   1.0000   1.0000   1.0000   1.0000
     1.0000   1.0000   1.0000   1.0000   1.0000   1.0000   1.0000   1.0000
     1.0000   1.0000   1.0000   1.0000   1.0000   1.0000   0.0000   0.0000
     0.0000   0.0000   0.0000   0.0000   0.0000   0.0000   0.0000   0.0000
     0.0000   0.0000   0.0000   0.0000   0.0000   0.0000   0.0000   0.0000
     0.0000   0.0000   0.0000   0.0000   0.0000   0.0000   0.0000   0.0000

          k = 0.3333-1.0617-0.6226 (  4118 PWs)   bands (ev):

   -27.0724  -9.2680  -9.1844  -9.1167  -9.1072  -9.1007  -9.0800  -9.0717
    -9.0593  -9.0584  -9.0570  -9.0534  -9.0503  -9.0430  -9.0409  -9.0292
    -9.0205  -9.0138  -9.0124  -4.6928  -4.4152  -4.0987  -3.9861  -0.4272
    -0.1335   0.1657   3.6360   4.1254   4.8599   4.8612   5.0538   5.1894
     5.3462   5.6882   5.9235   6.0168   6.1640   6.9865   9.1756   9.7241
    10.2554  10.3045  10.7836  10.9662  11.1593  11.6114  12.1652  12.2780
    12.7285  13.0251  13.1350  13.9683  14.2684  14.4051  14.7649  15.4371
    16.2080  16.5352  16.5951  16.9612  17.3873  17.6357  17.7456  18.4605

     occupation numbers 
     1.0000   1.0000   1.0000   1.0000   1.0000   1.0000   1.0000   1.0000
     1.0000   1.0000   1.0000   1.0000   1.0000   1.0000   1.0000   1.0000
     1.0000   1.0000   1.0000   1.0000   1.0000   1.0000   1.0000   1.0000
     1.0000   1.0000   1.0000   1.0000   1.0000   1.0000   1.0000   1.0000
     1.0000   1.0000   1.0000   1.0000   1.0000   1.0000   0.0000   0.0000
     0.0000   0.0000   0.0000   0.0000   0.0000   0.0000   0.0000   0.0000
     0.0000   0.0000   0.0000   0.0000   0.0000   0.0000   0.0000   0.0000
     0.0000   0.0000   0.0000   0.0000   0.0000   0.0000   0.0000   0.0000

          k = 0.3333-1.0617 0.6525 (  4122 PWs)   bands (ev):

   -27.0724  -9.2678  -9.1842  -9.1243  -9.1003  -9.1000  -9.0790  -9.0685
    -9.0648  -9.0608  -9.0566  -9.0511  -9.0481  -9.0427  -9.0416  -9.0290
    -9.0209  -9.0147  -9.0125  -4.6980  -4.3902  -4.1481  -3.9561  -0.4154
    -0.1600   0.1805   3.6143   4.1947   4.7452   4.8757   5.1445   5.1499
     5.3603   5.7404   5.7451   5.9882   6.3767   6.9157   9.0434   9.9320
    10.2357  10.3851  10.7303  10.9440  11.1305  11.6818  12.1274  12.1487
    12.6975  12.9290  13.1390  14.1467  14.3542  14.4175  14.7582  15.6677
    16.0022  16.3914  16.6551  16.7750  17.2293  17.6055  17.9013  18.6047

     occupation numbers 
     1.0000   1.0000   1.0000   1.0000   1.0000   1.0000   1.0000   1.0000
     1.0000   1.0000   1.0000   1.0000   1.0000   1.0000   1.0000   1.0000
     1.0000   1.0000   1.0000   1.0000   1.0000   1.0000   1.0000   1.0000
     1.0000   1.0000   1.0000   1.0000   1.0000   1.0000   1.0000   1.0000
     1.0000   1.0000   1.0000   1.0000   1.0000   1.0000   0.0000   0.0000
     0.0000   0.0000   0.0000   0.0000   0.0000   0.0000   0.0000   0.0000
     0.0000   0.0000   0.0000   0.0000   0.0000   0.0000   0.0000   0.0000
     0.0000   0.0000   0.0000   0.0000   0.0000   0.0000   0.0000   0.0000

          k = 0.3333-1.0617-1.8977 (  4131 PWs)   bands (ev):

   -27.0681  -9.2407  -9.2407  -9.1597  -9.1137  -9.1020  -9.0803  -9.0784
    -9.0572  -9.0552  -9.0543  -9.0530  -9.0520  -9.0447  -9.0393  -9.0346
    -9.0199  -9.0190  -9.0093  -4.0834  -4.0833  -3.9498  -3.9497  -0.4047
    -0.4047  -0.3905   3.7425   3.7817   3.8161   4.2289   4.4280   4.6591
     5.2142   5.3504   5.4930   6.3918   6.4556   6.4960   9.7876   9.9898
    10.2160  10.7903  11.2132  11.3117  11.7062  11.8844  12.1421  12.1427
    12.2146  12.7484  14.6528  14.7648  14.8365  15.0014  15.3731  15.6219
    15.6613  16.1501  16.2101  17.0937  17.1602  17.5477  18.0024  18.7513

     occupation numbers 
     1.0000   1.0000   1.0000   1.0000   1.0000   1.0000   1.0000   1.0000
     1.0000   1.0000   1.0000   1.0000   1.0000   1.0000   1.0000   1.0000
     1.0000   1.0000   1.0000   1.0000   1.0000   1.0000   1.0000   1.0000
     1.0000   1.0000   1.0000   1.0000   1.0000   1.0000   1.0000   1.0000
     1.0000   1.0000   1.0000   1.0000   1.0000   1.0000   0.0000   0.0000
     0.0000   0.0000   0.0000   0.0000   0.0000   0.0000   0.0000   0.0000
     0.0000   0.0000   0.0000   0.0000   0.0000   0.0000   0.0000   0.0000
     0.0000   0.0000   0.0000   0.0000   0.0000   0.0000   0.0000   0.0000

          k = 0.3333 0.0511-1.2451 (  4122 PWs)   bands (ev):

   -27.0724  -9.2678  -9.1842  -9.1243  -9.1003  -9.1000  -9.0790  -9.0685
    -9.0648  -9.0608  -9.0566  -9.0511  -9.0481  -9.0427  -9.0416  -9.0290
    -9.0209  -9.0147  -9.0125  -4.6980  -4.3902  -4.1481  -3.9561  -0.4154
    -0.1600   0.1805   3.6143   4.1947   4.7452   4.8757   5.1445   5.1499
     5.3603   5.7404   5.7451   5.9882   6.3767   6.9157   9.0434   9.9320
    10.2357  10.3851  10.7303  10.9440  11.1305  11.6818  12.1274  12.1487
    12.6975  12.9290  13.1390  14.1467  14.3542  14.4175  14.7582  15.6677
    16.0022  16.3913  16.6551  16.7750  17.2293  17.6055  17.9011  18.6047

     occupation numbers 
     1.0000   1.0000   1.0000   1.0000   1.0000   1.0000   1.0000   1.0000
     1.0000   1.0000   1.0000   1.0000   1.0000   1.0000   1.0000   1.0000
     1.0000   1.0000   1.0000   1.0000   1.0000   1.0000   1.0000   1.0000
     1.0000   1.0000   1.0000   1.0000   1.0000   1.0000   1.0000   1.0000
     1.0000   1.0000   1.0000   1.0000   1.0000   1.0000   0.0000   0.0000
     0.0000   0.0000   0.0000   0.0000   0.0000   0.0000   0.0000   0.0000
     0.0000   0.0000   0.0000   0.0000   0.0000   0.0000   0.0000   0.0000
     0.0000   0.0000   0.0000   0.0000   0.0000   0.0000   0.0000   0.0000

          k = 0.3333 0.0511 0.0300 (  4096 PWs)   bands (ev):

   -27.0808  -9.2498  -9.0793  -9.0793  -9.0746  -9.0744  -9.0744  -9.0715
    -9.0643  -9.0643  -9.0541  -9.0541  -9.0469  -9.0469  -9.0421  -9.0421
    -9.0406  -9.0159  -9.0159  -5.3513  -5.0016  -4.4515  -4.2126  -0.5335
     0.2383   1.1345   5.0049   5.5483   5.5483   5.8061   5.8061   5.9415
     5.9415   6.0628   6.1728   6.1728   6.4877   7.3082   8.4015   9.5495
     9.8882   9.8882  10.7515  10.7515  10.9317  11.5962  11.5962  11.8238
    11.9661  11.9661  13.6006  13.9674  13.9674  14.2132  14.8149  14.8149
    14.8369  15.2210  15.9275  15.9275  16.0521  16.6067  16.6067  16.9555

     occupation numbers 
     1.0000   1.0000   1.0000   1.0000   1.0000   1.0000   1.0000   1.0000
     1.0000   1.0000   1.0000   1.0000   1.0000   1.0000   1.0000   1.0000
     1.0000   1.0000   1.0000   1.0000   1.0000   1.0000   1.0000   1.0000
     1.0000   1.0000   1.0000   1.0000   1.0000   1.0000   1.0000   1.0000
     1.0000   1.0000   1.0000   1.0000   1.0000   1.0000   0.0000   0.0000
     0.0000   0.0000   0.0000   0.0000   0.0000   0.0000   0.0000   0.0000
     0.0000   0.0000   0.0000   0.0000   0.0000   0.0000   0.0000   0.0000
     0.0000   0.0000   0.0000   0.0000   0.0000   0.0000   0.0000   0.0000

          k = 0.3333 0.0511-2.5202 (  4122 PWs)   bands (ev):

   -27.0724  -9.2678  -9.1847  -9.1219  -9.1003  -9.1001  -9.0765  -9.0728
    -9.0640  -9.0635  -9.0568  -9.0530  -9.0462  -9.0424  -9.0407  -9.0284
    -9.0207  -9.0142  -9.0128  -4.6875  -4.4298  -4.0734  -4.0019  -0.4212
    -0.1519   0.1788   3.5934   4.3368   4.5723   4.8409   5.0977   5.2771
     5.4539   5.5540   5.7697   6.0880   6.3035   7.0190   8.9322   9.9332
    10.1792  10.3518  10.6534  11.2343  11.2358  11.8540  11.9843  12.0781
    12.4357  12.8602  13.1375  14.3405  14.3432  14.7630  15.0588  15.1318
    15.7114  16.3239  16.4959  17.0325  17.2021  17.5201  18.2661  18.7079

     occupation numbers 
     1.0000   1.0000   1.0000   1.0000   1.0000   1.0000   1.0000   1.0000
     1.0000   1.0000   1.0000   1.0000   1.0000   1.0000   1.0000   1.0000
     1.0000   1.0000   1.0000   1.0000   1.0000   1.0000   1.0000   1.0000
     1.0000   1.0000   1.0000   1.0000   1.0000   1.0000   1.0000   1.0000
     1.0000   1.0000   1.0000   1.0000   1.0000   1.0000   0.0000   0.0000
     0.0000   0.0000   0.0000   0.0000   0.0000   0.0000   0.0000   0.0000
     0.0000   0.0000   0.0000   0.0000   0.0000   0.0000   0.0000   0.0000
     0.0000   0.0000   0.0000   0.0000   0.0000   0.0000   0.0000   0.0000

          k = 0.3333-2.1745-0.0000 (  4131 PWs)   bands (ev):

   -27.0681  -9.2407  -9.2407  -9.1597  -9.1137  -9.1020  -9.0803  -9.0784
    -9.0572  -9.0552  -9.0543  -9.0530  -9.0520  -9.0447  -9.0393  -9.0346
    -9.0199  -9.0190  -9.0093  -4.0834  -4.0833  -3.9498  -3.9497  -0.4047
    -0.4047  -0.3905   3.7425   3.7817   3.8161   4.2289   4.4280   4.6591
     5.2142   5.3504   5.4930   6.3918   6.4556   6.4960   9.7876   9.9898
    10.2160  10.7903  11.2132  11.3117  11.7062  11.8844  12.1421  12.1427
    12.2146  12.7484  14.6528  14.7648  14.8365  15.0014  15.3731  15.6220
    15.6613  16.1501  16.2101  17.0937  17.1602  17.5477  18.0023  18.7513

     occupation numbers 
     1.0000   1.0000   1.0000   1.0000   1.0000   1.0000   1.0000   1.0000
     1.0000   1.0000   1.0000   1.0000   1.0000   1.0000   1.0000   1.0000
     1.0000   1.0000   1.0000   1.0000   1.0000   1.0000   1.0000   1.0000
     1.0000   1.0000   1.0000   1.0000   1.0000   1.0000   1.0000   1.0000
     1.0000   1.0000   1.0000   1.0000   1.0000   1.0000   0.0000   0.0000
     0.0000   0.0000   0.0000   0.0000   0.0000   0.0000   0.0000   0.0000
     0.0000   0.0000   0.0000   0.0000   0.0000   0.0000   0.0000   0.0000
     0.0000   0.0000   0.0000   0.0000   0.0000   0.0000   0.0000   0.0000

          k = 0.3333-2.1745 1.2751 (  4122 PWs)   bands (ev):

   -27.0724  -9.2678  -9.1847  -9.1219  -9.1003  -9.1001  -9.0765  -9.0728
    -9.0640  -9.0636  -9.0568  -9.0530  -9.0462  -9.0424  -9.0407  -9.0284
    -9.0207  -9.0142  -9.0128  -4.6875  -4.4298  -4.0734  -4.0019  -0.4212
    -0.1519   0.1788   3.5934   4.3368   4.5723   4.8409   5.0977   5.2771
     5.4539   5.5540   5.7697   6.0880   6.3035   7.0190   8.9322   9.9332
    10.1792  10.3518  10.6534  11.2343  11.2358  11.8540  11.9843  12.0781
    12.4357  12.8602  13.1375  14.3405  14.3432  14.7630  15.0588  15.1318
    15.7114  16.3239  16.4959  17.0325  17.2021  17.5201  18.2662  18.7078

     occupation numbers 
     1.0000   1.0000   1.0000   1.0000   1.0000   1.0000   1.0000   1.0000
     1.0000   1.0000   1.0000   1.0000   1.0000   1.0000   1.0000   1.0000
     1.0000   1.0000   1.0000   1.0000   1.0000   1.0000   1.0000   1.0000
     1.0000   1.0000   1.0000   1.0000   1.0000   1.0000   1.0000   1.0000
     1.0000   1.0000   1.0000   1.0000   1.0000   1.0000   0.0000   0.0000
     0.0000   0.0000   0.0000   0.0000   0.0000   0.0000   0.0000   0.0000
     0.0000   0.0000   0.0000   0.0000   0.0000   0.0000   0.0000   0.0000
     0.0000   0.0000   0.0000   0.0000   0.0000   0.0000   0.0000   0.0000

          k = 0.3333-2.1745-1.2751 (  4122 PWs)   bands (ev):

   -27.0724  -9.2678  -9.1847  -9.1219  -9.1003  -9.1001  -9.0766  -9.0728
    -9.0640  -9.0635  -9.0568  -9.0530  -9.0462  -9.0424  -9.0407  -9.0284
    -9.0207  -9.0142  -9.0128  -4.6875  -4.4298  -4.0734  -4.0019  -0.4212
    -0.1519   0.1788   3.5934   4.3368   4.5723   4.8409   5.0977   5.2771
     5.4539   5.5540   5.7697   6.0880   6.3035   7.0190   8.9322   9.9332
    10.1792  10.3518  10.6534  11.2343  11.2358  11.8540  11.9843  12.0781
    12.4357  12.8602  13.1375  14.3405  14.3432  14.7630  15.0588  15.1318
    15.7114  16.3239  16.4959  17.0325  17.2021  17.5201  18.2662  18.7078

     occupation numbers 
     1.0000   1.0000   1.0000   1.0000   1.0000   1.0000   1.0000   1.0000
     1.0000   1.0000   1.0000   1.0000   1.0000   1.0000   1.0000   1.0000
     1.0000   1.0000   1.0000   1.0000   1.0000   1.0000   1.0000   1.0000
     1.0000   1.0000   1.0000   1.0000   1.0000   1.0000   1.0000   1.0000
     1.0000   1.0000   1.0000   1.0000   1.0000   1.0000   0.0000   0.0000
     0.0000   0.0000   0.0000   0.0000   0.0000   0.0000   0.0000   0.0000
     0.0000   0.0000   0.0000   0.0000   0.0000   0.0000   0.0000   0.0000
     0.0000   0.0000   0.0000   0.0000   0.0000   0.0000   0.0000   0.0000

     highest occupied, lowest unoccupied level (ev):     7.3082    8.4015

!    total energy              =   -2778.73026317 Ry
     estimated scf accuracy    <       0.00000005 Ry

     The total energy is the sum of the following terms:
     one-electron contribution =    -137.14309875 Ry
     hartree contribution      =     117.12756553 Ry
     xc contribution           =    -185.19969897 Ry
     ewald contribution        =    -388.07971074 Ry
     one-center paw contrib.   =   -2185.43532024 Ry
      -> PAW hartree energy AE =       0.00000000 Ry
      -> PAW hartree energy PS =       0.00000000 Ry
      -> PAW xc energy AE      =       0.00000000 Ry
      -> PAW xc energy PS      =       0.00000000 Ry
      -> total E_H with PAW    =     117.12756553 Ry
      -> total E_XC with PAW   =    -185.19969897 Ry

     convergence has been achieved in  10 iterations

     Writing all to output data dir calculations_bands/myprefix.save/
 
     init_run     :     28.20s CPU     11.18s WALL (       1 calls)
     electrons    :    387.86s CPU    195.89s WALL (       1 calls)

     Called by init_run:
     wfcinit      :     20.69s CPU      7.05s WALL (       1 calls)
     wfcinit:atom :      0.01s CPU      0.00s WALL (       7 calls)
     wfcinit:wfcr :     20.65s CPU      7.03s WALL (       7 calls)
     potinit      :      3.45s CPU      2.13s WALL (       1 calls)
     hinit0       :      3.39s CPU      1.71s WALL (       1 calls)

     Called by electrons:
     c_bands      :    304.30s CPU    158.40s WALL (      10 calls)
     sum_band     :     62.24s CPU     27.53s WALL (      10 calls)
     v_of_rho     :      9.18s CPU      4.27s WALL (      11 calls)
     v_h          :      0.73s CPU      0.36s WALL (      11 calls)
     v_xc         :      8.45s CPU      3.91s WALL (      11 calls)
     newd         :      6.06s CPU      3.04s WALL (      11 calls)
     PAW_pot      :      4.77s CPU      2.19s WALL (      11 calls)
     mix_rho      :      1.14s CPU      0.52s WALL (      10 calls)

     Called by c_bands:
     init_us_2    :      0.52s CPU      0.34s WALL (     147 calls)
     init_us_2:cp :      0.51s CPU      0.34s WALL (     147 calls)
     cegterg      :    272.13s CPU    133.31s WALL (      70 calls)

     Called by sum_band:
     sum_band:wei :      0.02s CPU      0.01s WALL (      10 calls)
     sum_band:loo :     52.90s CPU     22.90s WALL (      10 calls)
     sum_band:buf :      0.08s CPU      0.04s WALL (      70 calls)
     sum_band:ini :      0.18s CPU      0.12s WALL (      70 calls)
     sum_band:cal :      1.00s CPU      0.45s WALL (      70 calls)
     sum_band:bec :      0.20s CPU      0.11s WALL (      70 calls)
     addusdens    :      6.93s CPU      3.30s WALL (      10 calls)
     addusd:skk   :      0.16s CPU      0.10s WALL (      30 calls)
     addusd:dgemm :      0.26s CPU      0.20s WALL (      30 calls)
     addusd:qvan2 :      3.86s CPU      1.94s WALL (      30 calls)

     Called by *egterg:
     cdiaghg      :     31.97s CPU     14.42s WALL (     486 calls)
     cegterg:over :     14.27s CPU      7.78s WALL (     416 calls)
     cegterg:upda :      5.80s CPU      2.66s WALL (     416 calls)
     cegterg:last :      4.75s CPU      2.16s WALL (     164 calls)
     cdiaghg:chol :      1.85s CPU      0.85s WALL (     486 calls)
     cdiaghg:inve :      0.22s CPU      0.09s WALL (     486 calls)
     cdiaghg:para :     11.59s CPU      5.35s WALL (     972 calls)
     h_psi        :    227.11s CPU    108.91s WALL (     493 calls)
     s_psi        :      0.80s CPU      0.37s WALL (     493 calls)
     g_psi        :      0.13s CPU      0.07s WALL (     416 calls)

     Called by h_psi:
     h_psi:calbec :      3.84s CPU      1.95s WALL (     493 calls)
     vloc_psi     :    221.61s CPU    106.17s WALL (     493 calls)
     add_vuspsi   :      1.42s CPU      0.68s WALL (     493 calls)

     General routines
     calbec       :      4.84s CPU      2.40s WALL (     563 calls)
     fft          :      7.12s CPU      3.17s WALL (     141 calls)
     ffts         :      1.62s CPU      0.99s WALL (      21 calls)
     fftw         :    244.00s CPU    113.10s WALL (   29516 calls)
     interpolate  :      1.90s CPU      1.12s WALL (      11 calls)
 
     Parallel routines

     PAW routines
     PAW_pot      :      4.77s CPU      2.19s WALL (      11 calls)
     PAW_symme    :      0.08s CPU      0.03s WALL (      21 calls)
 
     PWSCF        :   6m58.37s CPU   3m28.80s WALL

 
   This run was terminated on:   5:17: 1   5Jun2023            

=------------------------------------------------------------------------------=
   JOB DONE.
=------------------------------------------------------------------------------=
