
     Program PWSCF v.7.1 starts on 14Jul2023 at  2:23:15 

     This program is part of the open-source Quantum ESPRESSO suite
     for quantum simulation of materials; please cite
         "P. Giannozzi et al., J. Phys.:Condens. Matter 21 395502 (2009);
         "P. Giannozzi et al., J. Phys.:Condens. Matter 29 465901 (2017);
         "P. Giannozzi et al., J. Chem. Phys. 152 154105 (2020);
          URL http://www.quantum-espresso.org", 
     in publications or presentations arising from this work. More details at
     http://www.quantum-espresso.org/quote

     Parallel version (MPI & OpenMP), running on      32 processor cores
     Number of MPI processes:                 8
     Threads/MPI process:                     4

     MPI processes distributed on     1 nodes
     247190 MiB available memory on the printing compute node when the environment starts
 
     Reading input from espresso_7507.pwi
Warning: card &CELL ignored
Warning: card / ignored

     Current dimensions of program PWSCF are:
     Max number of different atomic species (ntypx) = 10
     Max number of k-points (npk) =  40000
     Max angular momentum in pseudopotentials (lmaxx) =  4
     Message from routine setup:
     using ibrav=0 with symmetry is DISCOURAGED, use correct ibrav instead
 
     K-points division:     npool     =       2
     R & G space division:  proc/nbgrp/npool/nimage =       4
     Subspace diagonalization in iterative solution of the eigenvalue problem:
     a serial algorithm will be used

 
     Parallelization info
     --------------------
     sticks:   dense  smooth     PW     G-vecs:    dense   smooth      PW
     Min         182      90     27                44535    15766    2715
     Max         184      91     28                44544    15809    2758
     Sum         733     361    109               178161    63141   10909
 
     Using Slab Decomposition
 


     bravais-lattice index     =            0
     lattice parameter (alat)  =       6.6093  a.u.
     unit-cell volume          =    2838.0602 (a.u.)^3
     number of atoms/cell      =           12
     number of atomic types    =            3
     number of electrons       =       104.00
     number of Kohn-Sham states=           64
     kinetic-energy cutoff     =      30.0000  Ry
     charge density cutoff     =     240.0000  Ry
     scf convergence threshold =      1.0E-06
     mixing beta               =       0.7000
     number of iterations used =            8  plain     mixing
     Exchange-correlation= SLA  PW   PBE  PBE
                           (   1   4   3   4   0   0   0)

     celldm(1)=   6.609298  celldm(2)=   0.000000  celldm(3)=   0.000000
     celldm(4)=   0.000000  celldm(5)=   0.000000  celldm(6)=   0.000000

     crystal axes: (cart. coord. in units of alat)
               a(1) = (   1.000000   0.000000   0.000000 )  
               a(2) = (  -0.500000   0.866025   0.000000 )  
               a(3) = (   0.000000   0.000000  11.350761 )  

     reciprocal axes: (cart. coord. in units 2 pi/alat)
               b(1) = (  1.000000  0.577350  0.000000 )  
               b(2) = (  0.000000  1.154701  0.000000 )  
               b(3) = (  0.000000  0.000000  0.088100 )  


     PseudoPot. # 1 for Te read from file:
     /lustre07/scratch/pragov/crystal_structure_design/utils/SSSP/Te_pbe_v1.uspp.F.UPF
     MD5 check sum: c319670d6894cc26e93307826a071b75
     Pseudo is Ultrasoft + core correction, Zval =  6.0
     Generated by new atomic code, or converted to UPF format
     Using radial grid of  891 points,  5 beta functions with: 
                l(1) =   0
                l(2) =   0
                l(3) =   1
                l(4) =   1
                l(5) =   2
     Q(r) pseudized with  6 coefficients,  rinner =    1.800   1.800   1.800
                                                       1.800   1.800

     PseudoPot. # 2 for W  read from file:
     /lustre07/scratch/pragov/crystal_structure_design/utils/SSSP/W_pbe_v1.2.uspp.F.UPF
     MD5 check sum: 9c083fa34c2a2ea0f02f1f893e16e1c8
     Pseudo is Ultrasoft + core correction, Zval = 14.0
     Generated by new atomic code, or converted to UPF format
     Using radial grid of  923 points,  8 beta functions with: 
                l(1) =   0
                l(2) =   0
                l(3) =   0
                l(4) =   1
                l(5) =   1
                l(6) =   2
                l(7) =   2
                l(8) =   3
     Q(r) pseudized with  6 coefficients,  rinner =    1.350   1.350   1.350
                                                       1.350   1.350   1.350
                                                       1.350

     PseudoPot. # 3 for Se read from file:
     /lustre07/scratch/pragov/crystal_structure_design/utils/SSSP/Se_pbe_v1.uspp.F.UPF
     MD5 check sum: 1b3568f3a8ae88f9a2a0ad0698632c85
     Pseudo is Ultrasoft + core correction, Zval =  6.0
     Generated by new atomic code, or converted to UPF format
     Using radial grid of  877 points,  6 beta functions with: 
                l(1) =   0
                l(2) =   0
                l(3) =   1
                l(4) =   1
                l(5) =   2
                l(6) =   2
     Q(r) pseudized with  8 coefficients,  rinner =    1.300   1.300   1.300
                                                       1.300   1.300

     atomic species   valence    mass     pseudopotential
        Te             6.00   127.60000     Te( 1.00)
        W             14.00   183.84000     W ( 1.00)
        Se             6.00    78.97100     Se( 1.00)

      6 Sym. Ops. (no inversion) found


                                    s                        frac. trans.

      isym =  1     identity                                     

 cryst.   s( 1) = (     1          0          0      )
                  (     0          1          0      )
                  (     0          0          1      )

 cart.    s( 1) = (  1.0000000  0.0000000  0.0000000 )
                  (  0.0000000  1.0000000  0.0000000 )
                  (  0.0000000  0.0000000  1.0000000 )


      isym =  2     120 deg rotation - cryst. axis [0,0,1]       

 cryst.   s( 2) = (     0          1          0      )
                  (    -1         -1          0      )
                  (     0          0          1      )

 cart.    s( 2) = ( -0.5000000 -0.8660254  0.0000000 )
                  (  0.8660254 -0.5000000  0.0000000 )
                  (  0.0000000  0.0000000  1.0000000 )


      isym =  3     120 deg rotation - cryst. axis [0,0,-1]      

 cryst.   s( 3) = (    -1         -1          0      )
                  (     1          0          0      )
                  (     0          0          1      )

 cart.    s( 3) = ( -0.5000000  0.8660254  0.0000000 )
                  ( -0.8660254 -0.5000000  0.0000000 )
                  (  0.0000000  0.0000000  1.0000000 )


      isym =  4     inv. 180 deg rotation - cart. axis [1,0,0]   

 cryst.   s( 4) = (    -1          0          0      )
                  (     1          1          0      )
                  (     0          0          1      )

 cart.    s( 4) = ( -1.0000000  0.0000001  0.0000000 )
                  (  0.0000000  1.0000000  0.0000000 )
                  (  0.0000000  0.0000000  1.0000000 )


      isym =  5     inv. 180 deg rotation - cryst. axis [0,1,0]  

 cryst.   s( 5) = (     1          1          0      )
                  (     0         -1          0      )
                  (     0          0          1      )

 cart.    s( 5) = (  0.5000000  0.8660253  0.0000000 )
                  (  0.8660254 -0.5000000  0.0000000 )
                  (  0.0000000  0.0000000  1.0000000 )


      isym =  6     inv. 180 deg rotation - cryst. axis [1,1,0]  

 cryst.   s( 6) = (     0         -1          0      )
                  (    -1          0          0      )
                  (     0          0          1      )

 cart.    s( 6) = (  0.5000000 -0.8660254  0.0000000 )
                  ( -0.8660254 -0.5000000  0.0000000 )
                  (  0.0000000  0.0000000  1.0000000 )


   Cartesian axes

     site n.     atom                  positions (alat units)
         1           Te  tau(   1) = (   0.0000000   0.0000000   3.7252969  )
         2           Te  tau(   2) = (   0.0000000   0.0000000   7.9904020  )
         3           Te  tau(   3) = (  -0.0000005   0.5773506   4.8043116  )
         4           Te  tau(   4) = (  -0.0000005   0.5773506   5.8578551  )
         5           Te  tau(   5) = (   0.0000000   0.0000000   2.6717080  )
         6           Te  tau(   6) = (   0.0000000   0.0000000   6.9366201  )
         7           W   tau(   7) = (   0.0000000   0.0000000   1.0659840  )
         8           W   tau(   8) = (   0.0000000   0.0000000   5.3310096  )
         9           W   tau(   9) = (  -0.0000005   0.5773506   3.1983719  )
        10           W   tau(  10) = (  -0.0000005   0.5773506   7.4636927  )
        11           Se  tau(  11) = (  -0.0000005   0.5773506   0.6021352  )
        12           Se  tau(  12) = (  -0.0000005   0.5773506   1.5303436  )

   Crystallographic axes

     site n.     atom                  positions (cryst. coord.)
         1           Te  tau(   1) = (  0.0000000  0.0000000  0.3281980  )
         2           Te  tau(   2) = (  0.0000000  0.0000000  0.7039530  )
         3           Te  tau(   3) = (  0.3333330  0.6666670  0.4232590  )
         4           Te  tau(   4) = (  0.3333330  0.6666670  0.5160760  )
         5           Te  tau(   5) = (  0.0000000  0.0000000  0.2353770  )
         6           Te  tau(   6) = (  0.0000000  0.0000000  0.6111150  )
         7           W   tau(   7) = (  0.0000000  0.0000000  0.0939130  )
         8           W   tau(   8) = (  0.0000000  0.0000000  0.4696610  )
         9           W   tau(   9) = (  0.3333330  0.6666670  0.2817760  )
        10           W   tau(  10) = (  0.3333330  0.6666670  0.6575500  )
        11           Se  tau(  11) = (  0.3333330  0.6666670  0.0530480  )
        12           Se  tau(  12) = (  0.3333330  0.6666670  0.1348230  )

     number of k points=     7
                       cart. coord. in units 2pi/alat
        k(    1) = (   0.0000000   0.0000000   0.0000000), wk =   0.0740741
        k(    2) = (   0.0000000   0.0000000   0.0293666), wk =   0.1481481
        k(    3) = (   0.0000000   0.3849002   0.0000000), wk =   0.4444444
        k(    4) = (   0.0000000   0.3849002   0.0293666), wk =   0.4444444
        k(    5) = (   0.3333333   0.5773502   0.0000000), wk =   0.1481481
        k(    6) = (   0.3333333   0.5773502   0.0293666), wk =   0.2962963
        k(    7) = (   0.0000000  -0.3849002   0.0293666), wk =   0.4444444

                       cryst. coord.
        k(    1) = (   0.0000000   0.0000000   0.0000000), wk =   0.0740741
        k(    2) = (   0.0000000   0.0000000   0.3333333), wk =   0.1481481
        k(    3) = (   0.0000000   0.3333333   0.0000000), wk =   0.4444444
        k(    4) = (   0.0000000   0.3333333   0.3333333), wk =   0.4444444
        k(    5) = (   0.3333333   0.3333333   0.0000000), wk =   0.1481481
        k(    6) = (   0.3333333   0.3333333   0.3333333), wk =   0.2962963
        k(    7) = (   0.0000000  -0.3333333   0.3333333), wk =   0.4444444

     Dense  grid:   178161 G-vectors     FFT dimensions: (  36,  36, 375)

     Smooth grid:    63141 G-vectors     FFT dimensions: (  24,  24, 270)

     Dynamical RAM for                 wfc:       1.92 MB

     Dynamical RAM for     wfc (w. buffer):       9.61 MB

     Dynamical RAM for           str. fact:       2.04 MB

     Dynamical RAM for           local pot:       0.00 MB

     Dynamical RAM for          nlocal pot:       6.55 MB

     Dynamical RAM for                qrad:       8.96 MB

     Dynamical RAM for          rho,v,vnew:       4.83 MB

     Dynamical RAM for               rhoin:       1.61 MB

     Dynamical RAM for            rho*nmix:      10.88 MB

     Dynamical RAM for           G-vectors:       2.67 MB

     Dynamical RAM for          h,s,v(r/c):       0.75 MB

     Dynamical RAM for          <psi|beta>:       0.21 MB

     Dynamical RAM for                 psi:       3.84 MB

     Dynamical RAM for                hpsi:       3.84 MB

     Dynamical RAM for                spsi:       3.84 MB

     Dynamical RAM for      wfcinit/wfcrot:       5.21 MB

     Dynamical RAM for           addusdens:     130.84 MB

     Estimated static dynamical RAM per process >      43.62 MB

     Estimated max dynamical RAM per process >     185.34 MB

     Estimated total dynamical RAM >       1.41 GB

     Initial potential from superposition of free atoms

     starting charge     103.5972, renormalised to     104.0000

     negative rho (up, down):  2.510E-01 0.000E+00
     Starting wfcs are   84 randomized atomic wfcs

     total cpu time spent up to now is        1.2 secs

     Self-consistent Calculation

     iteration #  1     ecut=    30.00 Ry     beta= 0.70
     Davidson diagonalization with overlap

---- Real-time Memory Report at c_bands before calling an iterative solver
           363 MiB given to the printing process from OS
             0 MiB allocation reported by mallinfo(arena+hblkhd)
        246462 MiB available memory on the node where the printing process lives
------------------
     ethr =  1.00E-02,  avg # of iterations =  2.0

     Threshold (ethr) on eigenvalues was too large:
     Diagonalizing with lowered threshold

     Davidson diagonalization with overlap

---- Real-time Memory Report at c_bands before calling an iterative solver
           381 MiB given to the printing process from OS
             0 MiB allocation reported by mallinfo(arena+hblkhd)
        246444 MiB available memory on the node where the printing process lives
------------------
     ethr =  6.90E-04,  avg # of iterations =  1.1

     negative rho (up, down):  2.499E-01 0.000E+00

     total cpu time spent up to now is        2.9 secs

     total energy              =    -882.38262776 Ry
     estimated scf accuracy    <       0.75620575 Ry

     iteration #  2     ecut=    30.00 Ry     beta= 0.70
     Davidson diagonalization with overlap

---- Real-time Memory Report at c_bands before calling an iterative solver
           403 MiB given to the printing process from OS
             0 MiB allocation reported by mallinfo(arena+hblkhd)
        246232 MiB available memory on the node where the printing process lives
------------------
     ethr =  7.27E-04,  avg # of iterations = 15.0

     negative rho (up, down):  2.497E-01 0.000E+00

     total cpu time spent up to now is        4.4 secs

     total energy              =    -878.64317706 Ry
     estimated scf accuracy    <     157.96933485 Ry

     iteration #  3     ecut=    30.00 Ry     beta= 0.70
     Davidson diagonalization with overlap

---- Real-time Memory Report at c_bands before calling an iterative solver
           422 MiB given to the printing process from OS
             0 MiB allocation reported by mallinfo(arena+hblkhd)
        246064 MiB available memory on the node where the printing process lives
------------------
     ethr =  7.27E-04,  avg # of iterations = 13.9

     negative rho (up, down):  2.493E-01 0.000E+00

     total cpu time spent up to now is        6.1 secs

     total energy              =    -875.37746070 Ry
     estimated scf accuracy    <     910.93739471 Ry

     iteration #  4     ecut=    30.00 Ry     beta= 0.70
     Davidson diagonalization with overlap

---- Real-time Memory Report at c_bands before calling an iterative solver
           423 MiB given to the printing process from OS
             0 MiB allocation reported by mallinfo(arena+hblkhd)
        246026 MiB available memory on the node where the printing process lives
------------------
     ethr =  7.27E-04,  avg # of iterations = 10.0

     negative rho (up, down):  2.489E-01 0.000E+00

     total cpu time spent up to now is        7.8 secs

     total energy              =    -877.37575592 Ry
     estimated scf accuracy    <     504.26476390 Ry

     iteration #  5     ecut=    30.00 Ry     beta= 0.70
     Davidson diagonalization with overlap

---- Real-time Memory Report at c_bands before calling an iterative solver
           424 MiB given to the printing process from OS
             0 MiB allocation reported by mallinfo(arena+hblkhd)
        244525 MiB available memory on the node where the printing process lives
------------------
     ethr =  7.27E-04,  avg # of iterations = 13.7

     negative rho (up, down):  2.487E-01 0.000E+00

     total cpu time spent up to now is        9.3 secs

     total energy              =    -881.05590071 Ry
     estimated scf accuracy    <     105.08202661 Ry

     iteration #  6     ecut=    30.00 Ry     beta= 0.70
     Davidson diagonalization with overlap

---- Real-time Memory Report at c_bands before calling an iterative solver
           424 MiB given to the printing process from OS
             0 MiB allocation reported by mallinfo(arena+hblkhd)
        244244 MiB available memory on the node where the printing process lives
------------------
     ethr =  7.27E-04,  avg # of iterations =  9.6

     negative rho (up, down):  2.483E-01 0.000E+00

     total cpu time spent up to now is       10.5 secs

     total energy              =    -882.78544156 Ry
     estimated scf accuracy    <       0.35316017 Ry

     iteration #  7     ecut=    30.00 Ry     beta= 0.70
     Davidson diagonalization with overlap

---- Real-time Memory Report at c_bands before calling an iterative solver
           426 MiB given to the printing process from OS
             0 MiB allocation reported by mallinfo(arena+hblkhd)
        244310 MiB available memory on the node where the printing process lives
------------------
     ethr =  3.40E-04,  avg # of iterations =  6.0

     negative rho (up, down):  2.480E-01 0.000E+00

     total cpu time spent up to now is       11.5 secs

     total energy              =    -882.81405904 Ry
     estimated scf accuracy    <       0.12280245 Ry

     iteration #  8     ecut=    30.00 Ry     beta= 0.70
     Davidson diagonalization with overlap

---- Real-time Memory Report at c_bands before calling an iterative solver
           426 MiB given to the printing process from OS
             0 MiB allocation reported by mallinfo(arena+hblkhd)
        244193 MiB available memory on the node where the printing process lives
------------------
     ethr =  1.18E-04,  avg # of iterations =  5.0

     negative rho (up, down):  2.479E-01 0.000E+00

     total cpu time spent up to now is       12.6 secs

     total energy              =    -882.81345582 Ry
     estimated scf accuracy    <       0.14192859 Ry

     iteration #  9     ecut=    30.00 Ry     beta= 0.70
     Davidson diagonalization with overlap

---- Real-time Memory Report at c_bands before calling an iterative solver
           427 MiB given to the printing process from OS
             0 MiB allocation reported by mallinfo(arena+hblkhd)
        244249 MiB available memory on the node where the printing process lives
------------------
     ethr =  1.18E-04,  avg # of iterations =  2.3

     negative rho (up, down):  2.478E-01 0.000E+00

     total cpu time spent up to now is       13.5 secs

     total energy              =    -882.82660056 Ry
     estimated scf accuracy    <       0.01833557 Ry

     iteration # 10     ecut=    30.00 Ry     beta= 0.70
     Davidson diagonalization with overlap

---- Real-time Memory Report at c_bands before calling an iterative solver
           427 MiB given to the printing process from OS
             0 MiB allocation reported by mallinfo(arena+hblkhd)
        244151 MiB available memory on the node where the printing process lives
------------------
     ethr =  1.76E-05,  avg # of iterations =  5.7

     negative rho (up, down):  2.478E-01 0.000E+00

     total cpu time spent up to now is       14.6 secs

     total energy              =    -882.82854577 Ry
     estimated scf accuracy    <       0.00693746 Ry

     iteration # 11     ecut=    30.00 Ry     beta= 0.70
     Davidson diagonalization with overlap

---- Real-time Memory Report at c_bands before calling an iterative solver
           427 MiB given to the printing process from OS
             0 MiB allocation reported by mallinfo(arena+hblkhd)
        244151 MiB available memory on the node where the printing process lives
------------------
     ethr =  6.67E-06,  avg # of iterations =  6.3

     negative rho (up, down):  2.479E-01 0.000E+00

     total cpu time spent up to now is       15.7 secs

     total energy              =    -882.82868626 Ry
     estimated scf accuracy    <       0.00489422 Ry

     iteration # 12     ecut=    30.00 Ry     beta= 0.70
     Davidson diagonalization with overlap

---- Real-time Memory Report at c_bands before calling an iterative solver
           427 MiB given to the printing process from OS
             0 MiB allocation reported by mallinfo(arena+hblkhd)
        244093 MiB available memory on the node where the printing process lives
------------------
     ethr =  4.71E-06,  avg # of iterations =  2.4

     negative rho (up, down):  2.480E-01 0.000E+00

     total cpu time spent up to now is       16.6 secs

     total energy              =    -882.82860820 Ry
     estimated scf accuracy    <       0.00261727 Ry

     iteration # 13     ecut=    30.00 Ry     beta= 0.70
     Davidson diagonalization with overlap

---- Real-time Memory Report at c_bands before calling an iterative solver
           427 MiB given to the printing process from OS
             0 MiB allocation reported by mallinfo(arena+hblkhd)
        244058 MiB available memory on the node where the printing process lives
------------------
     ethr =  2.52E-06,  avg # of iterations = 12.6

     negative rho (up, down):  2.480E-01 0.000E+00

     total cpu time spent up to now is       17.8 secs

     total energy              =    -882.81517064 Ry
     estimated scf accuracy    <       1.15295045 Ry

     iteration # 14     ecut=    30.00 Ry     beta= 0.70
     Davidson diagonalization with overlap

---- Real-time Memory Report at c_bands before calling an iterative solver
           427 MiB given to the printing process from OS
             0 MiB allocation reported by mallinfo(arena+hblkhd)
        244076 MiB available memory on the node where the printing process lives
------------------
     c_bands:  2 eigenvalues not converged
     c_bands:  2 eigenvalues not converged
     ethr =  2.52E-06,  avg # of iterations = 12.6

     negative rho (up, down):  2.480E-01 0.000E+00

     total cpu time spent up to now is       19.0 secs

     total energy              =    -882.82776841 Ry
     estimated scf accuracy    <       0.00505064 Ry

     iteration # 15     ecut=    30.00 Ry     beta= 0.70
     Davidson diagonalization with overlap

---- Real-time Memory Report at c_bands before calling an iterative solver
           427 MiB given to the printing process from OS
             0 MiB allocation reported by mallinfo(arena+hblkhd)
        244075 MiB available memory on the node where the printing process lives
------------------
     c_bands:  1 eigenvalues not converged
     c_bands:  1 eigenvalues not converged
     ethr =  2.52E-06,  avg # of iterations = 11.4

     negative rho (up, down):  2.480E-01 0.000E+00

     total cpu time spent up to now is       20.4 secs

     total energy              =    -882.80589382 Ry
     estimated scf accuracy    <       1.23938872 Ry

     iteration # 16     ecut=    30.00 Ry     beta= 0.70
     Davidson diagonalization with overlap

---- Real-time Memory Report at c_bands before calling an iterative solver
           427 MiB given to the printing process from OS
             0 MiB allocation reported by mallinfo(arena+hblkhd)
        244077 MiB available memory on the node where the printing process lives
------------------
     ethr =  2.52E-06,  avg # of iterations = 10.3

     negative rho (up, down):  2.480E-01 0.000E+00

     total cpu time spent up to now is       21.8 secs

     total energy              =    -882.82902782 Ry
     estimated scf accuracy    <       0.00314509 Ry

     iteration # 17     ecut=    30.00 Ry     beta= 0.70
     Davidson diagonalization with overlap

---- Real-time Memory Report at c_bands before calling an iterative solver
           427 MiB given to the printing process from OS
             0 MiB allocation reported by mallinfo(arena+hblkhd)
        244304 MiB available memory on the node where the printing process lives
------------------
     ethr =  2.52E-06,  avg # of iterations =  4.0

     negative rho (up, down):  2.480E-01 0.000E+00

     total cpu time spent up to now is       22.8 secs

     total energy              =    -882.82910149 Ry
     estimated scf accuracy    <       0.00145311 Ry

     iteration # 18     ecut=    30.00 Ry     beta= 0.70
     Davidson diagonalization with overlap

---- Real-time Memory Report at c_bands before calling an iterative solver
           427 MiB given to the printing process from OS
             0 MiB allocation reported by mallinfo(arena+hblkhd)
        244305 MiB available memory on the node where the printing process lives
------------------
     ethr =  1.40E-06,  avg # of iterations =  1.7

     negative rho (up, down):  2.480E-01 0.000E+00

     total cpu time spent up to now is       23.6 secs

     total energy              =    -882.82913652 Ry
     estimated scf accuracy    <       0.00120125 Ry

     iteration # 19     ecut=    30.00 Ry     beta= 0.70
     Davidson diagonalization with overlap

---- Real-time Memory Report at c_bands before calling an iterative solver
           427 MiB given to the printing process from OS
             0 MiB allocation reported by mallinfo(arena+hblkhd)
        244305 MiB available memory on the node where the printing process lives
------------------
     ethr =  1.16E-06,  avg # of iterations =  1.0

     negative rho (up, down):  2.481E-01 0.000E+00

     total cpu time spent up to now is       24.4 secs

     total energy              =    -882.82913960 Ry
     estimated scf accuracy    <       0.00098951 Ry

     iteration # 20     ecut=    30.00 Ry     beta= 0.70
     Davidson diagonalization with overlap

---- Real-time Memory Report at c_bands before calling an iterative solver
           427 MiB given to the printing process from OS
             0 MiB allocation reported by mallinfo(arena+hblkhd)
        244306 MiB available memory on the node where the printing process lives
------------------
     ethr =  9.51E-07,  avg # of iterations =  1.0

     negative rho (up, down):  2.481E-01 0.000E+00

     total cpu time spent up to now is       25.2 secs

     total energy              =    -882.82912695 Ry
     estimated scf accuracy    <       0.00085720 Ry

     iteration # 21     ecut=    30.00 Ry     beta= 0.70
     Davidson diagonalization with overlap

---- Real-time Memory Report at c_bands before calling an iterative solver
           427 MiB given to the printing process from OS
             0 MiB allocation reported by mallinfo(arena+hblkhd)
        244306 MiB available memory on the node where the printing process lives
------------------
     ethr =  8.24E-07,  avg # of iterations =  1.0

     negative rho (up, down):  2.481E-01 0.000E+00

     total cpu time spent up to now is       26.0 secs

     total energy              =    -882.82911842 Ry
     estimated scf accuracy    <       0.00077284 Ry

     iteration # 22     ecut=    30.00 Ry     beta= 0.70
     Davidson diagonalization with overlap

---- Real-time Memory Report at c_bands before calling an iterative solver
           427 MiB given to the printing process from OS
             0 MiB allocation reported by mallinfo(arena+hblkhd)
        244307 MiB available memory on the node where the printing process lives
------------------
     ethr =  7.43E-07,  avg # of iterations =  1.0

     negative rho (up, down):  2.481E-01 0.000E+00

     total cpu time spent up to now is       26.8 secs

     total energy              =    -882.82908027 Ry
     estimated scf accuracy    <       0.00071575 Ry

     iteration # 23     ecut=    30.00 Ry     beta= 0.70
     Davidson diagonalization with overlap

---- Real-time Memory Report at c_bands before calling an iterative solver
           427 MiB given to the printing process from OS
             0 MiB allocation reported by mallinfo(arena+hblkhd)
        244309 MiB available memory on the node where the printing process lives
------------------
     ethr =  6.88E-07,  avg # of iterations =  4.0

     negative rho (up, down):  2.481E-01 0.000E+00

     total cpu time spent up to now is       27.7 secs

     total energy              =    -882.82908338 Ry
     estimated scf accuracy    <       0.00048334 Ry

     iteration # 24     ecut=    30.00 Ry     beta= 0.70
     Davidson diagonalization with overlap

---- Real-time Memory Report at c_bands before calling an iterative solver
           427 MiB given to the printing process from OS
             0 MiB allocation reported by mallinfo(arena+hblkhd)
        244308 MiB available memory on the node where the printing process lives
------------------
     ethr =  4.65E-07,  avg # of iterations =  1.6

     negative rho (up, down):  2.480E-01 0.000E+00

     total cpu time spent up to now is       28.5 secs

     total energy              =    -882.82882695 Ry
     estimated scf accuracy    <       0.00046784 Ry

     iteration # 25     ecut=    30.00 Ry     beta= 0.70
     Davidson diagonalization with overlap

---- Real-time Memory Report at c_bands before calling an iterative solver
           427 MiB given to the printing process from OS
             0 MiB allocation reported by mallinfo(arena+hblkhd)
        244306 MiB available memory on the node where the printing process lives
------------------
     c_bands:  1 eigenvalues not converged
     c_bands:  2 eigenvalues not converged
     ethr =  4.50E-07,  avg # of iterations =  9.3

     negative rho (up, down):  2.481E-01 0.000E+00

     total cpu time spent up to now is       29.7 secs

     total energy              =    -882.81512126 Ry
     estimated scf accuracy    <       1.00166790 Ry

     iteration # 26     ecut=    30.00 Ry     beta= 0.70
     Davidson diagonalization with overlap

---- Real-time Memory Report at c_bands before calling an iterative solver
           427 MiB given to the printing process from OS
             0 MiB allocation reported by mallinfo(arena+hblkhd)
        244307 MiB available memory on the node where the printing process lives
------------------
     c_bands:  2 eigenvalues not converged
     c_bands:  2 eigenvalues not converged
     ethr =  4.50E-07,  avg # of iterations =  9.3

     negative rho (up, down):  2.481E-01 0.000E+00

     total cpu time spent up to now is       31.0 secs

     total energy              =    -882.82904812 Ry
     estimated scf accuracy    <       0.00025079 Ry

     iteration # 27     ecut=    30.00 Ry     beta= 0.70
     Davidson diagonalization with overlap

---- Real-time Memory Report at c_bands before calling an iterative solver
           427 MiB given to the printing process from OS
             0 MiB allocation reported by mallinfo(arena+hblkhd)
        244308 MiB available memory on the node where the printing process lives
------------------
     ethr =  2.41E-07,  avg # of iterations =  4.9

     negative rho (up, down):  2.481E-01 0.000E+00

     total cpu time spent up to now is       31.9 secs

     total energy              =    -882.82904925 Ry
     estimated scf accuracy    <       0.00028400 Ry

     iteration # 28     ecut=    30.00 Ry     beta= 0.70
     Davidson diagonalization with overlap

---- Real-time Memory Report at c_bands before calling an iterative solver
           427 MiB given to the printing process from OS
             0 MiB allocation reported by mallinfo(arena+hblkhd)
        244307 MiB available memory on the node where the printing process lives
------------------
     ethr =  2.41E-07,  avg # of iterations =  1.0

     negative rho (up, down):  2.481E-01 0.000E+00

     total cpu time spent up to now is       32.7 secs

     total energy              =    -882.82904820 Ry
     estimated scf accuracy    <       0.00026507 Ry

     iteration # 29     ecut=    30.00 Ry     beta= 0.70
     Davidson diagonalization with overlap

---- Real-time Memory Report at c_bands before calling an iterative solver
           427 MiB given to the printing process from OS
             0 MiB allocation reported by mallinfo(arena+hblkhd)
        244308 MiB available memory on the node where the printing process lives
------------------
     ethr =  2.41E-07,  avg # of iterations =  1.0

     negative rho (up, down):  2.481E-01 0.000E+00

     total cpu time spent up to now is       33.5 secs

     total energy              =    -882.82904551 Ry
     estimated scf accuracy    <       0.00026246 Ry

     iteration # 30     ecut=    30.00 Ry     beta= 0.70
     Davidson diagonalization with overlap

---- Real-time Memory Report at c_bands before calling an iterative solver
           427 MiB given to the printing process from OS
             0 MiB allocation reported by mallinfo(arena+hblkhd)
        244308 MiB available memory on the node where the printing process lives
------------------
     ethr =  2.41E-07,  avg # of iterations =  1.0

     negative rho (up, down):  2.481E-01 0.000E+00

     total cpu time spent up to now is       34.3 secs

     total energy              =    -882.82904520 Ry
     estimated scf accuracy    <       0.00026239 Ry

     iteration # 31     ecut=    30.00 Ry     beta= 0.70
     Davidson diagonalization with overlap

---- Real-time Memory Report at c_bands before calling an iterative solver
           427 MiB given to the printing process from OS
             0 MiB allocation reported by mallinfo(arena+hblkhd)
        244308 MiB available memory on the node where the printing process lives
------------------
     ethr =  2.41E-07,  avg # of iterations =  1.0

     negative rho (up, down):  2.481E-01 0.000E+00

     total cpu time spent up to now is       35.1 secs

     total energy              =    -882.82904221 Ry
     estimated scf accuracy    <       0.00025569 Ry

     iteration # 32     ecut=    30.00 Ry     beta= 0.70
     Davidson diagonalization with overlap

---- Real-time Memory Report at c_bands before calling an iterative solver
           427 MiB given to the printing process from OS
             0 MiB allocation reported by mallinfo(arena+hblkhd)
        244306 MiB available memory on the node where the printing process lives
------------------
     ethr =  2.41E-07,  avg # of iterations =  1.0

     negative rho (up, down):  2.481E-01 0.000E+00

     total cpu time spent up to now is       35.9 secs

     total energy              =    -882.82904132 Ry
     estimated scf accuracy    <       0.00023685 Ry

     iteration # 33     ecut=    30.00 Ry     beta= 0.70
     Davidson diagonalization with overlap

---- Real-time Memory Report at c_bands before calling an iterative solver
           427 MiB given to the printing process from OS
             0 MiB allocation reported by mallinfo(arena+hblkhd)
        244308 MiB available memory on the node where the printing process lives
------------------
     ethr =  2.28E-07,  avg # of iterations =  1.0

     negative rho (up, down):  2.481E-01 0.000E+00

     total cpu time spent up to now is       36.7 secs

     total energy              =    -882.82904038 Ry
     estimated scf accuracy    <       0.00023708 Ry

     iteration # 34     ecut=    30.00 Ry     beta= 0.70
     Davidson diagonalization with overlap

---- Real-time Memory Report at c_bands before calling an iterative solver
           427 MiB given to the printing process from OS
             0 MiB allocation reported by mallinfo(arena+hblkhd)
        244308 MiB available memory on the node where the printing process lives
------------------
     ethr =  2.28E-07,  avg # of iterations =  1.0

     negative rho (up, down):  2.481E-01 0.000E+00

     total cpu time spent up to now is       37.5 secs

     total energy              =    -882.82891926 Ry
     estimated scf accuracy    <       0.00023368 Ry

     iteration # 35     ecut=    30.00 Ry     beta= 0.70
     Davidson diagonalization with overlap

---- Real-time Memory Report at c_bands before calling an iterative solver
           427 MiB given to the printing process from OS
             0 MiB allocation reported by mallinfo(arena+hblkhd)
        244308 MiB available memory on the node where the printing process lives
------------------
     ethr =  2.25E-07,  avg # of iterations =  6.1

     negative rho (up, down):  2.481E-01 0.000E+00

     total cpu time spent up to now is       38.6 secs

     total energy              =    -882.82897192 Ry
     estimated scf accuracy    <       0.00004879 Ry

     iteration # 36     ecut=    30.00 Ry     beta= 0.70
     Davidson diagonalization with overlap

---- Real-time Memory Report at c_bands before calling an iterative solver
           427 MiB given to the printing process from OS
             0 MiB allocation reported by mallinfo(arena+hblkhd)
        244308 MiB available memory on the node where the printing process lives
------------------
     ethr =  4.69E-08,  avg # of iterations =  2.0

     negative rho (up, down):  2.481E-01 0.000E+00

     total cpu time spent up to now is       39.4 secs

     total energy              =    -882.82896550 Ry
     estimated scf accuracy    <       0.00002883 Ry

     iteration # 37     ecut=    30.00 Ry     beta= 0.70
     Davidson diagonalization with overlap

---- Real-time Memory Report at c_bands before calling an iterative solver
           427 MiB given to the printing process from OS
             0 MiB allocation reported by mallinfo(arena+hblkhd)
        244308 MiB available memory on the node where the printing process lives
------------------
     ethr =  2.77E-08,  avg # of iterations =  2.3

     negative rho (up, down):  2.481E-01 0.000E+00

     total cpu time spent up to now is       40.3 secs

     total energy              =    -882.82896908 Ry
     estimated scf accuracy    <       0.00000597 Ry

     iteration # 38     ecut=    30.00 Ry     beta= 0.70
     Davidson diagonalization with overlap

---- Real-time Memory Report at c_bands before calling an iterative solver
           427 MiB given to the printing process from OS
             0 MiB allocation reported by mallinfo(arena+hblkhd)
        244308 MiB available memory on the node where the printing process lives
------------------
     ethr =  5.74E-09,  avg # of iterations =  3.3

     negative rho (up, down):  2.481E-01 0.000E+00

     total cpu time spent up to now is       41.3 secs

     total energy              =    -882.82896918 Ry
     estimated scf accuracy    <       0.00000993 Ry

     iteration # 39     ecut=    30.00 Ry     beta= 0.70
     Davidson diagonalization with overlap

---- Real-time Memory Report at c_bands before calling an iterative solver
           427 MiB given to the printing process from OS
             0 MiB allocation reported by mallinfo(arena+hblkhd)
        244308 MiB available memory on the node where the printing process lives
------------------
     ethr =  5.74E-09,  avg # of iterations =  2.0

     negative rho (up, down):  2.481E-01 0.000E+00

     total cpu time spent up to now is       42.2 secs

     End of self-consistent calculation

          k = 0.0000 0.0000 0.0000 (  7823 PWs)   bands (ev):

   -69.0811 -68.0030 -68.0017 -67.9987 -33.2731 -33.2030 -33.2030 -32.3297
   -32.3273 -32.3228 -32.1263 -32.1263 -32.1259 -32.1259 -32.1240 -32.1240
    -9.1942  -7.9350  -7.4661  -7.4159  -7.3662  -6.4178  -6.3276  -6.2454
    -0.5535  -0.2679   0.0022   0.2871   2.4929   2.4929   2.8646   3.2842
     3.5128   3.5128   3.6798   4.2009   4.2009   4.2034   4.2034   4.2057
     4.2057   4.2326   4.9211   5.0579   5.0580   5.0644   5.0644   5.0717
     5.0718   5.2366   5.3937   5.5686   7.5857   7.5858   7.8629   7.8629
     8.9524   8.9576   8.9576   8.9745   8.9745   8.9939   8.9941   9.1723

     occupation numbers 
     1.0000   1.0000   1.0000   1.0000   1.0000   1.0000   1.0000   1.0000
     1.0000   1.0000   1.0000   1.0000   1.0000   1.0000   1.0000   1.0000
     1.0000   1.0000   1.0000   1.0000   1.0000   1.0000   1.0000   1.0000
     1.0000   1.0000   1.0000   1.0000   1.0000   1.0000   1.0000   1.0000
     1.0000   1.0000   1.0000   1.0000   1.0000   1.0000   1.0000   1.0000
     1.0000   1.0000   1.0000   1.0000   1.0000   1.0000   1.0000   1.0000
     1.0000   1.0000   1.0000   1.0000   0.0000   0.0000   0.0000   0.0000
     0.0000   0.0000   0.0000   0.0000   0.0000   0.0000   0.0000   0.0000

          k = 0.0000 0.0000 0.0294 (  7811 PWs)   bands (ev):

   -69.0811 -68.0030 -68.0017 -67.9987 -33.2731 -33.2030 -33.2030 -32.3297
   -32.3273 -32.3227 -32.1263 -32.1263 -32.1259 -32.1259 -32.1240 -32.1240
    -9.1942  -7.9350  -7.4661  -7.4159  -7.3662  -6.4178  -6.3276  -6.2454
    -0.5535  -0.2679   0.0022   0.2871   2.4929   2.4929   2.8646   3.2842
     3.5128   3.5128   3.6798   4.2009   4.2009   4.2034   4.2034   4.2057
     4.2057   4.2326   4.9211   5.0580   5.0580   5.0644   5.0644   5.0717
     5.0718   5.2366   5.3937   5.5686   7.5857   7.5858   7.8629   7.8629
     8.9525   8.9576   8.9576   8.9745   8.9745   8.9939   8.9940   9.1725

     occupation numbers 
     1.0000   1.0000   1.0000   1.0000   1.0000   1.0000   1.0000   1.0000
     1.0000   1.0000   1.0000   1.0000   1.0000   1.0000   1.0000   1.0000
     1.0000   1.0000   1.0000   1.0000   1.0000   1.0000   1.0000   1.0000
     1.0000   1.0000   1.0000   1.0000   1.0000   1.0000   1.0000   1.0000
     1.0000   1.0000   1.0000   1.0000   1.0000   1.0000   1.0000   1.0000
     1.0000   1.0000   1.0000   1.0000   1.0000   1.0000   1.0000   1.0000
     1.0000   1.0000   1.0000   1.0000   0.0000   0.0000   0.0000   0.0000
     0.0000   0.0000   0.0000   0.0000   0.0000   0.0000   0.0000   0.0000

          k = 0.0000 0.3849 0.0000 (  7900 PWs)   bands (ev):

   -69.0782 -68.0000 -67.9987 -67.9958 -33.2923 -33.2565 -33.2244 -32.3129
   -32.3105 -32.3059 -32.2144 -32.2141 -32.2121 -32.1476 -32.1473 -32.1454
    -8.1780  -7.4899  -5.9852  -5.9415  -5.8972  -5.4057  -5.3440  -5.2905
    -0.0644   0.7962   0.8412   0.8884   0.9498   1.1832   1.4528   1.5451
     1.7453   1.7521   1.8847   1.9794   2.3341   3.3914   3.5201   3.7222
     3.7238   3.7394   3.7551   3.9180   4.1190   4.1825   4.5950   4.6627
     4.7089   5.1182   5.1484   5.1762   7.0329   7.1594   7.2715   7.4210
     7.5810   7.8471   7.8862   7.9268   8.0136   8.4200   8.7051   9.0478

     occupation numbers 
     1.0000   1.0000   1.0000   1.0000   1.0000   1.0000   1.0000   1.0000
     1.0000   1.0000   1.0000   1.0000   1.0000   1.0000   1.0000   1.0000
     1.0000   1.0000   1.0000   1.0000   1.0000   1.0000   1.0000   1.0000
     1.0000   1.0000   1.0000   1.0000   1.0000   1.0000   1.0000   1.0000
     1.0000   1.0000   1.0000   1.0000   1.0000   1.0000   1.0000   1.0000
     1.0000   1.0000   1.0000   1.0000   1.0000   1.0000   1.0000   1.0000
     1.0000   1.0000   1.0000   1.0000   0.0000   0.0000   0.0000   0.0000
     0.0000   0.0000   0.0000   0.0000   0.0000   0.0000   0.0000   0.0000

          k = 0.0000 0.3849 0.0294 (  7906 PWs)   bands (ev):

   -69.0782 -68.0000 -67.9987 -67.9958 -33.2923 -33.2565 -33.2245 -32.3129
   -32.3105 -32.3059 -32.2144 -32.2140 -32.2121 -32.1477 -32.1473 -32.1454
    -8.1780  -7.4899  -5.9852  -5.9415  -5.8972  -5.4057  -5.3440  -5.2905
    -0.0644   0.7962   0.8412   0.8884   0.9498   1.1832   1.4528   1.5451
     1.7453   1.7521   1.8847   1.9794   2.3341   3.3914   3.5201   3.7222
     3.7238   3.7394   3.7550   3.9180   4.1190   4.1825   4.5950   4.6627
     4.7089   5.1181   5.1484   5.1762   7.0329   7.1594   7.2715   7.4210
     7.5810   7.8471   7.8862   7.9268   8.0136   8.4200   8.7052   9.0478

     occupation numbers 
     1.0000   1.0000   1.0000   1.0000   1.0000   1.0000   1.0000   1.0000
     1.0000   1.0000   1.0000   1.0000   1.0000   1.0000   1.0000   1.0000
     1.0000   1.0000   1.0000   1.0000   1.0000   1.0000   1.0000   1.0000
     1.0000   1.0000   1.0000   1.0000   1.0000   1.0000   1.0000   1.0000
     1.0000   1.0000   1.0000   1.0000   1.0000   1.0000   1.0000   1.0000
     1.0000   1.0000   1.0000   1.0000   1.0000   1.0000   1.0000   1.0000
     1.0000   1.0000   1.0000   1.0000   0.0000   0.0000   0.0000   0.0000
     0.0000   0.0000   0.0000   0.0000   0.0000   0.0000   0.0000   0.0000

          k = 0.3333 0.5774 0.0000 (  7836 PWs)   bands (ev):

   -69.0766 -67.9984 -67.9972 -67.9942 -33.2934 -33.2782 -33.2482 -32.3045
   -32.3021 -32.2975 -32.2142 -32.2139 -32.2119 -32.2021 -32.2018 -32.1999
    -7.5523  -7.2099  -4.7816  -4.7792  -4.7771  -4.6128  -4.6102  -4.6084
     0.1699   0.2202   0.6238   0.6271   0.6314   0.8747   0.9167   0.9606
     1.0844   1.4190   1.5354   1.5976   1.6521   2.1177   2.2525   2.2710
     2.3424   2.5815   2.6612   2.6675   3.1491   3.7402   3.7499   3.7703
     5.0689   5.8457   5.9113   5.9814   6.0820   7.1726   7.1727   7.1751
     7.3837   7.6431   7.9229   8.1792   8.1944   8.6758   8.6871   8.7732

     occupation numbers 
     1.0000   1.0000   1.0000   1.0000   1.0000   1.0000   1.0000   1.0000
     1.0000   1.0000   1.0000   1.0000   1.0000   1.0000   1.0000   1.0000
     1.0000   1.0000   1.0000   1.0000   1.0000   1.0000   1.0000   1.0000
     1.0000   1.0000   1.0000   1.0000   1.0000   1.0000   1.0000   1.0000
     1.0000   1.0000   1.0000   1.0000   1.0000   1.0000   1.0000   1.0000
     1.0000   1.0000   1.0000   1.0000   1.0000   1.0000   1.0000   1.0000
     1.0000   1.0000   1.0000   1.0000   0.0000   0.0000   0.0000   0.0000
     0.0000   0.0000   0.0000   0.0000   0.0000   0.0000   0.0000   0.0000

          k = 0.3333 0.5774 0.0294 (  7851 PWs)   bands (ev):

   -69.0766 -67.9985 -67.9972 -67.9942 -33.2934 -33.2783 -33.2482 -32.3045
   -32.3021 -32.2975 -32.2142 -32.2139 -32.2119 -32.2022 -32.2018 -32.1999
    -7.5523  -7.2099  -4.7816  -4.7792  -4.7771  -4.6128  -4.6102  -4.6084
     0.1699   0.2202   0.6238   0.6271   0.6314   0.8747   0.9167   0.9606
     1.0844   1.4190   1.5354   1.5976   1.6521   2.1177   2.2525   2.2710
     2.3424   2.5815   2.6612   2.6676   3.1491   3.7402   3.7499   3.7703
     5.0689   5.8457   5.9113   5.9814   6.0820   7.1726   7.1727   7.1751
     7.3837   7.6431   7.9229   8.1792   8.1944   8.6757   8.6871   8.7732

     occupation numbers 
     1.0000   1.0000   1.0000   1.0000   1.0000   1.0000   1.0000   1.0000
     1.0000   1.0000   1.0000   1.0000   1.0000   1.0000   1.0000   1.0000
     1.0000   1.0000   1.0000   1.0000   1.0000   1.0000   1.0000   1.0000
     1.0000   1.0000   1.0000   1.0000   1.0000   1.0000   1.0000   1.0000
     1.0000   1.0000   1.0000   1.0000   1.0000   1.0000   1.0000   1.0000
     1.0000   1.0000   1.0000   1.0000   1.0000   1.0000   1.0000   1.0000
     1.0000   1.0000   1.0000   1.0000   0.0000   0.0000   0.0000   0.0000
     0.0000   0.0000   0.0000   0.0000   0.0000   0.0000   0.0000   0.0000

          k = 0.0000-0.3849 0.0294 (  7906 PWs)   bands (ev):

   -69.0782 -68.0000 -67.9987 -67.9958 -33.2923 -33.2565 -33.2245 -32.3129
   -32.3105 -32.3059 -32.2144 -32.2140 -32.2121 -32.1477 -32.1473 -32.1454
    -8.1780  -7.4899  -5.9852  -5.9415  -5.8972  -5.4057  -5.3440  -5.2905
    -0.0644   0.7962   0.8412   0.8884   0.9498   1.1832   1.4528   1.5451
     1.7453   1.7521   1.8847   1.9794   2.3341   3.3914   3.5201   3.7222
     3.7238   3.7394   3.7550   3.9180   4.1190   4.1825   4.5950   4.6627
     4.7089   5.1181   5.1484   5.1762   7.0329   7.1594   7.2715   7.4210
     7.5810   7.8471   7.8862   7.9268   8.0136   8.4200   8.7052   9.0478

     occupation numbers 
     1.0000   1.0000   1.0000   1.0000   1.0000   1.0000   1.0000   1.0000
     1.0000   1.0000   1.0000   1.0000   1.0000   1.0000   1.0000   1.0000
     1.0000   1.0000   1.0000   1.0000   1.0000   1.0000   1.0000   1.0000
     1.0000   1.0000   1.0000   1.0000   1.0000   1.0000   1.0000   1.0000
     1.0000   1.0000   1.0000   1.0000   1.0000   1.0000   1.0000   1.0000
     1.0000   1.0000   1.0000   1.0000   1.0000   1.0000   1.0000   1.0000
     1.0000   1.0000   1.0000   1.0000   0.0000   0.0000   0.0000   0.0000
     0.0000   0.0000   0.0000   0.0000   0.0000   0.0000   0.0000   0.0000

     highest occupied, lowest unoccupied level (ev):     5.9814    6.0820

!    total energy              =    -882.82896958 Ry
     estimated scf accuracy    <       0.00000067 Ry

     The total energy is the sum of the following terms:
     one-electron contribution =   -3551.92921978 Ry
     hartree contribution      =    1797.92511830 Ry
     xc contribution           =    -311.19138438 Ry
     ewald contribution        =    1182.36651628 Ry

     convergence has been achieved in  39 iterations

     Writing all to output data dir bands_nm/myprefix.save/
 
     init_run     :      2.71s CPU      0.90s WALL (       1 calls)
     electrons    :    153.99s CPU     41.01s WALL (       1 calls)

     Called by init_run:
     wfcinit      :      1.10s CPU      0.29s WALL (       1 calls)
     wfcinit:atom :      0.02s CPU      0.00s WALL (       4 calls)
     wfcinit:wfcr :      1.02s CPU      0.27s WALL (       4 calls)
     potinit      :      0.34s CPU      0.09s WALL (       1 calls)
     hinit0       :      0.84s CPU      0.34s WALL (       1 calls)

     Called by electrons:
     c_bands      :    109.09s CPU     27.87s WALL (      40 calls)
     sum_band     :     28.37s CPU      8.63s WALL (      40 calls)
     v_of_rho     :      3.05s CPU      0.80s WALL (      40 calls)
     v_h          :      0.22s CPU      0.06s WALL (      40 calls)
     v_xc         :      2.83s CPU      0.74s WALL (      40 calls)
     newd         :     12.29s CPU      3.41s WALL (      40 calls)
     mix_rho      :      0.82s CPU      0.21s WALL (      40 calls)

     Called by c_bands:
     init_us_2    :      0.71s CPU      0.22s WALL (     324 calls)
     init_us_2:cp :      0.70s CPU      0.21s WALL (     324 calls)
     cegterg      :    102.56s CPU     26.17s WALL (     160 calls)

     Called by sum_band:
     sum_band:wei :      0.01s CPU      0.00s WALL (      40 calls)
     sum_band:loo :     13.03s CPU      3.34s WALL (      40 calls)
     sum_band:buf :      0.32s CPU      0.07s WALL (     160 calls)
     sum_band:ini :      0.36s CPU      0.11s WALL (     160 calls)
     sum_band:cal :      3.61s CPU      0.90s WALL (     160 calls)
     sum_band:bec :      0.08s CPU      0.03s WALL (     160 calls)
     addusdens    :     14.06s CPU      4.95s WALL (      40 calls)
     addusd:skk   :      0.02s CPU      0.01s WALL (     120 calls)
     addusd:dgemm :      4.81s CPU      2.54s WALL (     120 calls)
     addusd:qvan2 :      8.37s CPU      2.12s WALL (     120 calls)

     Called by *egterg:
     cdiaghg      :     14.96s CPU      3.86s WALL (    1038 calls)
     cegterg:over :      7.09s CPU      1.68s WALL (     882 calls)
     cegterg:upda :      3.36s CPU      0.95s WALL (     882 calls)
     cegterg:last :      7.34s CPU      1.88s WALL (     318 calls)
     h_psi        :     57.75s CPU     14.86s WALL (    1046 calls)
     s_psi        :      8.85s CPU      2.25s WALL (    1046 calls)
     g_psi        :      0.07s CPU      0.04s WALL (     882 calls)

     Called by h_psi:
     h_psi:calbec :      9.69s CPU      2.43s WALL (    1046 calls)
     vloc_psi     :     39.35s CPU     10.08s WALL (    1046 calls)
     add_vuspsi   :      8.47s CPU      2.27s WALL (    1046 calls)

     General routines
     calbec       :     13.29s CPU      3.33s WALL (    1206 calls)
     fft          :      1.88s CPU      0.54s WALL (     519 calls)
     ffts         :      0.12s CPU      0.03s WALL (      80 calls)
     fftw         :     45.36s CPU     10.98s WALL (   63014 calls)
     interpolate  :      0.25s CPU      0.06s WALL (      40 calls)
 
     Parallel routines
 
     PWSCF        :   2m38.24s CPU     42.76s WALL

 
   This run was terminated on:   2:23:58  14Jul2023            

=------------------------------------------------------------------------------=
   JOB DONE.
=------------------------------------------------------------------------------=
