
     Program PWSCF v.7.1 starts on 15Jul2023 at 18:29:42 

     This program is part of the open-source Quantum ESPRESSO suite
     for quantum simulation of materials; please cite
         "P. Giannozzi et al., J. Phys.:Condens. Matter 21 395502 (2009);
         "P. Giannozzi et al., J. Phys.:Condens. Matter 29 465901 (2017);
         "P. Giannozzi et al., J. Chem. Phys. 152 154105 (2020);
          URL http://www.quantum-espresso.org", 
     in publications or presentations arising from this work. More details at
     http://www.quantum-espresso.org/quote

     Parallel version (MPI & OpenMP), running on      32 processor cores
     Number of MPI processes:                 8
     Threads/MPI process:                     4

     MPI processes distributed on     1 nodes
     244303 MiB available memory on the printing compute node when the environment starts
 
     Reading input from espresso_13037.pwi
Warning: card &CELL ignored
Warning: card / ignored

     Current dimensions of program PWSCF are:
     Max number of different atomic species (ntypx) = 10
     Max number of k-points (npk) =  40000
     Max angular momentum in pseudopotentials (lmaxx) =  4
     file O.pbe-n-kjpaw_psl.0.1.UPF: wavefunction(s)  2P renormalized
     Message from routine setup:
     using ibrav=0 with symmetry is DISCOURAGED, use correct ibrav instead
 
     K-points division:     npool     =       2
     R & G space division:  proc/nbgrp/npool/nimage =       4
     Subspace diagonalization in iterative solution of the eigenvalue problem:
     one sub-group per band group will be used
     scalapack distributed-memory algorithm (size of sub-group:  2*  2 procs)

 
     Parallelization info
     --------------------
     sticks:   dense  smooth     PW     G-vecs:    dense   smooth      PW
     Min         727     363    102                25597     9039    1341
     Max         728     364    103                25598     9042    1344
     Sum        2911    1455    409               102391    36163    5367
 
     Using Slab Decomposition
 


     bravais-lattice index     =            0
     lattice parameter (alat)  =      14.6509  a.u.
     unit-cell volume          =    1631.1422 (a.u.)^3
     number of atoms/cell      =           20
     number of atomic types    =            4
     number of electrons       =       164.00
     number of Kohn-Sham states=          256
     kinetic-energy cutoff     =      30.0000  Ry
     charge density cutoff     =     240.0000  Ry
     scf convergence threshold =      1.0E-06
     mixing beta               =       0.7000
     number of iterations used =            8  plain     mixing
     Exchange-correlation= SLA  PW   PBX  PBC
                           (   1   4   3   4   0   0   0)

     celldm(1)=  14.650933  celldm(2)=   0.000000  celldm(3)=   0.000000
     celldm(4)=   0.000000  celldm(5)=   0.000000  celldm(6)=   0.000000

     crystal axes: (cart. coord. in units of alat)
               a(1) = (   1.000000   0.000000   0.000000 )  
               a(2) = (   0.000000   0.708458   0.000000 )  
               a(3) = (   0.000000   0.001719   0.732119 )  

     reciprocal axes: (cart. coord. in units 2 pi/alat)
               b(1) = (  1.000000  0.000000  0.000000 )  
               b(2) = (  0.000000  1.411515 -0.003315 )  
               b(3) = (  0.000000  0.000000  1.365899 )  


     PseudoPot. # 1 for Ca read from file:
     /lustre07/scratch/pragov/crystal_structure_design/utils/SSSP/Ca_pbe_v1.uspp.F.UPF
     MD5 check sum: 403a4c14b9e4d4dfdc3024c9a3812218
     Pseudo is Ultrasoft + core correction, Zval = 10.0
     Generated by new atomic code, or converted to UPF format
     Using radial grid of  845 points,  6 beta functions with: 
                l(1) =   0
                l(2) =   0
                l(3) =   1
                l(4) =   1
                l(5) =   2
                l(6) =   2
     Q(r) pseudized with  8 coefficients,  rinner =    1.500   1.500   1.500
                                                       1.500   1.500

     PseudoPot. # 2 for Ta read from file:
     /lustre07/scratch/pragov/crystal_structure_design/utils/SSSP/Ta_pbe_v1.uspp.F.UPF
     MD5 check sum: f8bbe9446314a3b8ea5d9f3e3836c939
     Pseudo is Ultrasoft + core correction, Zval = 13.0
     Generated by new atomic code, or converted to UPF format
     Using radial grid of  921 points,  7 beta functions with: 
                l(1) =   0
                l(2) =   0
                l(3) =   1
                l(4) =   1
                l(5) =   2
                l(6) =   2
                l(7) =   3
     Q(r) pseudized with  6 coefficients,  rinner =    1.300   1.300   1.300
                                                       1.300   1.300   1.300
                                                       1.300

     PseudoPot. # 3 for V  read from file:
     /lustre07/scratch/pragov/crystal_structure_design/utils/SSSP/v_pbe_v1.4.uspp.F.UPF
     MD5 check sum: 22b79981416ebb76fdaf5b1b8640f6fb
     Pseudo is Ultrasoft + core correction, Zval = 13.0
     Generated by new atomic code, or converted to UPF format
     Using radial grid of  853 points,  6 beta functions with: 
                l(1) =   0
                l(2) =   0
                l(3) =   1
                l(4) =   1
                l(5) =   2
                l(6) =   2
     Q(r) pseudized with  8 coefficients,  rinner =    1.100   1.100   1.100
                                                       1.100   1.100

     PseudoPot. # 4 for O  read from file:
     /lustre07/scratch/pragov/crystal_structure_design/utils/SSSP/O.pbe-n-kjpaw_psl.0.1.UPF
     MD5 check sum: 0234752ac141de4415c5fc33072bef88
     Pseudo is Projector augmented-wave + core cor, Zval =  6.0
     Generated using "atomic" code by A. Dal Corso  v.5.0.99 svn rev. 10869
     Shape of augmentation charge: BESSEL
     Using radial grid of 1095 points,  4 beta functions with: 
                l(1) =   0
                l(2) =   0
                l(3) =   1
                l(4) =   1
     Q(r) pseudized with 0 coefficients 


     atomic species   valence    mass     pseudopotential
        Ca            10.00    40.07800     Ca( 1.00)
        Ta            13.00   180.94788     Ta( 1.00)
        V             13.00    50.94150     V ( 1.00)
        O              6.00    15.99900     O ( 1.00)

      4 Sym. Ops., with inversion, found ( 2 have fractional translation)


                                    s                        frac. trans.

      isym =  1     identity                                     

 cryst.   s( 1) = (     1          0          0      )
                  (     0          1          0      )
                  (     0          0          1      )

 cart.    s( 1) = (  1.0000000  0.0000000  0.0000000 )
                  (  0.0000000  1.0000000  0.0000000 )
                  (  0.0000000  0.0000000  1.0000000 )


      isym =  2     180 deg rotation - cart. axis [1,0,0]        

 cryst.   s( 2) = (     1          0          0      )    f =(  0.5000000 )
                  (     0         -1          0      )       (  0.0000000 )
                  (     0          0         -1      )       (  0.0000000 )

 cart.    s( 2) = (  1.0000000  0.0000000  0.0000000 )    f =(  0.5000000 )
                  (  0.0000000 -1.0000000  0.0000000 )       (  0.0000000 )
                  (  0.0000000  0.0000000 -1.0000000 )       (  0.0000000 )


      isym =  3     inversion                                    

 cryst.   s( 3) = (    -1          0          0      )
                  (     0         -1          0      )
                  (     0          0         -1      )

 cart.    s( 3) = ( -1.0000000  0.0000000  0.0000000 )
                  (  0.0000000 -1.0000000  0.0000000 )
                  (  0.0000000  0.0000000 -1.0000000 )


      isym =  4     inv. 180 deg rotation - cart. axis [1,0,0]   

 cryst.   s( 4) = (    -1          0          0      )    f =(  0.5000000 )
                  (     0          1          0      )       (  0.0000000 )
                  (     0          0          1      )       (  0.0000000 )

 cart.    s( 4) = ( -1.0000000  0.0000000  0.0000000 )    f =(  0.5000000 )
                  (  0.0000000  1.0000000  0.0000000 )       (  0.0000000 )
                  (  0.0000000  0.0000000  1.0000000 )       (  0.0000000 )


   Cartesian axes

     site n.     atom                  positions (alat units)
         1           Ca  tau(   1) = (   0.7500000   0.6992687   0.0318303  )
         2           Ca  tau(   2) = (   0.7500000   0.3649403   0.4116909  )
         3           Ca  tau(   3) = (   0.2500000   0.3452377   0.3204279  )
         4           Ca  tau(   4) = (   0.2500000   0.0109092   0.7002885  )
         5           Ta  tau(   5) = (   0.0000000   0.0008597   0.3660594  )
         6           Ta  tau(   6) = (   0.5000000   0.0008597   0.3660594  )
         7           V   tau(   7) = (   0.0000000   0.3542292   0.0000000  )
         8           V   tau(   8) = (   0.5000000   0.3542292   0.0000000  )
         9           O   tau(   9) = (   0.4520910   0.1394470   0.1558439  )
        10           O   tau(  10) = (   0.5452760   0.5037015   0.2209432  )
        11           O   tau(  11) = (   0.5479090   0.5707309   0.5762749  )
        12           O   tau(  12) = (   0.0452760   0.2064764   0.5111756  )
        13           O   tau(  13) = (   0.2500000   0.6428442   0.3868604  )
        14           O   tau(  14) = (   0.4547240   0.2064764   0.5111756  )
        15           O   tau(  15) = (   0.9547240   0.5037015   0.2209432  )
        16           O   tau(  16) = (   0.0479090   0.1394470   0.1558439  )
        17           O   tau(  17) = (   0.7500000   0.3002237   0.7171330  )
        18           O   tau(  18) = (   0.9520910   0.5707309   0.5762749  )
        19           O   tau(  19) = (   0.2500000   0.4099542   0.0149857  )
        20           O   tau(  20) = (   0.7500000   0.0673337   0.3452584  )

   Crystallographic axes

     site n.     atom                  positions (cryst. coord.)
         1           Ca  tau(   1) = (  0.7500000  0.9869230  0.0434770  )
         2           Ca  tau(   2) = (  0.7500000  0.5137540  0.5623280  )
         3           Ca  tau(   3) = (  0.2500000  0.4862460  0.4376720  )
         4           Ca  tau(   4) = (  0.2500000  0.0130770  0.9565230  )
         5           Ta  tau(   5) = (  0.0000000  0.0000000  0.5000000  )
         6           Ta  tau(   6) = (  0.5000000  0.0000000  0.5000000  )
         7           V   tau(   7) = (  0.0000000  0.5000000  0.0000000  )
         8           V   tau(   8) = (  0.5000000  0.5000000  0.0000000  )
         9           O   tau(   9) = (  0.4520910  0.1963150  0.2128670  )
        10           O   tau(  10) = (  0.5452760  0.7102500  0.3017860  )
        11           O   tau(  11) = (  0.5479090  0.8036850  0.7871330  )
        12           O   tau(  12) = (  0.0452760  0.2897500  0.6982140  )
        13           O   tau(  13) = (  0.2500000  0.9061020  0.5284120  )
        14           O   tau(  14) = (  0.4547240  0.2897500  0.6982140  )
        15           O   tau(  15) = (  0.9547240  0.7102500  0.3017860  )
        16           O   tau(  16) = (  0.0479090  0.1963150  0.2128670  )
        17           O   tau(  17) = (  0.7500000  0.4213930  0.9795310  )
        18           O   tau(  18) = (  0.9520910  0.8036850  0.7871330  )
        19           O   tau(  19) = (  0.2500000  0.5786070  0.0204690  )
        20           O   tau(  20) = (  0.7500000  0.0938980  0.4715880  )

     number of k points=    10
                       cart. coord. in units 2pi/alat
        k(    1) = (   0.0000000   0.0000000   0.0000000), wk =   0.0740741
        k(    2) = (   0.0000000   0.0000000   0.4552995), wk =   0.1481481
        k(    3) = (   0.0000000   0.4705051  -0.0011050), wk =   0.1481481
        k(    4) = (   0.0000000   0.4705051   0.4541945), wk =   0.1481481
        k(    5) = (   0.0000000   0.4705051  -0.4564046), wk =   0.1481481
        k(    6) = (   0.3333333   0.0000000   0.0000000), wk =   0.1481481
        k(    7) = (   0.3333333   0.0000000   0.4552995), wk =   0.2962963
        k(    8) = (   0.3333333   0.4705051  -0.0011050), wk =   0.2962963
        k(    9) = (   0.3333333   0.4705051   0.4541945), wk =   0.2962963
        k(   10) = (   0.3333333   0.4705051  -0.4564046), wk =   0.2962963

                       cryst. coord.
        k(    1) = (   0.0000000   0.0000000   0.0000000), wk =   0.0740741
        k(    2) = (   0.0000000   0.0000000   0.3333333), wk =   0.1481481
        k(    3) = (   0.0000000   0.3333333   0.0000000), wk =   0.1481481
        k(    4) = (   0.0000000   0.3333333   0.3333333), wk =   0.1481481
        k(    5) = (   0.0000000   0.3333333  -0.3333333), wk =   0.1481481
        k(    6) = (   0.3333333   0.0000000   0.0000000), wk =   0.1481481
        k(    7) = (   0.3333333   0.0000000   0.3333333), wk =   0.2962963
        k(    8) = (   0.3333333   0.3333333   0.0000000), wk =   0.2962963
        k(    9) = (   0.3333333   0.3333333   0.3333333), wk =   0.2962963
        k(   10) = (   0.3333333   0.3333333  -0.3333333), wk =   0.2962963

     Dense  grid:   102391 G-vectors     FFT dimensions: (  80,  54,  54)

     Smooth grid:    36163 G-vectors     FFT dimensions: (  54,  40,  40)

     Dynamical RAM for                 wfc:       4.42 MB

     Dynamical RAM for     wfc (w. buffer):      26.51 MB

     Dynamical RAM for           str. fact:       1.56 MB

     Dynamical RAM for           local pot:       0.00 MB

     Dynamical RAM for          nlocal pot:       4.38 MB

     Dynamical RAM for                qrad:       9.29 MB

     Dynamical RAM for          rho,v,vnew:       2.56 MB

     Dynamical RAM for               rhoin:       0.85 MB

     Dynamical RAM for            rho*nmix:       6.25 MB

     Dynamical RAM for           G-vectors:       1.53 MB

     Dynamical RAM for          h,s,v(r/c):       3.00 MB

     Dynamical RAM for          <psi|beta>:       0.99 MB

     Dynamical RAM for                 psi:       8.84 MB

     Dynamical RAM for                hpsi:       8.84 MB

     Dynamical RAM for                spsi:       8.84 MB

     Dynamical RAM for      wfcinit/wfcrot:      10.34 MB

     Dynamical RAM for           addusdens:      71.28 MB

     Estimated static dynamical RAM per process >      50.94 MB

     Estimated max dynamical RAM per process >     128.48 MB

     Estimated total dynamical RAM >    1002.82 MB

     Check: negative core charge=   -0.000012

     Initial potential from superposition of free atoms

     starting charge     163.9735, renormalised to     164.0000

     negative rho (up, down):  1.845E-01 0.000E+00
     Starting wfcs are  134 randomized atomic wfcs +  122 random wfcs
     Checking if some PAW data can be deallocated... 
       PAW data deallocated on    2 nodes for type:  4

     total cpu time spent up to now is        2.1 secs

     Self-consistent Calculation

     iteration #  1     ecut=    30.00 Ry     beta= 0.70
     Davidson diagonalization with overlap

---- Real-time Memory Report at c_bands before calling an iterative solver
           281 MiB given to the printing process from OS
             0 MiB allocation reported by mallinfo(arena+hblkhd)
        243559 MiB available memory on the node where the printing process lives
------------------
     ethr =  1.00E-02,  avg # of iterations =  6.0

     negative rho (up, down):  1.859E-01 0.000E+00

     total cpu time spent up to now is       10.2 secs

     total energy              =   -1372.57589871 Ry
     estimated scf accuracy    <       5.11138768 Ry

     iteration #  2     ecut=    30.00 Ry     beta= 0.70
     Davidson diagonalization with overlap

---- Real-time Memory Report at c_bands before calling an iterative solver
           363 MiB given to the printing process from OS
             0 MiB allocation reported by mallinfo(arena+hblkhd)
        242903 MiB available memory on the node where the printing process lives
------------------
     ethr =  3.12E-03,  avg # of iterations =  2.0

     negative rho (up, down):  1.850E-01 0.000E+00

     total cpu time spent up to now is       14.1 secs

     total energy              =   -1366.35343396 Ry
     estimated scf accuracy    <      51.19372889 Ry

     iteration #  3     ecut=    30.00 Ry     beta= 0.70
     Davidson diagonalization with overlap

---- Real-time Memory Report at c_bands before calling an iterative solver
           368 MiB given to the printing process from OS
             0 MiB allocation reported by mallinfo(arena+hblkhd)
        242877 MiB available memory on the node where the printing process lives
------------------
     ethr =  3.12E-03,  avg # of iterations =  2.0

     negative rho (up, down):  1.860E-01 0.000E+00

     total cpu time spent up to now is       17.8 secs

     total energy              =   -1374.46878250 Ry
     estimated scf accuracy    <      11.23687872 Ry

     iteration #  4     ecut=    30.00 Ry     beta= 0.70
     Davidson diagonalization with overlap

---- Real-time Memory Report at c_bands before calling an iterative solver
           373 MiB given to the printing process from OS
             0 MiB allocation reported by mallinfo(arena+hblkhd)
        242883 MiB available memory on the node where the printing process lives
------------------
     ethr =  3.12E-03,  avg # of iterations =  1.2

     negative rho (up, down):  1.862E-01 0.000E+00

     total cpu time spent up to now is       21.2 secs

     total energy              =   -1375.24322290 Ry
     estimated scf accuracy    <       1.28755507 Ry

     iteration #  5     ecut=    30.00 Ry     beta= 0.70
     Davidson diagonalization with overlap

---- Real-time Memory Report at c_bands before calling an iterative solver
           373 MiB given to the printing process from OS
             0 MiB allocation reported by mallinfo(arena+hblkhd)
        243044 MiB available memory on the node where the printing process lives
------------------
     ethr =  7.85E-04,  avg # of iterations =  1.2

     negative rho (up, down):  1.867E-01 0.000E+00

     total cpu time spent up to now is       24.5 secs

     total energy              =   -1375.26725804 Ry
     estimated scf accuracy    <       0.59047755 Ry

     iteration #  6     ecut=    30.00 Ry     beta= 0.70
     Davidson diagonalization with overlap

---- Real-time Memory Report at c_bands before calling an iterative solver
           373 MiB given to the printing process from OS
             0 MiB allocation reported by mallinfo(arena+hblkhd)
        242865 MiB available memory on the node where the printing process lives
------------------
     ethr =  3.60E-04,  avg # of iterations =  1.0

     negative rho (up, down):  1.876E-01 0.000E+00

     total cpu time spent up to now is       27.7 secs

     total energy              =   -1375.21519560 Ry
     estimated scf accuracy    <       0.28200949 Ry

     iteration #  7     ecut=    30.00 Ry     beta= 0.70
     Davidson diagonalization with overlap

---- Real-time Memory Report at c_bands before calling an iterative solver
           373 MiB given to the printing process from OS
             0 MiB allocation reported by mallinfo(arena+hblkhd)
        242912 MiB available memory on the node where the printing process lives
------------------
     ethr =  1.72E-04,  avg # of iterations =  1.1

     negative rho (up, down):  1.880E-01 0.000E+00

     total cpu time spent up to now is       31.0 secs

     total energy              =   -1375.22622985 Ry
     estimated scf accuracy    <       0.04825777 Ry

     iteration #  8     ecut=    30.00 Ry     beta= 0.70
     Davidson diagonalization with overlap

---- Real-time Memory Report at c_bands before calling an iterative solver
           373 MiB given to the printing process from OS
             0 MiB allocation reported by mallinfo(arena+hblkhd)
        242871 MiB available memory on the node where the printing process lives
------------------
     ethr =  2.94E-05,  avg # of iterations =  5.2

     negative rho (up, down):  1.882E-01 0.000E+00

     total cpu time spent up to now is       35.5 secs

     total energy              =   -1375.22811401 Ry
     estimated scf accuracy    <       0.00729861 Ry

     iteration #  9     ecut=    30.00 Ry     beta= 0.70
     Davidson diagonalization with overlap

---- Real-time Memory Report at c_bands before calling an iterative solver
           373 MiB given to the printing process from OS
             0 MiB allocation reported by mallinfo(arena+hblkhd)
        242873 MiB available memory on the node where the printing process lives
------------------
     ethr =  4.45E-06,  avg # of iterations =  8.6

     negative rho (up, down):  1.883E-01 0.000E+00

     total cpu time spent up to now is       40.7 secs

     total energy              =   -1375.22885874 Ry
     estimated scf accuracy    <       0.00017083 Ry

     iteration # 10     ecut=    30.00 Ry     beta= 0.70
     Davidson diagonalization with overlap

---- Real-time Memory Report at c_bands before calling an iterative solver
           386 MiB given to the printing process from OS
             0 MiB allocation reported by mallinfo(arena+hblkhd)
        242914 MiB available memory on the node where the printing process lives
------------------
     ethr =  1.04E-07,  avg # of iterations =  1.6

     negative rho (up, down):  1.883E-01 0.000E+00

     total cpu time spent up to now is       44.2 secs

     total energy              =   -1375.22887455 Ry
     estimated scf accuracy    <       0.00009140 Ry

     iteration # 11     ecut=    30.00 Ry     beta= 0.70
     Davidson diagonalization with overlap

---- Real-time Memory Report at c_bands before calling an iterative solver
           386 MiB given to the printing process from OS
             0 MiB allocation reported by mallinfo(arena+hblkhd)
        242790 MiB available memory on the node where the printing process lives
------------------
     ethr =  5.57E-08,  avg # of iterations =  1.0

     negative rho (up, down):  1.883E-01 0.000E+00

     total cpu time spent up to now is       47.3 secs

     total energy              =   -1375.22888942 Ry
     estimated scf accuracy    <       0.00001106 Ry

     iteration # 12     ecut=    30.00 Ry     beta= 0.70
     Davidson diagonalization with overlap

---- Real-time Memory Report at c_bands before calling an iterative solver
           386 MiB given to the printing process from OS
             0 MiB allocation reported by mallinfo(arena+hblkhd)
        242986 MiB available memory on the node where the printing process lives
------------------
     ethr =  6.74E-09,  avg # of iterations =  1.0

     negative rho (up, down):  1.883E-01 0.000E+00

     total cpu time spent up to now is       50.5 secs

     total energy              =   -1375.22889048 Ry
     estimated scf accuracy    <       0.00000331 Ry

     iteration # 13     ecut=    30.00 Ry     beta= 0.70
     Davidson diagonalization with overlap

---- Real-time Memory Report at c_bands before calling an iterative solver
           386 MiB given to the printing process from OS
             0 MiB allocation reported by mallinfo(arena+hblkhd)
        242779 MiB available memory on the node where the printing process lives
------------------
     ethr =  2.02E-09,  avg # of iterations =  1.0

     negative rho (up, down):  1.883E-01 0.000E+00

     total cpu time spent up to now is       53.8 secs

     End of self-consistent calculation

          k = 0.0000 0.0000 0.0000 (  4499 PWs)   bands (ev):

   -57.9885 -57.9875 -53.4901 -53.4895 -29.0537 -29.0484 -28.9128 -28.9083
   -27.3781 -27.3634 -27.3555 -27.3545 -27.2368 -27.2234 -24.7040 -24.5953
   -24.5928 -24.5869 -24.5690 -24.5638 -10.4363 -10.3377 -10.3377 -10.2543
   -10.2105 -10.1289 -10.1018 -10.0504 -10.0357  -9.9939  -9.9769  -9.9496
    -8.6074  -7.8548  -7.5034  -7.3978  -7.3845  -7.3580  -6.8940  -6.8758
    -6.8122  -6.7937  -6.7185  -6.5024   3.6223   4.5474   4.5984   4.6595
     4.9743   4.9941   5.0778   5.1190   5.2767   5.6574   6.1642   6.4300
     6.5069   6.6800   6.6871   6.7087   6.7893   6.8041   6.8968   6.9576
     7.0730   7.2624   7.4638   7.5006   8.0714   8.1388   8.1698   8.3613
     8.3718   8.3890   8.3914   8.4485   8.5752   8.7079   8.7173   8.7646
    11.4768  11.5029  11.5267  11.6720  12.5380  12.8463  12.9272  13.0674
    13.4133  13.4809  13.7396  14.2668  14.6058  14.7153  14.7677  14.8294
    15.2226  15.5813  15.6103  15.7934  15.8079  15.9571  16.0912  16.5681
    16.5757  16.6626  16.8432  16.9316  17.0382  17.0871  17.1604  17.2195
    17.3096  17.4388  17.4549  17.5271  17.6675  17.8570  18.4792  18.9276
    19.3458  19.6503  19.9150  20.3879  20.7072  20.7215  20.7305  22.6871
    22.8223  22.9481  23.2066  23.3914  23.4577  23.5394  23.5816  23.6484
    24.0502  24.1260  24.2281  24.4671  24.6968  24.9333  24.9537  25.2307
    25.3099  25.6107  25.9807  26.3061  26.4603  26.6619  26.7649  27.0023
    27.8532  28.2672  28.3930  28.8107  28.9495  29.2238  30.2524  30.3172
    30.3632  30.8462  30.8835  31.1157  31.2422  31.2452  31.8555  32.0393
    32.0498  32.3435  32.5968  32.6487  32.6997  32.9224  33.2439  33.5175
    33.7356  34.0018  34.3765  34.5033  34.5443  34.5941  35.0977  35.1232
    35.5307  35.5828  35.7908  35.9844  36.6332  36.8091  36.8483  37.1461
    37.2222  38.0580  38.4250  38.4308  38.4692  38.6096  38.6140  38.6991
    38.8588  38.9011  39.0777  39.4826  39.5303  39.6613  39.7635  40.0883
    40.1054  40.3259  40.3627  40.5290  40.5792  40.8680  41.1432  41.1790
    41.4642  41.7710  42.1110  42.2213  42.4219  42.5926  42.5969  42.7854
    43.1050  43.1167  43.4378  43.5023  43.6074  43.9654  44.2305  44.3610
    44.4138  44.5079  44.5824  44.6350  44.8219  45.1717  45.2484  45.3910
    45.4695  45.5252  45.8331  46.1322  46.2682  46.3425  46.4734  46.5778
    46.6421  46.6721  46.8521  47.0431  47.5508  47.7208  47.7807  48.1512

     occupation numbers 
     1.0000   1.0000   1.0000   1.0000   1.0000   1.0000   1.0000   1.0000
     1.0000   1.0000   1.0000   1.0000   1.0000   1.0000   1.0000   1.0000
     1.0000   1.0000   1.0000   1.0000   1.0000   1.0000   1.0000   1.0000
     1.0000   1.0000   1.0000   1.0000   1.0000   1.0000   1.0000   1.0000
     1.0000   1.0000   1.0000   1.0000   1.0000   1.0000   1.0000   1.0000
     1.0000   1.0000   1.0000   1.0000   1.0000   1.0000   1.0000   1.0000
     1.0000   1.0000   1.0000   1.0000   1.0000   1.0000   1.0000   1.0000
     1.0000   1.0000   1.0000   1.0000   1.0000   1.0000   1.0000   1.0000
     1.0000   1.0000   1.0000   1.0000   1.0000   1.0000   1.0000   1.0000
     1.0000   1.0000   1.0000   1.0000   1.0000   1.0000   1.0000   1.0000
     1.0000   1.0000   0.0000   0.0000   0.0000   0.0000   0.0000   0.0000
     0.0000   0.0000   0.0000   0.0000   0.0000   0.0000   0.0000   0.0000
     0.0000   0.0000   0.0000   0.0000   0.0000   0.0000   0.0000   0.0000
     0.0000   0.0000   0.0000   0.0000   0.0000   0.0000   0.0000   0.0000
     0.0000   0.0000   0.0000   0.0000   0.0000   0.0000   0.0000   0.0000
     0.0000   0.0000   0.0000   0.0000   0.0000   0.0000   0.0000   0.0000
     0.0000   0.0000   0.0000   0.0000   0.0000   0.0000   0.0000   0.0000
     0.0000   0.0000   0.0000   0.0000   0.0000   0.0000   0.0000   0.0000
     0.0000   0.0000   0.0000   0.0000   0.0000   0.0000   0.0000   0.0000
     0.0000   0.0000   0.0000   0.0000   0.0000   0.0000   0.0000   0.0000
     0.0000   0.0000   0.0000   0.0000   0.0000   0.0000   0.0000   0.0000
     0.0000   0.0000   0.0000   0.0000   0.0000   0.0000   0.0000   0.0000
     0.0000   0.0000   0.0000   0.0000   0.0000   0.0000   0.0000   0.0000
     0.0000   0.0000   0.0000   0.0000   0.0000   0.0000   0.0000   0.0000
     0.0000   0.0000   0.0000   0.0000   0.0000   0.0000   0.0000   0.0000
     0.0000   0.0000   0.0000   0.0000   0.0000   0.0000   0.0000   0.0000
     0.0000   0.0000   0.0000   0.0000   0.0000   0.0000   0.0000   0.0000
     0.0000   0.0000   0.0000   0.0000   0.0000   0.0000   0.0000   0.0000
     0.0000   0.0000   0.0000   0.0000   0.0000   0.0000   0.0000   0.0000
     0.0000   0.0000   0.0000   0.0000   0.0000   0.0000   0.0000   0.0000
     0.0000   0.0000   0.0000   0.0000   0.0000   0.0000   0.0000   0.0000
     0.0000   0.0000   0.0000   0.0000   0.0000   0.0000   0.0000   0.0000

          k = 0.0000 0.0000 0.4553 (  4509 PWs)   bands (ev):

   -57.9885 -57.9876 -53.4901 -53.4896 -29.0541 -29.0477 -28.9139 -28.9079
   -27.3778 -27.3637 -27.3558 -27.3556 -27.2364 -27.2237 -24.7045 -24.5954
   -24.5929 -24.5870 -24.5684 -24.5646 -10.3782 -10.3530 -10.2718 -10.2164
   -10.1777 -10.1762 -10.1170 -10.0994 -10.0961 -10.0808 -10.0183  -9.9540
    -8.3958  -7.7063  -7.5237  -7.3856  -7.3342  -7.2808  -7.1031  -6.9614
    -6.8186  -6.7959  -6.7652  -6.5363   3.6313   4.7248   4.7725   5.0729
     5.1400   5.2573   5.3513   5.3555   5.4953   5.7224   5.9723   6.0504
     6.1616   6.3757   6.5220   6.5406   6.5924   6.7089   6.9671   7.0188
     7.1854   7.3269   7.3286   7.6821   7.7944   7.8737   7.8744   8.0520
     8.0960   8.1722   8.2370   8.2777   8.3718   8.5659   8.5866   8.6319
    11.7996  11.8470  12.0233  12.1023  12.6081  12.9251  13.0726  13.2571
    13.5808  13.7637  13.8720  14.0671  14.3037  14.4455  14.5447  15.3753
    15.5380  15.8024  15.8398  15.9814  16.1891  16.2481  16.3016  16.4146
    16.6424  16.6482  16.7375  16.8548  16.9645  17.0262  17.0973  17.1597
    17.2554  17.3190  17.3934  17.4172  17.4776  17.9209  18.4057  19.1087
    19.1621  19.4957  19.6310  20.0773  20.6657  21.1821  21.5156  21.6418
    22.2332  22.5726  22.8869  23.0294  23.3146  23.6058  24.0794  24.1886
    24.2288  24.3703  24.4225  24.6916  24.8604  24.9837  25.1999  25.2974
    25.3559  25.8454  26.0099  26.3452  26.3876  26.7314  27.4014  27.4512
    27.6447  28.1262  28.2171  28.5240  28.6022  28.6604  28.8521  29.6719
    29.7376  30.2230  30.5420  30.7269  31.2347  31.3176  31.3899  31.8655
    31.8898  32.2855  32.8739  33.1712  33.2000  33.2551  33.6191  33.6262
    33.7189  33.9326  34.3314  34.5283  34.7707  35.0964  35.1597  35.3495
    35.5189  35.5990  36.1249  36.4099  36.5731  36.7794  37.0121  37.3079
    37.5519  37.6635  37.9517  37.9868  38.1240  38.4123  38.5573  38.6087
    38.7027  38.9527  38.9912  39.0985  39.3787  39.7201  39.9796  39.9899
    40.3524  40.6182  40.6598  40.8025  40.9660  41.0832  41.4773  41.4857
    41.6425  41.7664  41.8287  42.1036  42.3269  42.3884  42.5376  42.6295
    42.8676  43.4355  43.5763  44.0420  44.1101  44.1970  44.2199  44.5154
    44.5293  44.7112  44.8955  45.0801  45.0901  45.3652  45.4158  45.6316
    45.8371  45.9195  45.9352  45.9689  46.0117  46.2017  46.4339  46.5097
    46.7985  46.8520  47.0433  47.1223  47.6620  47.6995  47.8016  47.9693

     occupation numbers 
     1.0000   1.0000   1.0000   1.0000   1.0000   1.0000   1.0000   1.0000
     1.0000   1.0000   1.0000   1.0000   1.0000   1.0000   1.0000   1.0000
     1.0000   1.0000   1.0000   1.0000   1.0000   1.0000   1.0000   1.0000
     1.0000   1.0000   1.0000   1.0000   1.0000   1.0000   1.0000   1.0000
     1.0000   1.0000   1.0000   1.0000   1.0000   1.0000   1.0000   1.0000
     1.0000   1.0000   1.0000   1.0000   1.0000   1.0000   1.0000   1.0000
     1.0000   1.0000   1.0000   1.0000   1.0000   1.0000   1.0000   1.0000
     1.0000   1.0000   1.0000   1.0000   1.0000   1.0000   1.0000   1.0000
     1.0000   1.0000   1.0000   1.0000   1.0000   1.0000   1.0000   1.0000
     1.0000   1.0000   1.0000   1.0000   1.0000   1.0000   1.0000   1.0000
     1.0000   1.0000   0.0000   0.0000   0.0000   0.0000   0.0000   0.0000
     0.0000   0.0000   0.0000   0.0000   0.0000   0.0000   0.0000   0.0000
     0.0000   0.0000   0.0000   0.0000   0.0000   0.0000   0.0000   0.0000
     0.0000   0.0000   0.0000   0.0000   0.0000   0.0000   0.0000   0.0000
     0.0000   0.0000   0.0000   0.0000   0.0000   0.0000   0.0000   0.0000
     0.0000   0.0000   0.0000   0.0000   0.0000   0.0000   0.0000   0.0000
     0.0000   0.0000   0.0000   0.0000   0.0000   0.0000   0.0000   0.0000
     0.0000   0.0000   0.0000   0.0000   0.0000   0.0000   0.0000   0.0000
     0.0000   0.0000   0.0000   0.0000   0.0000   0.0000   0.0000   0.0000
     0.0000   0.0000   0.0000   0.0000   0.0000   0.0000   0.0000   0.0000
     0.0000   0.0000   0.0000   0.0000   0.0000   0.0000   0.0000   0.0000
     0.0000   0.0000   0.0000   0.0000   0.0000   0.0000   0.0000   0.0000
     0.0000   0.0000   0.0000   0.0000   0.0000   0.0000   0.0000   0.0000
     0.0000   0.0000   0.0000   0.0000   0.0000   0.0000   0.0000   0.0000
     0.0000   0.0000   0.0000   0.0000   0.0000   0.0000   0.0000   0.0000
     0.0000   0.0000   0.0000   0.0000   0.0000   0.0000   0.0000   0.0000
     0.0000   0.0000   0.0000   0.0000   0.0000   0.0000   0.0000   0.0000
     0.0000   0.0000   0.0000   0.0000   0.0000   0.0000   0.0000   0.0000
     0.0000   0.0000   0.0000   0.0000   0.0000   0.0000   0.0000   0.0000
     0.0000   0.0000   0.0000   0.0000   0.0000   0.0000   0.0000   0.0000
     0.0000   0.0000   0.0000   0.0000   0.0000   0.0000   0.0000   0.0000
     0.0000   0.0000   0.0000   0.0000   0.0000   0.0000   0.0000   0.0000

          k = 0.0000 0.4705-0.0011 (  4537 PWs)   bands (ev):

   -57.9887 -57.9876 -53.4903 -53.4895 -29.0539 -29.0478 -28.9135 -28.9082
   -27.3785 -27.3637 -27.3573 -27.3555 -27.2373 -27.2237 -24.7049 -24.5946
   -24.5932 -24.5872 -24.5692 -24.5641 -10.3773 -10.3692 -10.2913 -10.2178
   -10.2119 -10.1767 -10.1744 -10.1145 -10.0716 -10.0307  -9.9888  -9.9528
    -8.3493  -7.7270  -7.5003  -7.3643  -7.3611  -7.2859  -7.0899  -6.9573
    -6.8251  -6.7809  -6.7650  -6.5259   3.6216   4.6475   4.8709   4.9584
     5.0033   5.2613   5.3451   5.3598   5.5200   5.7103   5.8741   5.9294
     6.2341   6.3351   6.5316   6.5574   6.6588   6.7662   6.8502   6.9130
     7.1780   7.3818   7.4947   7.7467   7.7489   7.8122   7.9261   7.9699
     8.1529   8.2206   8.3244   8.3629   8.4051   8.4845   8.5060   8.6435
    11.8127  11.8546  11.9379  12.0264  12.6231  12.9537  13.1178  13.2352
    13.4653  13.7552  13.8237  14.0279  14.3133  14.3499  14.6675  15.4206
    15.5526  15.6158  15.9087  16.0761  16.0880  16.2586  16.3838  16.4302
    16.6502  16.7912  16.8318  16.8451  16.9137  16.9966  17.0172  17.2533
    17.2899  17.3833  17.5578  17.6229  17.6605  17.7142  18.5595  18.9990
    19.3785  19.4841  19.5390  20.1256  20.6204  21.1623  21.3566  21.4188
    21.6202  22.5729  22.7556  23.1476  23.3168  23.7608  23.8019  23.9092
    24.1249  24.3152  24.3346  24.8591  24.8687  24.8935  25.0717  25.5575
    25.6467  25.9118  26.1390  26.1550  26.2481  26.7718  27.0997  27.3311
    27.4203  27.8134  28.1784  28.7755  28.8733  29.2788  29.5074  29.6384
    30.2799  30.6945  30.7075  30.8890  30.9649  31.0955  31.6248  31.6302
    31.7300  31.9827  32.5723  32.6322  33.1732  33.4685  33.5281  33.6597
    34.0364  34.2319  34.4975  34.5716  35.1923  35.2271  35.3938  35.4364
    35.5922  35.8103  36.1933  36.5241  36.6916  36.9369  37.0695  37.1363
    37.4459  37.4730  37.6360  38.0318  38.0347  38.0581  38.3640  38.7330
    38.9117  39.0482  39.3094  39.3822  39.4100  39.6023  39.6772  39.9049
    39.9634  40.0540  40.3226  40.5565  40.8908  41.0891  41.3105  41.3192
    41.6823  41.9049  42.0483  42.1219  42.3000  42.4338  42.7333  42.7979
    42.9264  43.1347  43.1957  43.4377  43.7227  43.9221  44.0184  44.2209
    44.2274  44.3575  44.5887  44.7316  44.8479  44.9283  45.2546  45.3889
    45.4795  45.6198  45.9012  46.0759  46.1423  46.1640  46.5592  46.6710
    46.7512  47.0781  47.0924  47.1496  47.5840  47.6534  47.7922  48.0610

     occupation numbers 
     1.0000   1.0000   1.0000   1.0000   1.0000   1.0000   1.0000   1.0000
     1.0000   1.0000   1.0000   1.0000   1.0000   1.0000   1.0000   1.0000
     1.0000   1.0000   1.0000   1.0000   1.0000   1.0000   1.0000   1.0000
     1.0000   1.0000   1.0000   1.0000   1.0000   1.0000   1.0000   1.0000
     1.0000   1.0000   1.0000   1.0000   1.0000   1.0000   1.0000   1.0000
     1.0000   1.0000   1.0000   1.0000   1.0000   1.0000   1.0000   1.0000
     1.0000   1.0000   1.0000   1.0000   1.0000   1.0000   1.0000   1.0000
     1.0000   1.0000   1.0000   1.0000   1.0000   1.0000   1.0000   1.0000
     1.0000   1.0000   1.0000   1.0000   1.0000   1.0000   1.0000   1.0000
     1.0000   1.0000   1.0000   1.0000   1.0000   1.0000   1.0000   1.0000
     1.0000   1.0000   0.0000   0.0000   0.0000   0.0000   0.0000   0.0000
     0.0000   0.0000   0.0000   0.0000   0.0000   0.0000   0.0000   0.0000
     0.0000   0.0000   0.0000   0.0000   0.0000   0.0000   0.0000   0.0000
     0.0000   0.0000   0.0000   0.0000   0.0000   0.0000   0.0000   0.0000
     0.0000   0.0000   0.0000   0.0000   0.0000   0.0000   0.0000   0.0000
     0.0000   0.0000   0.0000   0.0000   0.0000   0.0000   0.0000   0.0000
     0.0000   0.0000   0.0000   0.0000   0.0000   0.0000   0.0000   0.0000
     0.0000   0.0000   0.0000   0.0000   0.0000   0.0000   0.0000   0.0000
     0.0000   0.0000   0.0000   0.0000   0.0000   0.0000   0.0000   0.0000
     0.0000   0.0000   0.0000   0.0000   0.0000   0.0000   0.0000   0.0000
     0.0000   0.0000   0.0000   0.0000   0.0000   0.0000   0.0000   0.0000
     0.0000   0.0000   0.0000   0.0000   0.0000   0.0000   0.0000   0.0000
     0.0000   0.0000   0.0000   0.0000   0.0000   0.0000   0.0000   0.0000
     0.0000   0.0000   0.0000   0.0000   0.0000   0.0000   0.0000   0.0000
     0.0000   0.0000   0.0000   0.0000   0.0000   0.0000   0.0000   0.0000
     0.0000   0.0000   0.0000   0.0000   0.0000   0.0000   0.0000   0.0000
     0.0000   0.0000   0.0000   0.0000   0.0000   0.0000   0.0000   0.0000
     0.0000   0.0000   0.0000   0.0000   0.0000   0.0000   0.0000   0.0000
     0.0000   0.0000   0.0000   0.0000   0.0000   0.0000   0.0000   0.0000
     0.0000   0.0000   0.0000   0.0000   0.0000   0.0000   0.0000   0.0000
     0.0000   0.0000   0.0000   0.0000   0.0000   0.0000   0.0000   0.0000
     0.0000   0.0000   0.0000   0.0000   0.0000   0.0000   0.0000   0.0000

          k = 0.0000 0.4705 0.4542 (  4512 PWs)   bands (ev):

   -57.9886 -57.9875 -53.4902 -53.4895 -29.0544 -29.0473 -28.9145 -28.9075
   -27.3782 -27.3633 -27.3566 -27.3554 -27.2367 -27.2233 -24.7054 -24.5942
   -24.5930 -24.5871 -24.5682 -24.5644 -10.4899 -10.3383 -10.3200 -10.2820
   -10.2142 -10.1668 -10.1162 -10.0977 -10.0922  -9.9869  -9.9606  -9.9525
    -8.2497  -7.6133  -7.6093  -7.5018  -7.4074  -7.2702  -7.0461  -6.8889
    -6.8033  -6.8033  -6.7528  -6.4845   3.6307   4.5704   4.6146   4.6658
     4.7013   5.1393   5.2719   5.6111   5.6633   5.8398   6.1620   6.2314
     6.4540   6.6371   6.6376   6.8294   6.8731   6.9075   6.9229   6.9671
     7.0843   7.1580   7.2942   7.3169   7.5463   7.5897   7.7097   7.9397
     8.0858   8.0949   8.1439   8.3451   8.4879   8.5151   8.5490   8.6615
    11.5678  11.8531  12.1341  12.2148  12.6030  12.8753  13.1093  13.2179
    13.3416  13.7375  14.1001  14.1391  14.1830  14.4261  14.6960  15.2348
    15.6676  15.9106  16.1398  16.1622  16.2569  16.3379  16.4147  16.4600
    16.6292  16.7783  16.7856  16.8739  17.1299  17.1688  17.1823  17.2912
    17.3933  17.4036  17.5050  17.5807  17.6850  17.8977  18.5555  19.2674
    19.3155  19.4274  19.6806  20.1271  20.5682  20.6011  20.6572  20.8815
    21.4468  21.8879  23.5114  23.6383  23.7523  23.8259  23.9290  24.2398
    24.2880  24.3201  24.5276  24.7900  24.9922  25.1567  25.2231  25.2293
    25.8605  26.0549  26.0852  26.2640  26.4023  26.5985  26.7197  27.0164
    27.1198  27.7869  28.0143  28.4948  28.6103  29.1858  29.3010  29.7286
    29.7792  30.0880  30.3660  30.8009  30.8816  31.2774  31.3342  31.6359
    31.8077  31.9840  32.5958  33.1764  33.3525  33.4006  33.5126  33.5671
    33.6891  34.1276  34.4747  34.5200  34.7485  34.8953  35.5015  35.5392
    35.8906  35.9752  36.2942  36.2965  36.5481  36.7062  36.8740  37.0468
    37.1597  37.4688  37.5517  37.6963  37.8142  38.0558  38.5031  38.5174
    38.7377  38.9432  39.1043  39.5985  39.5990  39.7364  40.0063  40.0923
    40.2846  40.4814  40.6465  40.8143  41.2194  41.3411  41.4241  41.5767
    41.7679  42.0268  42.3523  42.5003  42.7767  42.8938  42.9262  43.1344
    43.3052  43.5758  43.5910  43.6421  43.7520  43.9785  44.0579  44.3273
    44.4339  44.5366  44.6424  44.7018  45.0545  45.2158  45.4564  45.6117
    45.8249  45.9708  46.0982  46.1823  46.3519  46.4658  46.6214  46.8831
    46.9314  47.0487  47.1733  47.2914  47.3926  47.7842  47.8518  47.9861

     occupation numbers 
     1.0000   1.0000   1.0000   1.0000   1.0000   1.0000   1.0000   1.0000
     1.0000   1.0000   1.0000   1.0000   1.0000   1.0000   1.0000   1.0000
     1.0000   1.0000   1.0000   1.0000   1.0000   1.0000   1.0000   1.0000
     1.0000   1.0000   1.0000   1.0000   1.0000   1.0000   1.0000   1.0000
     1.0000   1.0000   1.0000   1.0000   1.0000   1.0000   1.0000   1.0000
     1.0000   1.0000   1.0000   1.0000   1.0000   1.0000   1.0000   1.0000
     1.0000   1.0000   1.0000   1.0000   1.0000   1.0000   1.0000   1.0000
     1.0000   1.0000   1.0000   1.0000   1.0000   1.0000   1.0000   1.0000
     1.0000   1.0000   1.0000   1.0000   1.0000   1.0000   1.0000   1.0000
     1.0000   1.0000   1.0000   1.0000   1.0000   1.0000   1.0000   1.0000
     1.0000   1.0000   0.0000   0.0000   0.0000   0.0000   0.0000   0.0000
     0.0000   0.0000   0.0000   0.0000   0.0000   0.0000   0.0000   0.0000
     0.0000   0.0000   0.0000   0.0000   0.0000   0.0000   0.0000   0.0000
     0.0000   0.0000   0.0000   0.0000   0.0000   0.0000   0.0000   0.0000
     0.0000   0.0000   0.0000   0.0000   0.0000   0.0000   0.0000   0.0000
     0.0000   0.0000   0.0000   0.0000   0.0000   0.0000   0.0000   0.0000
     0.0000   0.0000   0.0000   0.0000   0.0000   0.0000   0.0000   0.0000
     0.0000   0.0000   0.0000   0.0000   0.0000   0.0000   0.0000   0.0000
     0.0000   0.0000   0.0000   0.0000   0.0000   0.0000   0.0000   0.0000
     0.0000   0.0000   0.0000   0.0000   0.0000   0.0000   0.0000   0.0000
     0.0000   0.0000   0.0000   0.0000   0.0000   0.0000   0.0000   0.0000
     0.0000   0.0000   0.0000   0.0000   0.0000   0.0000   0.0000   0.0000
     0.0000   0.0000   0.0000   0.0000   0.0000   0.0000   0.0000   0.0000
     0.0000   0.0000   0.0000   0.0000   0.0000   0.0000   0.0000   0.0000
     0.0000   0.0000   0.0000   0.0000   0.0000   0.0000   0.0000   0.0000
     0.0000   0.0000   0.0000   0.0000   0.0000   0.0000   0.0000   0.0000
     0.0000   0.0000   0.0000   0.0000   0.0000   0.0000   0.0000   0.0000
     0.0000   0.0000   0.0000   0.0000   0.0000   0.0000   0.0000   0.0000
     0.0000   0.0000   0.0000   0.0000   0.0000   0.0000   0.0000   0.0000
     0.0000   0.0000   0.0000   0.0000   0.0000   0.0000   0.0000   0.0000
     0.0000   0.0000   0.0000   0.0000   0.0000   0.0000   0.0000   0.0000
     0.0000   0.0000   0.0000   0.0000   0.0000   0.0000   0.0000   0.0000

          k = 0.0000 0.4705-0.4564 (  4519 PWs)   bands (ev):

   -57.9886 -57.9875 -53.4903 -53.4895 -29.0544 -29.0473 -28.9144 -28.9076
   -27.3784 -27.3635 -27.3566 -27.3553 -27.2369 -27.2236 -24.7054 -24.5943
   -24.5931 -24.5872 -24.5681 -24.5643 -10.5229 -10.3320 -10.3209 -10.2953
   -10.1938 -10.1689 -10.0983 -10.0906 -10.0497  -9.9921  -9.9738  -9.9646
    -8.2810  -7.6220  -7.5987  -7.5114  -7.4401  -7.2113  -7.0336  -6.8878
    -6.8345  -6.7980  -6.7231  -6.5045   3.6304   4.5341   4.6662   4.6929
     4.7776   5.0396   5.2489   5.6124   5.6722   5.8488   6.1664   6.2783
     6.4408   6.4719   6.5730   6.8267   6.8631   6.8877   6.9785   7.0310
     7.1204   7.2393   7.2491   7.3593   7.3906   7.5872   7.7591   7.9970
     8.1082   8.1220   8.1500   8.2826   8.4378   8.5467   8.5668   8.6678
    11.5490  11.8579  12.1594  12.1709  12.5818  12.8596  13.1527  13.3234
    13.3296  13.7465  13.8265  14.2154  14.3472  14.3787  14.6781  15.2374
    15.8300  15.8810  15.9900  16.1883  16.2564  16.3375  16.4838  16.4968
    16.5591  16.7051  16.7583  16.8692  17.0358  17.1729  17.2272  17.4031
    17.4284  17.4550  17.5099  17.6026  17.6538  17.7236  18.5563  19.3067
    19.3276  19.4982  19.6072  20.1911  20.5464  20.6905  20.8287  20.8615
    21.3338  21.7446  23.4780  23.6894  23.7283  23.8338  23.8535  24.1698
    24.4436  24.4502  24.4788  24.7303  24.8255  24.9623  25.3672  25.5827
    25.6187  25.7327  26.0039  26.1017  26.2900  26.7480  26.9105  27.3911
    27.6461  27.7927  28.1372  28.2962  28.4069  28.7483  29.2283  29.7194
    30.1371  30.3585  30.4197  30.5611  30.8887  31.1366  31.5126  31.6693
    31.7412  31.9769  32.6035  32.7669  33.1238  33.2831  33.5080  33.6949
    33.9896  34.2476  34.6360  34.6495  34.8683  35.0969  35.2749  35.4469
    35.5101  35.7304  36.2820  36.3790  36.6618  36.7619  36.9251  37.0099
    37.1761  37.4315  37.5509  37.7675  38.0306  38.2005  38.2994  38.5740
    38.8041  38.8749  39.2211  39.4402  39.5396  39.6921  39.9075  40.1563
    40.3213  40.4380  40.5948  40.9454  41.3049  41.3370  41.5299  41.6741
    41.7950  42.1058  42.4308  42.4859  42.6778  42.7491  42.7858  42.8487
    42.9312  42.9460  43.3184  43.6734  43.9663  44.1578  44.2795  44.4151
    44.5107  44.5950  44.7921  45.1932  45.3008  45.3661  45.5084  45.6318
    45.6566  45.7094  46.1227  46.2239  46.2756  46.6416  46.6433  46.9007
    46.9613  47.0142  47.1526  47.3120  47.4264  47.5732  47.6214  47.8527

     occupation numbers 
     1.0000   1.0000   1.0000   1.0000   1.0000   1.0000   1.0000   1.0000
     1.0000   1.0000   1.0000   1.0000   1.0000   1.0000   1.0000   1.0000
     1.0000   1.0000   1.0000   1.0000   1.0000   1.0000   1.0000   1.0000
     1.0000   1.0000   1.0000   1.0000   1.0000   1.0000   1.0000   1.0000
     1.0000   1.0000   1.0000   1.0000   1.0000   1.0000   1.0000   1.0000
     1.0000   1.0000   1.0000   1.0000   1.0000   1.0000   1.0000   1.0000
     1.0000   1.0000   1.0000   1.0000   1.0000   1.0000   1.0000   1.0000
     1.0000   1.0000   1.0000   1.0000   1.0000   1.0000   1.0000   1.0000
     1.0000   1.0000   1.0000   1.0000   1.0000   1.0000   1.0000   1.0000
     1.0000   1.0000   1.0000   1.0000   1.0000   1.0000   1.0000   1.0000
     1.0000   1.0000   0.0000   0.0000   0.0000   0.0000   0.0000   0.0000
     0.0000   0.0000   0.0000   0.0000   0.0000   0.0000   0.0000   0.0000
     0.0000   0.0000   0.0000   0.0000   0.0000   0.0000   0.0000   0.0000
     0.0000   0.0000   0.0000   0.0000   0.0000   0.0000   0.0000   0.0000
     0.0000   0.0000   0.0000   0.0000   0.0000   0.0000   0.0000   0.0000
     0.0000   0.0000   0.0000   0.0000   0.0000   0.0000   0.0000   0.0000
     0.0000   0.0000   0.0000   0.0000   0.0000   0.0000   0.0000   0.0000
     0.0000   0.0000   0.0000   0.0000   0.0000   0.0000   0.0000   0.0000
     0.0000   0.0000   0.0000   0.0000   0.0000   0.0000   0.0000   0.0000
     0.0000   0.0000   0.0000   0.0000   0.0000   0.0000   0.0000   0.0000
     0.0000   0.0000   0.0000   0.0000   0.0000   0.0000   0.0000   0.0000
     0.0000   0.0000   0.0000   0.0000   0.0000   0.0000   0.0000   0.0000
     0.0000   0.0000   0.0000   0.0000   0.0000   0.0000   0.0000   0.0000
     0.0000   0.0000   0.0000   0.0000   0.0000   0.0000   0.0000   0.0000
     0.0000   0.0000   0.0000   0.0000   0.0000   0.0000   0.0000   0.0000
     0.0000   0.0000   0.0000   0.0000   0.0000   0.0000   0.0000   0.0000
     0.0000   0.0000   0.0000   0.0000   0.0000   0.0000   0.0000   0.0000
     0.0000   0.0000   0.0000   0.0000   0.0000   0.0000   0.0000   0.0000
     0.0000   0.0000   0.0000   0.0000   0.0000   0.0000   0.0000   0.0000
     0.0000   0.0000   0.0000   0.0000   0.0000   0.0000   0.0000   0.0000
     0.0000   0.0000   0.0000   0.0000   0.0000   0.0000   0.0000   0.0000
     0.0000   0.0000   0.0000   0.0000   0.0000   0.0000   0.0000   0.0000

          k = 0.3333 0.0000 0.0000 (  4520 PWs)   bands (ev):

   -57.9884 -57.9878 -53.4901 -53.4896 -29.0524 -29.0497 -28.9117 -28.9094
   -27.3744 -27.3672 -27.3560 -27.3548 -27.2341 -27.2276 -24.6759 -24.6191
   -24.5939 -24.5909 -24.5678 -24.5652 -10.3667 -10.3353 -10.3300 -10.2450
   -10.2258 -10.1895 -10.0863 -10.0474 -10.0400 -10.0074  -9.9892  -9.9744
    -8.3632  -7.8358  -7.7202  -7.4647  -7.3886  -7.3653  -6.8688  -6.8352
    -6.8188  -6.7607  -6.7366  -6.5823   4.2962   4.6060   4.6659   4.7679
     5.0568   5.0650   5.1495   5.1893   5.2090   5.7055   5.7293   5.7880
     6.0859   6.4792   6.5161   6.6383   6.7038   6.8817   7.0797   7.2251
     7.2494   7.3194   7.6045   7.7687   7.7909   8.0051   8.0706   8.1624
     8.3735   8.3993   8.4556   8.4660   8.5196   8.5906   8.6121   8.6462
    11.5491  11.5693  11.8906  11.9741  12.4580  12.6272  12.9443  13.0579
    13.5875  13.6762  13.8109  14.2457  14.3801  14.6785  14.7235  14.8662
    15.4077  15.6632  15.6689  15.8795  16.0141  16.1194  16.1903  16.4151
    16.6045  16.6647  16.7149  16.8299  17.0323  17.0501  17.0993  17.1467
    17.2263  17.3565  17.3716  17.4787  17.5895  17.6146  18.1358  19.2794
    19.5413  19.6216  19.9654  20.3819  20.7955  21.1429  21.2363  21.8485
    22.2076  22.7883  23.0501  23.2858  23.4572  23.5463  23.7177  24.0251
    24.0691  24.1807  24.2677  24.3453  24.6591  24.8585  24.8901  25.0468
    25.1415  25.8077  25.9836  26.1469  26.3197  27.1228  27.1318  27.5683
    27.6674  28.0584  28.7473  29.0820  29.2248  29.2424  29.4201  29.8568
    30.4611  30.5483  30.8437  30.9246  30.9469  31.4640  31.7013  31.7458
    32.1657  32.1763  32.4461  33.0411  33.1102  33.2265  33.5117  33.7304
    34.1165  34.1196  34.2060  34.2429  34.6882  35.0338  35.1634  35.5546
    35.7460  35.9083  35.9875  36.2253  36.4603  36.7867  37.0059  37.0449
    37.5304  37.6434  37.8890  38.1021  38.2175  38.2611  38.4348  38.6222
    38.7392  38.8952  39.0223  39.0514  39.4350  39.4805  39.5336  39.5563
    39.7224  40.1508  40.3825  40.5019  40.7084  40.9151  41.1003  41.2786
    41.5252  41.8445  41.9118  42.2082  42.2224  42.6909  42.7323  43.0108
    43.1064  43.3307  43.5457  43.7903  43.8570  43.9105  43.9949  44.0443
    44.3720  44.4730  44.6418  44.8344  44.8375  44.9379  45.1799  45.3588
    45.5455  45.6263  45.9515  46.0064  46.1880  46.4147  46.4524  46.6226
    46.7137  46.8641  46.9706  47.2955  47.6294  47.7700  47.9555  48.0721

     occupation numbers 
     1.0000   1.0000   1.0000   1.0000   1.0000   1.0000   1.0000   1.0000
     1.0000   1.0000   1.0000   1.0000   1.0000   1.0000   1.0000   1.0000
     1.0000   1.0000   1.0000   1.0000   1.0000   1.0000   1.0000   1.0000
     1.0000   1.0000   1.0000   1.0000   1.0000   1.0000   1.0000   1.0000
     1.0000   1.0000   1.0000   1.0000   1.0000   1.0000   1.0000   1.0000
     1.0000   1.0000   1.0000   1.0000   1.0000   1.0000   1.0000   1.0000
     1.0000   1.0000   1.0000   1.0000   1.0000   1.0000   1.0000   1.0000
     1.0000   1.0000   1.0000   1.0000   1.0000   1.0000   1.0000   1.0000
     1.0000   1.0000   1.0000   1.0000   1.0000   1.0000   1.0000   1.0000
     1.0000   1.0000   1.0000   1.0000   1.0000   1.0000   1.0000   1.0000
     1.0000   1.0000   0.0000   0.0000   0.0000   0.0000   0.0000   0.0000
     0.0000   0.0000   0.0000   0.0000   0.0000   0.0000   0.0000   0.0000
     0.0000   0.0000   0.0000   0.0000   0.0000   0.0000   0.0000   0.0000
     0.0000   0.0000   0.0000   0.0000   0.0000   0.0000   0.0000   0.0000
     0.0000   0.0000   0.0000   0.0000   0.0000   0.0000   0.0000   0.0000
     0.0000   0.0000   0.0000   0.0000   0.0000   0.0000   0.0000   0.0000
     0.0000   0.0000   0.0000   0.0000   0.0000   0.0000   0.0000   0.0000
     0.0000   0.0000   0.0000   0.0000   0.0000   0.0000   0.0000   0.0000
     0.0000   0.0000   0.0000   0.0000   0.0000   0.0000   0.0000   0.0000
     0.0000   0.0000   0.0000   0.0000   0.0000   0.0000   0.0000   0.0000
     0.0000   0.0000   0.0000   0.0000   0.0000   0.0000   0.0000   0.0000
     0.0000   0.0000   0.0000   0.0000   0.0000   0.0000   0.0000   0.0000
     0.0000   0.0000   0.0000   0.0000   0.0000   0.0000   0.0000   0.0000
     0.0000   0.0000   0.0000   0.0000   0.0000   0.0000   0.0000   0.0000
     0.0000   0.0000   0.0000   0.0000   0.0000   0.0000   0.0000   0.0000
     0.0000   0.0000   0.0000   0.0000   0.0000   0.0000   0.0000   0.0000
     0.0000   0.0000   0.0000   0.0000   0.0000   0.0000   0.0000   0.0000
     0.0000   0.0000   0.0000   0.0000   0.0000   0.0000   0.0000   0.0000
     0.0000   0.0000   0.0000   0.0000   0.0000   0.0000   0.0000   0.0000
     0.0000   0.0000   0.0000   0.0000   0.0000   0.0000   0.0000   0.0000
     0.0000   0.0000   0.0000   0.0000   0.0000   0.0000   0.0000   0.0000
     0.0000   0.0000   0.0000   0.0000   0.0000   0.0000   0.0000   0.0000

          k = 0.3333 0.0000 0.4553 (  4517 PWs)   bands (ev):

   -57.9883 -57.9879 -53.4900 -53.4897 -29.0525 -29.0493 -28.9124 -28.9094
   -27.3741 -27.3669 -27.3559 -27.3559 -27.2336 -27.2272 -24.6763 -24.6190
   -24.5941 -24.5913 -24.5675 -24.5656 -10.3526 -10.3085 -10.2801 -10.2103
   -10.1881 -10.1705 -10.1236 -10.1130 -10.1013 -10.0557 -10.0458  -9.9958
    -8.1821  -7.7256  -7.6064  -7.4446  -7.3482  -7.3386  -7.0729  -6.9951
    -6.8178  -6.7885  -6.7323  -6.6082   4.3110   4.8748   4.9480   5.1379
     5.1546   5.2956   5.3564   5.4097   5.4913   5.6519   5.7339   5.8349
     5.9995   6.2826   6.3010   6.4791   6.5375   6.5980   6.7414   6.9349
     7.1703   7.2006   7.2999   7.3449   7.8384   7.9131   8.0122   8.0956
     8.1478   8.2156   8.3068   8.3518   8.4256   8.5101   8.5844   8.6558
    12.0215  12.0623  12.0931  12.1178  12.5471  12.6302  13.2956  13.4839
    13.6491  13.8103  13.8569  14.0127  14.2758  14.3939  14.4019  15.0107
    15.8273  15.8810  15.9772  16.0426  16.1777  16.2644  16.3531  16.4551
    16.5627  16.6693  16.6711  16.7304  16.8479  16.9371  17.0049  17.1815
    17.3098  17.3868  17.5146  17.5397  17.5484  18.1358  18.2741  18.7788
    19.1877  19.4833  19.5209  19.8651  21.2118  21.2965  21.6626  21.9168
    22.2030  22.5423  22.9049  22.9737  23.1967  23.3537  23.4396  23.6894
    24.1529  24.3336  24.3642  24.5910  24.7457  25.1573  25.2052  25.3914
    25.6397  25.7496  26.2934  26.3814  26.7134  26.7581  27.2334  27.4044
    27.5564  27.6993  28.2110  28.4868  28.6560  29.0024  29.4422  29.5722
    29.8324  30.0341  30.4071  30.8783  31.0850  31.2856  31.6655  31.7909
    32.0951  32.3450  32.5688  32.8746  33.1511  33.2831  33.5837  33.9087
    34.0580  34.1951  34.3381  34.6393  34.8773  34.9960  35.1595  35.4653
    35.7259  35.8155  35.8933  36.2428  36.3970  36.9776  36.9976  37.3020
    37.4167  37.5915  37.7121  37.9936  38.0888  38.3409  38.3899  38.6370
    38.7741  38.9646  39.2088  39.2965  39.5647  39.6803  39.8981  39.9253
    40.1744  40.4210  40.5597  40.7956  41.0134  41.0470  41.2797  41.5254
    41.6438  41.7484  41.9720  42.0382  42.3067  42.4639  42.4789  42.8951
    43.0538  43.2253  43.5028  43.7130  43.7614  43.9862  44.0188  44.2102
    44.3001  44.5715  44.6310  44.7369  44.9947  45.1458  45.2493  45.5721
    45.6227  45.7580  45.8536  45.9459  46.1657  46.3746  46.4955  46.6935
    46.7879  46.9848  47.0546  47.2372  47.5048  47.8132  47.8489  48.0299

     occupation numbers 
     1.0000   1.0000   1.0000   1.0000   1.0000   1.0000   1.0000   1.0000
     1.0000   1.0000   1.0000   1.0000   1.0000   1.0000   1.0000   1.0000
     1.0000   1.0000   1.0000   1.0000   1.0000   1.0000   1.0000   1.0000
     1.0000   1.0000   1.0000   1.0000   1.0000   1.0000   1.0000   1.0000
     1.0000   1.0000   1.0000   1.0000   1.0000   1.0000   1.0000   1.0000
     1.0000   1.0000   1.0000   1.0000   1.0000   1.0000   1.0000   1.0000
     1.0000   1.0000   1.0000   1.0000   1.0000   1.0000   1.0000   1.0000
     1.0000   1.0000   1.0000   1.0000   1.0000   1.0000   1.0000   1.0000
     1.0000   1.0000   1.0000   1.0000   1.0000   1.0000   1.0000   1.0000
     1.0000   1.0000   1.0000   1.0000   1.0000   1.0000   1.0000   1.0000
     1.0000   1.0000   0.0000   0.0000   0.0000   0.0000   0.0000   0.0000
     0.0000   0.0000   0.0000   0.0000   0.0000   0.0000   0.0000   0.0000
     0.0000   0.0000   0.0000   0.0000   0.0000   0.0000   0.0000   0.0000
     0.0000   0.0000   0.0000   0.0000   0.0000   0.0000   0.0000   0.0000
     0.0000   0.0000   0.0000   0.0000   0.0000   0.0000   0.0000   0.0000
     0.0000   0.0000   0.0000   0.0000   0.0000   0.0000   0.0000   0.0000
     0.0000   0.0000   0.0000   0.0000   0.0000   0.0000   0.0000   0.0000
     0.0000   0.0000   0.0000   0.0000   0.0000   0.0000   0.0000   0.0000
     0.0000   0.0000   0.0000   0.0000   0.0000   0.0000   0.0000   0.0000
     0.0000   0.0000   0.0000   0.0000   0.0000   0.0000   0.0000   0.0000
     0.0000   0.0000   0.0000   0.0000   0.0000   0.0000   0.0000   0.0000
     0.0000   0.0000   0.0000   0.0000   0.0000   0.0000   0.0000   0.0000
     0.0000   0.0000   0.0000   0.0000   0.0000   0.0000   0.0000   0.0000
     0.0000   0.0000   0.0000   0.0000   0.0000   0.0000   0.0000   0.0000
     0.0000   0.0000   0.0000   0.0000   0.0000   0.0000   0.0000   0.0000
     0.0000   0.0000   0.0000   0.0000   0.0000   0.0000   0.0000   0.0000
     0.0000   0.0000   0.0000   0.0000   0.0000   0.0000   0.0000   0.0000
     0.0000   0.0000   0.0000   0.0000   0.0000   0.0000   0.0000   0.0000
     0.0000   0.0000   0.0000   0.0000   0.0000   0.0000   0.0000   0.0000
     0.0000   0.0000   0.0000   0.0000   0.0000   0.0000   0.0000   0.0000
     0.0000   0.0000   0.0000   0.0000   0.0000   0.0000   0.0000   0.0000
     0.0000   0.0000   0.0000   0.0000   0.0000   0.0000   0.0000   0.0000

          k = 0.3333 0.4705-0.0011 (  4531 PWs)   bands (ev):

   -57.9884 -57.9879 -53.4901 -53.4897 -29.0524 -29.0493 -28.9122 -28.9095
   -27.3743 -27.3667 -27.3565 -27.3563 -27.2340 -27.2270 -24.6765 -24.6191
   -24.5935 -24.5914 -24.5680 -24.5655 -10.3475 -10.3163 -10.2966 -10.2335
   -10.2109 -10.2050 -10.1466 -10.1294 -10.0784 -10.0254 -10.0118  -9.9793
    -8.1409  -7.7133  -7.5982  -7.4521  -7.3610  -7.3541  -7.0494  -6.9590
    -6.8580  -6.8067  -6.7058  -6.5887   4.3027   4.7980   4.9066   5.0940
     5.1217   5.2848   5.3624   5.4346   5.5254   5.5368   5.7324   5.8456
     5.9269   6.2132   6.3928   6.4941   6.5388   6.6803   6.8411   6.9099
     7.0882   7.1854   7.2493   7.3971   7.7663   7.9596   8.0362   8.0646
     8.1389   8.2181   8.2869   8.4349   8.4559   8.5642   8.5907   8.6510
    11.9595  11.9801  12.0903  12.1309  12.5503  12.6658  13.3356  13.4826
    13.5562  13.7261  13.8360  14.0630  14.2550  14.3606  14.4237  15.0354
    15.7129  15.8028  15.9712  16.0104  16.1929  16.3142  16.3805  16.5409
    16.6687  16.6925  16.7650  16.7994  16.9471  17.0529  17.1544  17.2657
    17.3478  17.3636  17.4669  17.6606  17.7059  17.9079  18.3105  18.8423
    19.3160  19.4459  19.6828  19.9801  20.9019  21.2322  21.3727  21.4320
    21.8803  22.1963  22.7806  23.0185  23.1299  23.2675  23.4010  23.4850
    24.0828  24.2086  24.6075  24.6901  24.8062  25.1986  25.3862  25.7941
    25.9495  26.0260  26.1481  26.2588  26.5732  26.8341  27.2562  27.3233
    27.4703  27.7149  28.0200  28.4301  28.7246  29.1093  29.3431  29.6710
    30.1833  30.3309  30.8351  30.9660  31.1247  31.3949  31.6678  31.9935
    32.2312  32.2831  32.9447  33.0070  33.1810  33.3045  33.3775  33.5538
    34.0062  34.1061  34.3016  34.4711  34.8921  35.0154  35.4328  35.5198
    35.8403  36.0209  36.0772  36.4046  36.4413  36.9282  37.0585  37.2531
    37.3516  37.3886  37.5672  37.6886  37.7923  38.0266  38.2938  38.5092
    38.7623  38.9241  39.1187  39.1372  39.4584  39.6750  39.8622  40.0046
    40.2309  40.5720  40.6567  40.6963  40.8780  40.9785  41.2791  41.3934
    41.4871  41.5786  41.8927  42.1033  42.3272  42.3955  42.5940  42.8402
    42.9790  43.1744  43.3650  43.5825  43.6258  43.7999  43.9381  44.2602
    44.4030  44.5318  44.6462  44.8072  44.8803  45.0230  45.1635  45.3693
    45.5705  45.7072  45.8921  45.9531  46.0590  46.3041  46.4308  46.5859
    46.8805  46.9442  47.1049  47.1962  47.4476  47.6677  47.8723  48.0730

     occupation numbers 
     1.0000   1.0000   1.0000   1.0000   1.0000   1.0000   1.0000   1.0000
     1.0000   1.0000   1.0000   1.0000   1.0000   1.0000   1.0000   1.0000
     1.0000   1.0000   1.0000   1.0000   1.0000   1.0000   1.0000   1.0000
     1.0000   1.0000   1.0000   1.0000   1.0000   1.0000   1.0000   1.0000
     1.0000   1.0000   1.0000   1.0000   1.0000   1.0000   1.0000   1.0000
     1.0000   1.0000   1.0000   1.0000   1.0000   1.0000   1.0000   1.0000
     1.0000   1.0000   1.0000   1.0000   1.0000   1.0000   1.0000   1.0000
     1.0000   1.0000   1.0000   1.0000   1.0000   1.0000   1.0000   1.0000
     1.0000   1.0000   1.0000   1.0000   1.0000   1.0000   1.0000   1.0000
     1.0000   1.0000   1.0000   1.0000   1.0000   1.0000   1.0000   1.0000
     1.0000   1.0000   0.0000   0.0000   0.0000   0.0000   0.0000   0.0000
     0.0000   0.0000   0.0000   0.0000   0.0000   0.0000   0.0000   0.0000
     0.0000   0.0000   0.0000   0.0000   0.0000   0.0000   0.0000   0.0000
     0.0000   0.0000   0.0000   0.0000   0.0000   0.0000   0.0000   0.0000
     0.0000   0.0000   0.0000   0.0000   0.0000   0.0000   0.0000   0.0000
     0.0000   0.0000   0.0000   0.0000   0.0000   0.0000   0.0000   0.0000
     0.0000   0.0000   0.0000   0.0000   0.0000   0.0000   0.0000   0.0000
     0.0000   0.0000   0.0000   0.0000   0.0000   0.0000   0.0000   0.0000
     0.0000   0.0000   0.0000   0.0000   0.0000   0.0000   0.0000   0.0000
     0.0000   0.0000   0.0000   0.0000   0.0000   0.0000   0.0000   0.0000
     0.0000   0.0000   0.0000   0.0000   0.0000   0.0000   0.0000   0.0000
     0.0000   0.0000   0.0000   0.0000   0.0000   0.0000   0.0000   0.0000
     0.0000   0.0000   0.0000   0.0000   0.0000   0.0000   0.0000   0.0000
     0.0000   0.0000   0.0000   0.0000   0.0000   0.0000   0.0000   0.0000
     0.0000   0.0000   0.0000   0.0000   0.0000   0.0000   0.0000   0.0000
     0.0000   0.0000   0.0000   0.0000   0.0000   0.0000   0.0000   0.0000
     0.0000   0.0000   0.0000   0.0000   0.0000   0.0000   0.0000   0.0000
     0.0000   0.0000   0.0000   0.0000   0.0000   0.0000   0.0000   0.0000
     0.0000   0.0000   0.0000   0.0000   0.0000   0.0000   0.0000   0.0000
     0.0000   0.0000   0.0000   0.0000   0.0000   0.0000   0.0000   0.0000
     0.0000   0.0000   0.0000   0.0000   0.0000   0.0000   0.0000   0.0000
     0.0000   0.0000   0.0000   0.0000   0.0000   0.0000   0.0000   0.0000

          k = 0.3333 0.4705 0.4542 (  4519 PWs)   bands (ev):

   -57.9884 -57.9878 -53.4901 -53.4897 -29.0526 -29.0491 -28.9127 -28.9093
   -27.3741 -27.3667 -27.3569 -27.3559 -27.2336 -27.2270 -24.6769 -24.6193
   -24.5933 -24.5911 -24.5673 -24.5654 -10.4387 -10.3426 -10.3084 -10.2704
   -10.2367 -10.1661 -10.1090 -10.1021 -10.0960 -10.0127  -9.9782  -9.9603
    -8.0431  -7.6350  -7.5897  -7.5312  -7.4586  -7.4044  -7.0047  -6.9132
    -6.8410  -6.7890  -6.7120  -6.5661   4.3116   4.6625   4.6810   4.8639
     4.8971   5.1624   5.2453   5.5783   5.6570   5.7278   5.8052   5.8437
     5.9910   6.4051   6.5642   6.6624   6.7124   6.8004   6.9533   7.0445
     7.1551   7.3199   7.3685   7.4855   7.5442   7.6338   7.8390   8.0104
     8.0432   8.1002   8.1254   8.1986   8.3428   8.4556   8.5633   8.6695
    11.9504  12.1033  12.1512  12.2066  12.5534  12.6037  13.2492  13.4143
    13.4437  13.8554  14.0320  14.1064  14.1886  14.3094  14.5253  14.9794
    15.8390  15.9653  16.1244  16.1843  16.2891  16.3941  16.4586  16.5461
    16.7060  16.7769  16.8024  16.9107  16.9908  17.0957  17.1989  17.2381
    17.3414  17.4241  17.4925  17.6434  17.7732  18.2834  18.5614  18.8515
    19.1148  19.3436  19.7176  19.8447  20.3177  20.5216  21.1608  21.2574
    21.7648  22.0622  23.0329  23.3303  23.5814  23.7539  23.9717  24.0755
    24.1903  24.2387  24.4049  24.5879  24.8351  25.3069  25.3767  25.4536
    25.7797  25.9315  26.0461  26.2289  26.3805  26.5421  27.0000  27.0196
    27.6102  27.9631  28.1287  28.4061  28.8335  29.0257  29.1284  29.4912
    29.9510  30.0769  30.3343  30.3991  31.0688  31.3067  31.5683  31.8969
    31.9549  32.2746  32.6095  32.8116  32.9548  33.5335  33.5872  33.8346
    34.1060  34.3672  34.4795  34.7689  34.9735  35.0903  35.2496  35.4587
    35.6009  35.7677  35.9803  36.1651  36.4705  36.7371  36.8772  37.0202
    37.2183  37.2836  37.5624  37.6135  37.9465  38.0687  38.2082  38.3769
    38.7084  38.9427  39.2474  39.2854  39.4785  39.5286  39.7786  39.9227
    40.2755  40.3803  40.5773  40.6799  41.2239  41.4401  41.6432  41.7618
    41.9838  42.0286  42.3801  42.6085  42.7431  42.8195  43.2383  43.3063
    43.3950  43.6316  43.6705  43.7657  43.9533  44.0275  44.2773  44.3644
    44.5152  44.7398  44.8717  44.9625  45.0355  45.2894  45.3361  45.4152
    45.5956  45.6397  45.7431  45.9207  46.1562  46.1986  46.3113  46.5668
    46.7530  46.9480  47.1495  47.2206  47.4919  47.5293  47.7480  47.9904

     occupation numbers 
     1.0000   1.0000   1.0000   1.0000   1.0000   1.0000   1.0000   1.0000
     1.0000   1.0000   1.0000   1.0000   1.0000   1.0000   1.0000   1.0000
     1.0000   1.0000   1.0000   1.0000   1.0000   1.0000   1.0000   1.0000
     1.0000   1.0000   1.0000   1.0000   1.0000   1.0000   1.0000   1.0000
     1.0000   1.0000   1.0000   1.0000   1.0000   1.0000   1.0000   1.0000
     1.0000   1.0000   1.0000   1.0000   1.0000   1.0000   1.0000   1.0000
     1.0000   1.0000   1.0000   1.0000   1.0000   1.0000   1.0000   1.0000
     1.0000   1.0000   1.0000   1.0000   1.0000   1.0000   1.0000   1.0000
     1.0000   1.0000   1.0000   1.0000   1.0000   1.0000   1.0000   1.0000
     1.0000   1.0000   1.0000   1.0000   1.0000   1.0000   1.0000   1.0000
     1.0000   1.0000   0.0000   0.0000   0.0000   0.0000   0.0000   0.0000
     0.0000   0.0000   0.0000   0.0000   0.0000   0.0000   0.0000   0.0000
     0.0000   0.0000   0.0000   0.0000   0.0000   0.0000   0.0000   0.0000
     0.0000   0.0000   0.0000   0.0000   0.0000   0.0000   0.0000   0.0000
     0.0000   0.0000   0.0000   0.0000   0.0000   0.0000   0.0000   0.0000
     0.0000   0.0000   0.0000   0.0000   0.0000   0.0000   0.0000   0.0000
     0.0000   0.0000   0.0000   0.0000   0.0000   0.0000   0.0000   0.0000
     0.0000   0.0000   0.0000   0.0000   0.0000   0.0000   0.0000   0.0000
     0.0000   0.0000   0.0000   0.0000   0.0000   0.0000   0.0000   0.0000
     0.0000   0.0000   0.0000   0.0000   0.0000   0.0000   0.0000   0.0000
     0.0000   0.0000   0.0000   0.0000   0.0000   0.0000   0.0000   0.0000
     0.0000   0.0000   0.0000   0.0000   0.0000   0.0000   0.0000   0.0000
     0.0000   0.0000   0.0000   0.0000   0.0000   0.0000   0.0000   0.0000
     0.0000   0.0000   0.0000   0.0000   0.0000   0.0000   0.0000   0.0000
     0.0000   0.0000   0.0000   0.0000   0.0000   0.0000   0.0000   0.0000
     0.0000   0.0000   0.0000   0.0000   0.0000   0.0000   0.0000   0.0000
     0.0000   0.0000   0.0000   0.0000   0.0000   0.0000   0.0000   0.0000
     0.0000   0.0000   0.0000   0.0000   0.0000   0.0000   0.0000   0.0000
     0.0000   0.0000   0.0000   0.0000   0.0000   0.0000   0.0000   0.0000
     0.0000   0.0000   0.0000   0.0000   0.0000   0.0000   0.0000   0.0000
     0.0000   0.0000   0.0000   0.0000   0.0000   0.0000   0.0000   0.0000
     0.0000   0.0000   0.0000   0.0000   0.0000   0.0000   0.0000   0.0000

          k = 0.3333 0.4705-0.4564 (  4523 PWs)   bands (ev):

   -57.9884 -57.9878 -53.4901 -53.4897 -29.0527 -29.0491 -28.9127 -28.9093
   -27.3743 -27.3669 -27.3566 -27.3560 -27.2338 -27.2271 -24.6769 -24.6193
   -24.5934 -24.5913 -24.5672 -24.5653 -10.4738 -10.3794 -10.2805 -10.2625
   -10.2201 -10.1619 -10.1018 -10.0846 -10.0641 -10.0155  -9.9873  -9.9749
    -8.0807  -7.7079  -7.5679  -7.4960  -7.4576  -7.3738  -6.9891  -6.8892
    -6.8494  -6.7784  -6.7250  -6.5882   4.3111   4.6850   4.7101   4.8882
     4.9441   5.0778   5.2370   5.5156   5.6784   5.7626   5.7934   5.8508
     6.0013   6.4075   6.4897   6.5969   6.7400   6.7651   6.9071   7.0975
     7.1529   7.2842   7.3886   7.4454   7.5891   7.6710   7.8841   7.9465
     8.0712   8.1545   8.1990   8.2573   8.3846   8.4340   8.5043   8.5919
    11.9352  12.1097  12.1651  12.1818  12.5344  12.6069  13.3424  13.3864
    13.4329  13.8332  13.8930  14.1436  14.3071  14.3556  14.4579  14.9598
    15.9050  15.9468  16.1034  16.2514  16.2989  16.3464  16.4840  16.5165
    16.6665  16.7317  16.8375  16.9272  16.9852  17.1060  17.1854  17.2279
    17.3156  17.4101  17.5943  17.6421  17.7985  18.0592  18.6247  18.8320
    19.1087  19.4394  19.6103  19.9567  20.4160  20.6923  20.9704  21.3187
    21.6977  22.0559  23.0777  23.2879  23.4867  23.7505  23.9341  24.0972
    24.1473  24.2806  24.3153  24.5534  24.9577  24.9870  25.2295  25.5434
    25.7858  25.8504  26.1508  26.2110  26.4245  26.9223  27.2241  27.5013
    27.7183  27.7626  27.8059  28.2994  28.6854  28.8907  29.1840  29.3879
    29.4844  30.0967  30.5233  30.8762  31.1071  31.3380  31.5784  31.7622
    32.0452  32.4144  32.6981  33.0016  33.0958  33.2446  33.5630  33.7308
    33.9837  34.2835  34.3069  34.6389  34.7811  34.9822  35.2161  35.5118
    35.7401  35.8814  35.9985  36.3326  36.5151  36.7103  36.8327  36.9981
    37.0446  37.5079  37.7261  37.8267  37.9116  37.9934  38.2894  38.4120
    38.7976  38.8735  39.0543  39.1703  39.4193  39.6189  39.7158  39.9277
    40.0788  40.5784  40.6958  40.7332  41.1726  41.2995  41.5337  41.8560
    41.9167  42.1402  42.2746  42.5306  42.7486  42.8111  43.0532  43.2104
    43.3922  43.4637  43.7063  43.7832  44.0128  44.1551  44.3284  44.4031
    44.6527  44.6678  44.7897  44.9265  45.1303  45.1951  45.3808  45.4153
    45.6524  45.7192  45.9395  46.0286  46.1742  46.3677  46.6162  46.7516
    46.7554  46.9900  47.0913  47.2275  47.4200  47.7095  47.8234  47.9081

     occupation numbers 
     1.0000   1.0000   1.0000   1.0000   1.0000   1.0000   1.0000   1.0000
     1.0000   1.0000   1.0000   1.0000   1.0000   1.0000   1.0000   1.0000
     1.0000   1.0000   1.0000   1.0000   1.0000   1.0000   1.0000   1.0000
     1.0000   1.0000   1.0000   1.0000   1.0000   1.0000   1.0000   1.0000
     1.0000   1.0000   1.0000   1.0000   1.0000   1.0000   1.0000   1.0000
     1.0000   1.0000   1.0000   1.0000   1.0000   1.0000   1.0000   1.0000
     1.0000   1.0000   1.0000   1.0000   1.0000   1.0000   1.0000   1.0000
     1.0000   1.0000   1.0000   1.0000   1.0000   1.0000   1.0000   1.0000
     1.0000   1.0000   1.0000   1.0000   1.0000   1.0000   1.0000   1.0000
     1.0000   1.0000   1.0000   1.0000   1.0000   1.0000   1.0000   1.0000
     1.0000   1.0000   0.0000   0.0000   0.0000   0.0000   0.0000   0.0000
     0.0000   0.0000   0.0000   0.0000   0.0000   0.0000   0.0000   0.0000
     0.0000   0.0000   0.0000   0.0000   0.0000   0.0000   0.0000   0.0000
     0.0000   0.0000   0.0000   0.0000   0.0000   0.0000   0.0000   0.0000
     0.0000   0.0000   0.0000   0.0000   0.0000   0.0000   0.0000   0.0000
     0.0000   0.0000   0.0000   0.0000   0.0000   0.0000   0.0000   0.0000
     0.0000   0.0000   0.0000   0.0000   0.0000   0.0000   0.0000   0.0000
     0.0000   0.0000   0.0000   0.0000   0.0000   0.0000   0.0000   0.0000
     0.0000   0.0000   0.0000   0.0000   0.0000   0.0000   0.0000   0.0000
     0.0000   0.0000   0.0000   0.0000   0.0000   0.0000   0.0000   0.0000
     0.0000   0.0000   0.0000   0.0000   0.0000   0.0000   0.0000   0.0000
     0.0000   0.0000   0.0000   0.0000   0.0000   0.0000   0.0000   0.0000
     0.0000   0.0000   0.0000   0.0000   0.0000   0.0000   0.0000   0.0000
     0.0000   0.0000   0.0000   0.0000   0.0000   0.0000   0.0000   0.0000
     0.0000   0.0000   0.0000   0.0000   0.0000   0.0000   0.0000   0.0000
     0.0000   0.0000   0.0000   0.0000   0.0000   0.0000   0.0000   0.0000
     0.0000   0.0000   0.0000   0.0000   0.0000   0.0000   0.0000   0.0000
     0.0000   0.0000   0.0000   0.0000   0.0000   0.0000   0.0000   0.0000
     0.0000   0.0000   0.0000   0.0000   0.0000   0.0000   0.0000   0.0000
     0.0000   0.0000   0.0000   0.0000   0.0000   0.0000   0.0000   0.0000
     0.0000   0.0000   0.0000   0.0000   0.0000   0.0000   0.0000   0.0000
     0.0000   0.0000   0.0000   0.0000   0.0000   0.0000   0.0000   0.0000

     highest occupied, lowest unoccupied level (ev):    12.1097   11.5267

!    total energy              =   -1375.22889090 Ry
     estimated scf accuracy    <       0.00000011 Ry

     The total energy is the sum of the following terms:
     one-electron contribution =    -360.48129304 Ry
     hartree contribution      =     264.54983581 Ry
     xc contribution           =    -261.11555659 Ry
     ewald contribution        =    -903.94116559 Ry
     one-center paw contrib.   =    -114.24071150 Ry
      -> PAW hartree energy AE =       0.00000000 Ry
      -> PAW hartree energy PS =       0.00000000 Ry
      -> PAW xc energy AE      =       0.00000000 Ry
      -> PAW xc energy PS      =       0.00000000 Ry
      -> total E_H with PAW    =     264.54983581 Ry
      -> total E_XC with PAW   =    -261.11555659 Ry

     convergence has been achieved in  13 iterations

     Writing all to output data dir bands_nm/myprefix.save/
 
     init_run     :      6.61s CPU      1.76s WALL (       1 calls)
     electrons    :    199.99s CPU     51.74s WALL (       1 calls)

     Called by init_run:
     wfcinit      :      3.58s CPU      0.92s WALL (       1 calls)
     wfcinit:atom :      0.02s CPU      0.00s WALL (       5 calls)
     wfcinit:wfcr :      3.45s CPU      0.89s WALL (       5 calls)
     potinit      :      0.48s CPU      0.12s WALL (       1 calls)
     hinit0       :      2.22s CPU      0.62s WALL (       1 calls)

     Called by electrons:
     c_bands      :    177.14s CPU     45.52s WALL (      13 calls)
     sum_band     :     17.55s CPU      4.78s WALL (      13 calls)
     v_of_rho     :      0.61s CPU      0.16s WALL (      14 calls)
     v_h          :      0.05s CPU      0.01s WALL (      14 calls)
     v_xc         :      0.57s CPU      0.15s WALL (      14 calls)
     newd         :      3.07s CPU      0.84s WALL (      14 calls)
     PAW_pot      :      1.48s CPU      0.39s WALL (      14 calls)
     mix_rho      :      0.17s CPU      0.05s WALL (      13 calls)

     Called by c_bands:
     init_us_2    :      0.38s CPU      0.10s WALL (     135 calls)
     init_us_2:cp :      0.38s CPU      0.10s WALL (     135 calls)
     cegterg      :    168.75s CPU     43.31s WALL (      65 calls)

     Called by sum_band:
     sum_band:wei :      0.00s CPU      0.00s WALL (      13 calls)
     sum_band:loo :     14.16s CPU      3.63s WALL (      13 calls)
     sum_band:buf :      0.25s CPU      0.05s WALL (      65 calls)
     sum_band:ini :      0.18s CPU      0.05s WALL (      65 calls)
     sum_band:cal :      3.88s CPU      0.98s WALL (      65 calls)
     sum_band:bec :      0.11s CPU      0.04s WALL (      65 calls)
     addusdens    :      2.89s CPU      1.02s WALL (      13 calls)
     addusd:skk   :      0.01s CPU      0.00s WALL (      52 calls)
     addusd:dgemm :      0.84s CPU      0.50s WALL (      52 calls)
     addusd:qvan2 :      1.84s CPU      0.47s WALL (      52 calls)

     Called by *egterg:
     cdiaghg      :     53.86s CPU     14.08s WALL (     221 calls)
     cegterg:over :     18.45s CPU      4.65s WALL (     156 calls)
     cegterg:upda :      9.50s CPU      2.41s WALL (     156 calls)
     cegterg:last :     19.43s CPU      4.91s WALL (     103 calls)
     cdiaghg:chol :      3.52s CPU      0.93s WALL (     221 calls)
     cdiaghg:inve :      1.16s CPU      0.30s WALL (     221 calls)
     cdiaghg:para :     12.24s CPU      3.26s WALL (     442 calls)
     h_psi        :     54.95s CPU     14.09s WALL (     226 calls)
     s_psi        :      8.43s CPU      2.13s WALL (     226 calls)
     g_psi        :      0.04s CPU      0.02s WALL (     156 calls)

     Called by h_psi:
     h_psi:calbec :      8.78s CPU      2.21s WALL (     226 calls)
     vloc_psi     :     37.58s CPU      9.67s WALL (     226 calls)
     add_vuspsi   :      8.39s CPU      2.15s WALL (     226 calls)

     General routines
     calbec       :     12.66s CPU      3.19s WALL (     291 calls)
     fft          :      0.69s CPU      0.19s WALL (     180 calls)
     ffts         :      0.02s CPU      0.01s WALL (      27 calls)
     fftw         :     44.54s CPU      9.75s WALL (   90848 calls)
     interpolate  :      0.05s CPU      0.01s WALL (      14 calls)
 
     Parallel routines

     PAW routines
     PAW_pot      :      1.48s CPU      0.39s WALL (      14 calls)
     PAW_symme    :      0.03s CPU      0.01s WALL (      27 calls)
 
     PWSCF        :   3m28.21s CPU     54.44s WALL

 
   This run was terminated on:  18:30:36  15Jul2023            

=------------------------------------------------------------------------------=
   JOB DONE.
=------------------------------------------------------------------------------=
