
     Program PWSCF v.7.1 starts on 14Jul2023 at 18: 3:24 

     This program is part of the open-source Quantum ESPRESSO suite
     for quantum simulation of materials; please cite
         "P. Giannozzi et al., J. Phys.:Condens. Matter 21 395502 (2009);
         "P. Giannozzi et al., J. Phys.:Condens. Matter 29 465901 (2017);
         "P. Giannozzi et al., J. Chem. Phys. 152 154105 (2020);
          URL http://www.quantum-espresso.org", 
     in publications or presentations arising from this work. More details at
     http://www.quantum-espresso.org/quote

     Parallel version (MPI & OpenMP), running on      32 processor cores
     Number of MPI processes:                 8
     Threads/MPI process:                     4

     MPI processes distributed on     1 nodes
     236330 MiB available memory on the printing compute node when the environment starts
 
     Reading input from espresso_14960.pwi
Warning: card &CELL ignored
Warning: card / ignored

     Current dimensions of program PWSCF are:
     Max number of different atomic species (ntypx) = 10
     Max number of k-points (npk) =  40000
     Max angular momentum in pseudopotentials (lmaxx) =  4
     Message from routine setup:
     using ibrav=0 with symmetry is DISCOURAGED, use correct ibrav instead
 
     K-points division:     npool     =       2
     R & G space division:  proc/nbgrp/npool/nimage =       4
     Subspace diagonalization in iterative solution of the eigenvalue problem:
     a serial algorithm will be used

 
     Parallelization info
     --------------------
     sticks:   dense  smooth     PW     G-vecs:    dense   smooth      PW
     Min         427     211     63                25323     8959    1423
     Max         428     212     64                25328     8970    1426
     Sum        1711     847    253               101303    35865    5697
 
     Using Slab Decomposition
 


     bravais-lattice index     =            0
     lattice parameter (alat)  =      10.1590  a.u.
     unit-cell volume          =    1614.7833 (a.u.)^3
     number of atoms/cell      =            8
     number of atomic types    =            2
     number of electrons       =        84.00
     number of Kohn-Sham states=           64
     kinetic-energy cutoff     =      30.0000  Ry
     charge density cutoff     =     240.0000  Ry
     scf convergence threshold =      1.0E-06
     mixing beta               =       0.7000
     number of iterations used =            8  plain     mixing
     Exchange-correlation=  SLA  PW   PBX  PBC
                           (   1   4   3   4   0   0   0)

     celldm(1)=  10.159011  celldm(2)=   0.000000  celldm(3)=   0.000000
     celldm(4)=   0.000000  celldm(5)=   0.000000  celldm(6)=   0.000000

     crystal axes: (cart. coord. in units of alat)
               a(1) = (   1.000000   0.000000   0.000000 )  
               a(2) = (  -0.500000   0.866025   0.000000 )  
               a(3) = (   0.000000   0.000000   1.778400 )  

     reciprocal axes: (cart. coord. in units 2 pi/alat)
               b(1) = (  1.000000  0.577351  0.000000 )  
               b(2) = (  0.000000  1.154701  0.000000 )  
               b(3) = (  0.000000  0.000000  0.562303 )  


     PseudoPot. # 1 for Na read from file:
     /lustre07/scratch/pragov/crystal_structure_design/utils/SSSP/na_pbe_v1.5.uspp.F.UPF
     MD5 check sum: 44600605ef58000f06b90626533354dc
     Pseudo is Ultrasoft, Zval =  9.0
     Generated by new atomic code, or converted to UPF format
     Using radial grid of  819 points,  5 beta functions with: 
                l(1) =   0
                l(2) =   0
                l(3) =   1
                l(4) =   1
                l(5) =   2
     Q(r) pseudized with  8 coefficients,  rinner =    1.250   1.250   1.250
                                                       1.250   1.250

     PseudoPot. # 2 for Sb read from file:
     /lustre07/scratch/pragov/crystal_structure_design/utils/SSSP/sb_pbe_v1.4.uspp.F.UPF
     MD5 check sum: 9bc50dfb53373b713f5709b9110fe27f
     Pseudo is Ultrasoft + core correction, Zval = 15.0
     Generated by new atomic code, or converted to UPF format
     Using radial grid of  891 points,  6 beta functions with: 
                l(1) =   0
                l(2) =   0
                l(3) =   1
                l(4) =   1
                l(5) =   2
                l(6) =   2
     Q(r) pseudized with  8 coefficients,  rinner =    1.350   1.350   1.350
                                                       1.350   1.350

     atomic species   valence    mass     pseudopotential
        Na             9.00    22.98977     Na( 1.00)
        Sb            15.00   121.76000     Sb( 1.00)

     24 Sym. Ops., with inversion, found (12 have fractional translation)


                                    s                        frac. trans.

      isym =  1     identity                                     

 cryst.   s( 1) = (     1          0          0      )
                  (     0          1          0      )
                  (     0          0          1      )

 cart.    s( 1) = (  1.0000000  0.0000000  0.0000000 )
                  (  0.0000000  1.0000000  0.0000000 )
                  (  0.0000000  0.0000000  1.0000000 )


      isym =  2     180 deg rotation - cart. axis [0,0,1]        

 cryst.   s( 2) = (    -1          0          0      )    f =( -0.0000000 )
                  (     0         -1          0      )       (  0.0000000 )
                  (     0          0          1      )       (  0.5000000 )

 cart.    s( 2) = ( -1.0000000  0.0000000  0.0000000 )    f =( -0.0000000 )
                  (  0.0000000 -1.0000000  0.0000000 )       (  0.0000000 )
                  (  0.0000000  0.0000000  1.0000000 )       (  0.8891999 )


      isym =  3     180 deg rotation - cart. axis [0,1,0]        

 cryst.   s( 3) = (    -1          0          0      )    f =(  0.0000010 )
                  (     1          1          0      )       (  0.0000000 )
                  (     0          0         -1      )       (  0.5000000 )

 cart.    s( 3) = ( -1.0000000 -0.0000004  0.0000000 )    f =(  0.0000010 )
                  (  0.0000000  1.0000000  0.0000000 )       (  0.0000000 )
                  (  0.0000000  0.0000000 -1.0000000 )       (  0.8891999 )


      isym =  4     180 deg rotation - cart. axis [1,0,0]        

 cryst.   s( 4) = (     1          0          0      )
                  (    -1         -1          0      )
                  (     0          0         -1      )

 cart.    s( 4) = (  1.0000000  0.0000004  0.0000000 )
                  (  0.0000000 -1.0000000  0.0000000 )
                  (  0.0000000  0.0000000 -1.0000000 )


      isym =  5      60 deg rotation - cryst. axis [0,0,1]       

 cryst.   s( 5) = (     1          1          0      )    f =(  0.0000010 )
                  (    -1          0          0      )       (  0.0000000 )
                  (     0          0          1      )       (  0.5000000 )

 cart.    s( 5) = (  0.4999998 -0.8660255  0.0000000 )    f =(  0.0000010 )
                  (  0.8660253  0.5000002  0.0000000 )       (  0.0000000 )
                  (  0.0000000  0.0000000  1.0000000 )       (  0.8891999 )


      isym =  6      60 deg rotation - cryst. axis [0,0,-1]      

 cryst.   s( 6) = (     0         -1          0      )    f =(  0.0000000 )
                  (     1          1          0      )       ( -0.0000010 )
                  (     0          0          1      )       (  0.5000000 )

 cart.    s( 6) = (  0.5000002  0.8660255  0.0000000 )    f =(  0.0000005 )
                  ( -0.8660253  0.4999998  0.0000000 )       ( -0.0000009 )
                  (  0.0000000  0.0000000  1.0000000 )       (  0.8891999 )


      isym =  7     120 deg rotation - cryst. axis [0,0,1]       

 cryst.   s( 7) = (     0          1          0      )
                  (    -1         -1          0      )
                  (     0          0          1      )

 cart.    s( 7) = ( -0.5000002 -0.8660255  0.0000000 )
                  (  0.8660253 -0.4999998  0.0000000 )
                  (  0.0000000  0.0000000  1.0000000 )


      isym =  8     120 deg rotation - cryst. axis [0,0,-1]      

 cryst.   s( 8) = (    -1         -1          0      )
                  (     1          0          0      )
                  (     0          0          1      )

 cart.    s( 8) = ( -0.4999998  0.8660255  0.0000000 )
                  ( -0.8660253 -0.5000002  0.0000000 )
                  (  0.0000000  0.0000000  1.0000000 )


      isym =  9     180 deg rotation - cryst. axis [1,-1,0]      

 cryst.   s( 9) = (     0         -1          0      )    f =(  0.0000000 )
                  (    -1          0          0      )       (  0.0000000 )
                  (     0          0         -1      )       (  0.5000000 )

 cart.    s( 9) = (  0.5000002 -0.8660253  0.0000000 )    f =(  0.0000000 )
                  ( -0.8660253 -0.5000002  0.0000000 )       (  0.0000000 )
                  (  0.0000000  0.0000000 -1.0000000 )       (  0.8891999 )


      isym = 10     180 deg rotation - cryst. axis [2,1,0]       

 cryst.   s(10) = (     1          1          0      )    f =(  0.0000000 )
                  (     0         -1          0      )       ( -0.0000010 )
                  (     0          0         -1      )       (  0.5000000 )

 cart.    s(10) = (  0.4999998  0.8660257  0.0000000 )    f =(  0.0000005 )
                  (  0.8660253 -0.4999998  0.0000000 )       ( -0.0000009 )
                  (  0.0000000  0.0000000 -1.0000000 )       (  0.8891999 )


      isym = 11     180 deg rotation - cryst. axis [0,1,0]       

 cryst.   s(11) = (    -1         -1          0      )
                  (     0          1          0      )
                  (     0          0         -1      )

 cart.    s(11) = ( -0.4999998 -0.8660257  0.0000000 )
                  ( -0.8660253  0.4999998  0.0000000 )
                  (  0.0000000  0.0000000 -1.0000000 )


      isym = 12     180 deg rotation - cryst. axis [1,1,0]       

 cryst.   s(12) = (     0          1          0      )
                  (     1          0          0      )
                  (     0          0         -1      )

 cart.    s(12) = ( -0.5000002  0.8660253  0.0000000 )
                  (  0.8660253  0.5000002  0.0000000 )
                  (  0.0000000  0.0000000 -1.0000000 )


      isym = 13     inversion                                    

 cryst.   s(13) = (    -1          0          0      )
                  (     0         -1          0      )
                  (     0          0         -1      )

 cart.    s(13) = ( -1.0000000  0.0000000  0.0000000 )
                  (  0.0000000 -1.0000000  0.0000000 )
                  (  0.0000000  0.0000000 -1.0000000 )


      isym = 14     inv. 180 deg rotation - cart. axis [0,0,1]   

 cryst.   s(14) = (     1          0          0      )    f =(  0.0000000 )
                  (     0          1          0      )       (  0.0000000 )
                  (     0          0         -1      )       (  0.5000000 )

 cart.    s(14) = (  1.0000000  0.0000000  0.0000000 )    f =(  0.0000000 )
                  (  0.0000000  1.0000000  0.0000000 )       (  0.0000000 )
                  (  0.0000000  0.0000000 -1.0000000 )       (  0.8891999 )


      isym = 15     inv. 180 deg rotation - cart. axis [0,1,0]   

 cryst.   s(15) = (     1          0          0      )    f =(  0.0000010 )
                  (    -1         -1          0      )       (  0.0000000 )
                  (     0          0          1      )       (  0.5000000 )

 cart.    s(15) = (  1.0000000  0.0000004  0.0000000 )    f =(  0.0000010 )
                  (  0.0000000 -1.0000000  0.0000000 )       (  0.0000000 )
                  (  0.0000000  0.0000000  1.0000000 )       (  0.8891999 )


      isym = 16     inv. 180 deg rotation - cart. axis [1,0,0]   

 cryst.   s(16) = (    -1          0          0      )
                  (     1          1          0      )
                  (     0          0          1      )

 cart.    s(16) = ( -1.0000000 -0.0000004  0.0000000 )
                  (  0.0000000  1.0000000  0.0000000 )
                  (  0.0000000  0.0000000  1.0000000 )


      isym = 17     inv.  60 deg rotation - cryst. axis [0,0,1]  

 cryst.   s(17) = (    -1         -1          0      )    f =(  0.0000010 )
                  (     1          0          0      )       (  0.0000000 )
                  (     0          0         -1      )       (  0.5000000 )

 cart.    s(17) = ( -0.4999998  0.8660255  0.0000000 )    f =(  0.0000010 )
                  ( -0.8660253 -0.5000002  0.0000000 )       (  0.0000000 )
                  (  0.0000000  0.0000000 -1.0000000 )       (  0.8891999 )


      isym = 18     inv.  60 deg rotation - cryst. axis [0,0,-1] 

 cryst.   s(18) = (     0          1          0      )    f =(  0.0000000 )
                  (    -1         -1          0      )       ( -0.0000010 )
                  (     0          0         -1      )       (  0.5000000 )

 cart.    s(18) = ( -0.5000002 -0.8660255  0.0000000 )    f =(  0.0000005 )
                  (  0.8660253 -0.4999998  0.0000000 )       ( -0.0000009 )
                  (  0.0000000  0.0000000 -1.0000000 )       (  0.8891999 )


      isym = 19     inv. 120 deg rotation - cryst. axis [0,0,1]  

 cryst.   s(19) = (     0         -1          0      )
                  (     1          1          0      )
                  (     0          0         -1      )

 cart.    s(19) = (  0.5000002  0.8660255  0.0000000 )
                  ( -0.8660253  0.4999998  0.0000000 )
                  (  0.0000000  0.0000000 -1.0000000 )


      isym = 20     inv. 120 deg rotation - cryst. axis [0,0,-1] 

 cryst.   s(20) = (     1          1          0      )
                  (    -1          0          0      )
                  (     0          0         -1      )

 cart.    s(20) = (  0.4999998 -0.8660255  0.0000000 )
                  (  0.8660253  0.5000002  0.0000000 )
                  (  0.0000000  0.0000000 -1.0000000 )


      isym = 21     inv. 180 deg rotation - cryst. axis [1,-1,0] 

 cryst.   s(21) = (     0          1          0      )    f =(  0.0000000 )
                  (     1          0          0      )       (  0.0000000 )
                  (     0          0          1      )       (  0.5000000 )

 cart.    s(21) = ( -0.5000002  0.8660253  0.0000000 )    f =( -0.0000000 )
                  (  0.8660253  0.5000002  0.0000000 )       (  0.0000000 )
                  (  0.0000000  0.0000000  1.0000000 )       (  0.8891999 )


      isym = 22     inv. 180 deg rotation - cryst. axis [2,1,0]  

 cryst.   s(22) = (    -1         -1          0      )    f =( -0.0000000 )
                  (     0          1          0      )       ( -0.0000010 )
                  (     0          0          1      )       (  0.5000000 )

 cart.    s(22) = ( -0.4999998 -0.8660257  0.0000000 )    f =(  0.0000005 )
                  ( -0.8660253  0.4999998  0.0000000 )       ( -0.0000009 )
                  (  0.0000000  0.0000000  1.0000000 )       (  0.8891999 )


      isym = 23     inv. 180 deg rotation - cryst. axis [0,1,0]  

 cryst.   s(23) = (     1          1          0      )
                  (     0         -1          0      )
                  (     0          0          1      )

 cart.    s(23) = (  0.4999998  0.8660257  0.0000000 )
                  (  0.8660253 -0.4999998  0.0000000 )
                  (  0.0000000  0.0000000  1.0000000 )


      isym = 24     inv. 180 deg rotation - cryst. axis [1,1,0]  

 cryst.   s(24) = (     0         -1          0      )
                  (    -1          0          0      )
                  (     0          0          1      )

 cart.    s(24) = (  0.5000002 -0.8660253  0.0000000 )
                  ( -0.8660253 -0.5000002  0.0000000 )
                  (  0.0000000  0.0000000  1.0000000 )


   Cartesian axes

     site n.     atom                  positions (alat units)
         1           Na  tau(   1) = (  -0.0000006   0.5773505   1.6315076  )
         2           Na  tau(   2) = (   0.5000004   0.2886748   0.7423077  )
         3           Na  tau(   3) = (   0.0000000   0.0000000   0.4446000  )
         4           Na  tau(   4) = (   0.0000000   0.0000000   1.3337999  )
         5           Na  tau(   5) = (  -0.0000006   0.5773505   1.0360922  )
         6           Na  tau(   6) = (   0.5000004   0.2886748   0.1468923  )
         7           Sb  tau(   7) = (   0.5000004   0.2886748   1.3337999  )
         8           Sb  tau(   8) = (  -0.0000006   0.5773505   0.4446000  )

   Crystallographic axes

     site n.     atom                  positions (cryst. coord.)
         1           Na  tau(   1) = (  0.3333330  0.6666670  0.9174020  )
         2           Na  tau(   2) = (  0.6666670  0.3333330  0.4174020  )
         3           Na  tau(   3) = (  0.0000000  0.0000000  0.2500000  )
         4           Na  tau(   4) = (  0.0000000  0.0000000  0.7500000  )
         5           Na  tau(   5) = (  0.3333330  0.6666670  0.5825980  )
         6           Na  tau(   6) = (  0.6666670  0.3333330  0.0825980  )
         7           Sb  tau(   7) = (  0.6666670  0.3333330  0.7500000  )
         8           Sb  tau(   8) = (  0.3333330  0.6666670  0.2500000  )

     number of k points=     6
                       cart. coord. in units 2pi/alat
        k(    1) = (   0.0000000   0.0000000   0.0000000), wk =   0.0740741
        k(    2) = (   0.0000000   0.0000000   0.1874344), wk =   0.1481481
        k(    3) = (   0.0000000   0.3849002   0.0000000), wk =   0.4444444
        k(    4) = (   0.0000000   0.3849002   0.1874344), wk =   0.8888889
        k(    5) = (   0.3333333   0.5773504   0.0000000), wk =   0.1481481
        k(    6) = (   0.3333333   0.5773504   0.1874344), wk =   0.2962963

                       cryst. coord.
        k(    1) = (   0.0000000   0.0000000   0.0000000), wk =   0.0740741
        k(    2) = (   0.0000000   0.0000000   0.3333333), wk =   0.1481481
        k(    3) = (   0.0000000   0.3333333   0.0000000), wk =   0.4444444
        k(    4) = (   0.0000000   0.3333333   0.3333333), wk =   0.8888889
        k(    5) = (   0.3333333   0.3333333   0.0000000), wk =   0.1481481
        k(    6) = (   0.3333333   0.3333333   0.3333333), wk =   0.2962963

     Dense  grid:   101303 G-vectors     FFT dimensions: (  54,  54,  90)

     Smooth grid:    35865 G-vectors     FFT dimensions: (  36,  36,  64)

     Dynamical RAM for                 wfc:       1.09 MB

     Dynamical RAM for     wfc (w. buffer):       4.38 MB

     Dynamical RAM for           str. fact:       0.77 MB

     Dynamical RAM for           local pot:       0.00 MB

     Dynamical RAM for          nlocal pot:       1.95 MB

     Dynamical RAM for                qrad:       2.49 MB

     Dynamical RAM for          rho,v,vnew:       2.69 MB

     Dynamical RAM for               rhoin:       0.90 MB

     Dynamical RAM for            rho*nmix:       6.18 MB

     Dynamical RAM for           G-vectors:       1.52 MB

     Dynamical RAM for          h,s,v(r/c):       0.75 MB

     Dynamical RAM for          <psi|beta>:       0.11 MB

     Dynamical RAM for                 psi:       2.19 MB

     Dynamical RAM for                hpsi:       2.19 MB

     Dynamical RAM for                spsi:       2.19 MB

     Dynamical RAM for      wfcinit/wfcrot:       2.28 MB

     Dynamical RAM for           addusdens:      37.29 MB

     Estimated static dynamical RAM per process >      18.41 MB

     Estimated max dynamical RAM per process >      61.89 MB

     Estimated total dynamical RAM >     470.39 MB

     Check: negative core charge=   -0.000004

     Initial potential from superposition of free atoms

     starting charge      81.9622, renormalised to      84.0000
     Starting wfcs are   48 randomized atomic wfcs +   16 random wfcs

     total cpu time spent up to now is        0.6 secs

     Self-consistent Calculation

     iteration #  1     ecut=    30.00 Ry     beta= 0.70
     Davidson diagonalization with overlap

---- Real-time Memory Report at c_bands before calling an iterative solver
           239 MiB given to the printing process from OS
             0 MiB allocation reported by mallinfo(arena+hblkhd)
        235959 MiB available memory on the node where the printing process lives
------------------
     ethr =  1.00E-02,  avg # of iterations =  7.0

     total cpu time spent up to now is        1.7 secs

     total energy              =    -941.76303766 Ry
     estimated scf accuracy    <       1.24845980 Ry

     iteration #  2     ecut=    30.00 Ry     beta= 0.70
     Davidson diagonalization with overlap

---- Real-time Memory Report at c_bands before calling an iterative solver
           262 MiB given to the printing process from OS
             0 MiB allocation reported by mallinfo(arena+hblkhd)
        235859 MiB available memory on the node where the printing process lives
------------------
     ethr =  1.49E-03,  avg # of iterations =  2.0

     total cpu time spent up to now is        2.4 secs

     total energy              =    -942.08822079 Ry
     estimated scf accuracy    <       0.14664304 Ry

     iteration #  3     ecut=    30.00 Ry     beta= 0.70
     Davidson diagonalization with overlap

---- Real-time Memory Report at c_bands before calling an iterative solver
           272 MiB given to the printing process from OS
             0 MiB allocation reported by mallinfo(arena+hblkhd)
        235787 MiB available memory on the node where the printing process lives
------------------
     ethr =  1.75E-04,  avg # of iterations =  2.8

     total cpu time spent up to now is        3.1 secs

     total energy              =    -942.11401572 Ry
     estimated scf accuracy    <       0.00825106 Ry

     iteration #  4     ecut=    30.00 Ry     beta= 0.70
     Davidson diagonalization with overlap

---- Real-time Memory Report at c_bands before calling an iterative solver
           273 MiB given to the printing process from OS
             0 MiB allocation reported by mallinfo(arena+hblkhd)
        235785 MiB available memory on the node where the printing process lives
------------------
     ethr =  9.82E-06,  avg # of iterations =  7.7

     total cpu time spent up to now is        3.6 secs

     total energy              =    -942.11602121 Ry
     estimated scf accuracy    <       0.00167471 Ry

     iteration #  5     ecut=    30.00 Ry     beta= 0.70
     Davidson diagonalization with overlap

---- Real-time Memory Report at c_bands before calling an iterative solver
           273 MiB given to the printing process from OS
             0 MiB allocation reported by mallinfo(arena+hblkhd)
        235784 MiB available memory on the node where the printing process lives
------------------
     ethr =  1.99E-06,  avg # of iterations =  3.0

     total cpu time spent up to now is        3.9 secs

     total energy              =    -942.11629736 Ry
     estimated scf accuracy    <       0.00000682 Ry

     iteration #  6     ecut=    30.00 Ry     beta= 0.70
     Davidson diagonalization with overlap

---- Real-time Memory Report at c_bands before calling an iterative solver
           273 MiB given to the printing process from OS
             0 MiB allocation reported by mallinfo(arena+hblkhd)
        235782 MiB available memory on the node where the printing process lives
------------------
     ethr =  8.12E-09,  avg # of iterations =  3.7

     total cpu time spent up to now is        4.3 secs

     End of self-consistent calculation

          k = 0.0000 0.0000 0.0000 (  4453 PWs)   bands (ev):

   -48.7417 -48.7388 -48.7385 -48.7361 -48.4956 -48.4952 -23.8077 -23.8012
   -23.7901 -23.7901 -23.7891 -23.7890 -23.7838 -23.7838 -23.7805 -23.7805
   -20.6625 -20.6623 -20.6623 -20.6580 -20.6580 -20.6566 -20.6476 -20.6476
   -20.6416 -20.6416 -20.6229 -20.6170 -20.4490 -20.4475 -20.3914 -20.3914
   -20.3898 -20.3898  -4.4144  -4.1908   1.2472   3.2785   3.3542   3.3543
     3.5146   3.5146   3.8753   5.3379   7.1656   7.2710   7.2710   7.6376
     7.8318   7.8318   8.4724   8.4725   8.8521   8.8523   9.1297   9.7310
    10.1293  11.5888  11.5889  11.8922  12.1472  12.3817  12.3818  12.7457

     occupation numbers 
     1.0000   1.0000   1.0000   1.0000   1.0000   1.0000   1.0000   1.0000
     1.0000   1.0000   1.0000   1.0000   1.0000   1.0000   1.0000   1.0000
     1.0000   1.0000   1.0000   1.0000   1.0000   1.0000   1.0000   1.0000
     1.0000   1.0000   1.0000   1.0000   1.0000   1.0000   1.0000   1.0000
     1.0000   1.0000   1.0000   1.0000   1.0000   1.0000   1.0000   1.0000
     1.0000   1.0000   0.0000   0.0000   0.0000   0.0000   0.0000   0.0000
     0.0000   0.0000   0.0000   0.0000   0.0000   0.0000   0.0000   0.0000
     0.0000   0.0000   0.0000   0.0000   0.0000   0.0000   0.0000   0.0000

          k = 0.0000 0.0000 0.1874 (  4496 PWs)   bands (ev):

   -48.7416 -48.7400 -48.7379 -48.7370 -48.4960 -48.4956 -23.8124 -23.8080
   -23.7976 -23.7976 -23.7919 -23.7919 -23.7839 -23.7839 -23.7828 -23.7828
   -20.6661 -20.6628 -20.6627 -20.6621 -20.6606 -20.6606 -20.6468 -20.6468
   -20.6429 -20.6428 -20.6203 -20.6199 -20.4519 -20.4492 -20.3917 -20.3917
   -20.3910 -20.3910  -4.3619  -4.2504   1.5535   2.3761   3.3932   3.3932
     3.4734   3.4734   4.7790   5.3145   7.0065   7.2369   7.2728   7.2729
     7.5055   7.5056   8.9800   8.9801   9.3646   9.5595   9.5596  10.2323
    10.2325  10.2357  10.3470  10.6850  10.9999  11.0000  13.3472  13.3902

     occupation numbers 
     1.0000   1.0000   1.0000   1.0000   1.0000   1.0000   1.0000   1.0000
     1.0000   1.0000   1.0000   1.0000   1.0000   1.0000   1.0000   1.0000
     1.0000   1.0000   1.0000   1.0000   1.0000   1.0000   1.0000   1.0000
     1.0000   1.0000   1.0000   1.0000   1.0000   1.0000   1.0000   1.0000
     1.0000   1.0000   1.0000   1.0000   1.0000   1.0000   1.0000   1.0000
     1.0000   1.0000   0.0000   0.0000   0.0000   0.0000   0.0000   0.0000
     0.0000   0.0000   0.0000   0.0000   0.0000   0.0000   0.0000   0.0000
     0.0000   0.0000   0.0000   0.0000   0.0000   0.0000   0.0000   0.0000

          k = 0.0000 0.3849 0.0000 (  4468 PWs)   bands (ev):

   -48.7408 -48.7393 -48.7383 -48.7367 -48.4956 -48.4953 -23.8095 -23.8055
   -23.7956 -23.7933 -23.7916 -23.7877 -23.7803 -23.7800 -23.7785 -23.7762
   -20.6677 -20.6666 -20.6651 -20.6602 -20.6568 -20.6536 -20.6469 -20.6460
   -20.6449 -20.6373 -20.6201 -20.6185 -20.4501 -20.4491 -20.3916 -20.3906
   -20.3899 -20.3896  -4.1953  -4.0623   1.6679   1.8333   1.9533   2.9317
     3.1039   3.2838   5.3636   5.6854   5.7305   7.0272   7.2765   7.4780
     8.1859   8.7595   8.8432   9.2433   9.3681   9.4939  10.3503  10.7828
    10.9711  11.5090  11.8437  12.3795  12.8558  12.9109  13.0943  13.3984

     occupation numbers 
     1.0000   1.0000   1.0000   1.0000   1.0000   1.0000   1.0000   1.0000
     1.0000   1.0000   1.0000   1.0000   1.0000   1.0000   1.0000   1.0000
     1.0000   1.0000   1.0000   1.0000   1.0000   1.0000   1.0000   1.0000
     1.0000   1.0000   1.0000   1.0000   1.0000   1.0000   1.0000   1.0000
     1.0000   1.0000   1.0000   1.0000   1.0000   1.0000   1.0000   1.0000
     1.0000   1.0000   0.0000   0.0000   0.0000   0.0000   0.0000   0.0000
     0.0000   0.0000   0.0000   0.0000   0.0000   0.0000   0.0000   0.0000
     0.0000   0.0000   0.0000   0.0000   0.0000   0.0000   0.0000   0.0000

          k = 0.0000 0.3849 0.1874 (  4476 PWs)   bands (ev):

   -48.7405 -48.7399 -48.7378 -48.7372 -48.4957 -48.4954 -23.8067 -23.8047
   -23.7944 -23.7929 -23.7915 -23.7911 -23.7815 -23.7813 -23.7805 -23.7802
   -20.6676 -20.6670 -20.6648 -20.6618 -20.6592 -20.6568 -20.6458 -20.6449
   -20.6434 -20.6398 -20.6184 -20.6170 -20.4497 -20.4482 -20.3922 -20.3913
   -20.3906 -20.3902  -4.1629  -4.0964   1.5715   1.6954   2.3737   2.9635
     3.0089   3.1834   5.0712   5.5012   6.4398   6.5984   7.5844   7.6506
     8.0180   8.4976   8.8681   9.2497   9.2949   9.5712   9.8072  10.8747
    11.4797  11.8949  12.4362  12.4879  12.9552  13.0311  13.1798  13.3993

     occupation numbers 
     1.0000   1.0000   1.0000   1.0000   1.0000   1.0000   1.0000   1.0000
     1.0000   1.0000   1.0000   1.0000   1.0000   1.0000   1.0000   1.0000
     1.0000   1.0000   1.0000   1.0000   1.0000   1.0000   1.0000   1.0000
     1.0000   1.0000   1.0000   1.0000   1.0000   1.0000   1.0000   1.0000
     1.0000   1.0000   1.0000   1.0000   1.0000   1.0000   1.0000   1.0000
     1.0000   1.0000   0.0000   0.0000   0.0000   0.0000   0.0000   0.0000
     0.0000   0.0000   0.0000   0.0000   0.0000   0.0000   0.0000   0.0000
     0.0000   0.0000   0.0000   0.0000   0.0000   0.0000   0.0000   0.0000

          k = 0.3333 0.5774 0.0000 (  4497 PWs)   bands (ev):

   -48.7402 -48.7401 -48.7378 -48.7377 -48.4958 -48.4955 -23.8121 -23.8119
   -23.7918 -23.7911 -23.7910 -23.7905 -23.7830 -23.7822 -23.7821 -23.7809
   -20.6692 -20.6691 -20.6667 -20.6611 -20.6532 -20.6531 -20.6499 -20.6499
   -20.6432 -20.6415 -20.6182 -20.6182 -20.4496 -20.4493 -20.3922 -20.3922
   -20.3915 -20.3915  -4.0345  -4.0345   1.7124   1.9030   1.9030   2.3392
     2.6080   2.6081   4.9213   6.9492   7.1251   7.1251   7.2376   7.2378
     8.1340   8.1341   9.0160   9.0308   9.3641   9.3642   9.7914  10.8870
    11.7474  11.7474  13.4772  13.4772  13.5753  13.5754  13.6011  13.7962

     occupation numbers 
     1.0000   1.0000   1.0000   1.0000   1.0000   1.0000   1.0000   1.0000
     1.0000   1.0000   1.0000   1.0000   1.0000   1.0000   1.0000   1.0000
     1.0000   1.0000   1.0000   1.0000   1.0000   1.0000   1.0000   1.0000
     1.0000   1.0000   1.0000   1.0000   1.0000   1.0000   1.0000   1.0000
     1.0000   1.0000   1.0000   1.0000   1.0000   1.0000   1.0000   1.0000
     1.0000   1.0000   0.0000   0.0000   0.0000   0.0000   0.0000   0.0000
     0.0000   0.0000   0.0000   0.0000   0.0000   0.0000   0.0000   0.0000
     0.0000   0.0000   0.0000   0.0000   0.0000   0.0000   0.0000   0.0000

          k = 0.3333 0.5774 0.1874 (  4503 PWs)   bands (ev):

   -48.7401 -48.7400 -48.7379 -48.7378 -48.4959 -48.4955 -23.8095 -23.8094
   -23.7955 -23.7938 -23.7937 -23.7933 -23.7814 -23.7813 -23.7813 -23.7804
   -20.6686 -20.6686 -20.6653 -20.6628 -20.6573 -20.6573 -20.6473 -20.6473
   -20.6424 -20.6421 -20.6181 -20.6181 -20.4501 -20.4496 -20.3926 -20.3926
   -20.3911 -20.3911  -4.0339  -4.0339   1.7424   1.7424   1.8343   2.1368
     2.9207   2.9207   5.3997   6.0110   6.0110   6.3971   7.9207   7.9208
     8.5851   8.7634   8.8562   8.8562   9.3950   9.3950  11.2055  11.4516
    11.5356  11.5357  12.5052  12.5052  12.9525  13.3332  13.7421  13.7422

     occupation numbers 
     1.0000   1.0000   1.0000   1.0000   1.0000   1.0000   1.0000   1.0000
     1.0000   1.0000   1.0000   1.0000   1.0000   1.0000   1.0000   1.0000
     1.0000   1.0000   1.0000   1.0000   1.0000   1.0000   1.0000   1.0000
     1.0000   1.0000   1.0000   1.0000   1.0000   1.0000   1.0000   1.0000
     1.0000   1.0000   1.0000   1.0000   1.0000   1.0000   1.0000   1.0000
     1.0000   1.0000   0.0000   0.0000   0.0000   0.0000   0.0000   0.0000
     0.0000   0.0000   0.0000   0.0000   0.0000   0.0000   0.0000   0.0000
     0.0000   0.0000   0.0000   0.0000   0.0000   0.0000   0.0000   0.0000

     highest occupied, lowest unoccupied level (ev):     3.5146    3.8753

!    total energy              =    -942.11629939 Ry
     estimated scf accuracy    <       0.00000034 Ry

     The total energy is the sum of the following terms:
     one-electron contribution =    -700.82356354 Ry
     hartree contribution      =     369.71347461 Ry
     xc contribution           =    -174.24055074 Ry
     ewald contribution        =    -436.76565973 Ry

     convergence has been achieved in   6 iterations

     Writing all to output data dir bands_nm/myprefix.save/
 
     init_run     :      1.14s CPU      0.40s WALL (       1 calls)
     electrons    :     14.53s CPU      4.90s WALL (       1 calls)

     Called by init_run:
     wfcinit      :      0.29s CPU      0.08s WALL (       1 calls)
     wfcinit:atom :      0.00s CPU      0.00s WALL (       3 calls)
     wfcinit:wfcr :      0.28s CPU      0.07s WALL (       3 calls)
     potinit      :      0.16s CPU      0.05s WALL (       1 calls)
     hinit0       :      0.49s CPU      0.21s WALL (       1 calls)

     Called by electrons:
     c_bands      :     10.75s CPU      2.77s WALL (       6 calls)
     sum_band     :      2.07s CPU      0.59s WALL (       6 calls)
     v_of_rho     :      0.31s CPU      0.08s WALL (       7 calls)
     v_h          :      0.02s CPU      0.01s WALL (       7 calls)
     v_xc         :      0.29s CPU      0.08s WALL (       7 calls)
     newd         :      1.00s CPU      0.27s WALL (       7 calls)
     mix_rho      :      0.05s CPU      0.01s WALL (       6 calls)

     Called by c_bands:
     init_us_2    :      0.04s CPU      0.01s WALL (      39 calls)
     init_us_2:cp :      0.04s CPU      0.01s WALL (      39 calls)
     cegterg      :      6.64s CPU      1.70s WALL (      18 calls)

     Called by sum_band:
     sum_band:wei :      0.00s CPU      0.00s WALL (       6 calls)
     sum_band:loo :      0.76s CPU      0.20s WALL (       6 calls)
     sum_band:buf :      0.02s CPU      0.00s WALL (      18 calls)
     sum_band:ini :      0.02s CPU      0.01s WALL (      18 calls)
     sum_band:cal :      0.13s CPU      0.03s WALL (      18 calls)
     sum_band:bec :      0.00s CPU      0.00s WALL (      18 calls)
     addusdens    :      0.69s CPU      0.23s WALL (       6 calls)
     addusd:skk   :      0.00s CPU      0.00s WALL (      12 calls)
     addusd:dgemm :      0.11s CPU      0.08s WALL (      12 calls)
     addusd:qvan2 :      0.26s CPU      0.07s WALL (      12 calls)

     Called by *egterg:
     cdiaghg      :      1.45s CPU      0.37s WALL (     100 calls)
     cegterg:over :      0.50s CPU      0.11s WALL (      82 calls)
     cegterg:upda :      0.20s CPU      0.06s WALL (      82 calls)
     cegterg:last :      0.52s CPU      0.13s WALL (      39 calls)
     h_psi        :      3.59s CPU      0.93s WALL (     103 calls)
     s_psi        :      0.32s CPU      0.09s WALL (     103 calls)
     g_psi        :      0.01s CPU      0.00s WALL (      82 calls)

     Called by h_psi:
     h_psi:calbec :      0.38s CPU      0.10s WALL (     103 calls)
     vloc_psi     :      2.91s CPU      0.74s WALL (     103 calls)
     add_vuspsi   :      0.28s CPU      0.09s WALL (     103 calls)

     General routines
     calbec       :      0.52s CPU      0.13s WALL (     121 calls)
     fft          :      0.23s CPU      0.06s WALL (      89 calls)
     ffts         :      0.01s CPU      0.00s WALL (      13 calls)
     fftw         :      3.37s CPU      0.78s WALL (    7628 calls)
     interpolate  :      0.03s CPU      0.01s WALL (       7 calls)
 
     Parallel routines
 
     PWSCF        :     16.80s CPU      6.44s WALL

 
   This run was terminated on:  18: 3:30  14Jul2023            

=------------------------------------------------------------------------------=
   JOB DONE.
=------------------------------------------------------------------------------=
