
     Program PWSCF v.7.1 starts on 12Jul2023 at 18:30:28 

     This program is part of the open-source Quantum ESPRESSO suite
     for quantum simulation of materials; please cite
         "P. Giannozzi et al., J. Phys.:Condens. Matter 21 395502 (2009);
         "P. Giannozzi et al., J. Phys.:Condens. Matter 29 465901 (2017);
         "P. Giannozzi et al., J. Chem. Phys. 152 154105 (2020);
          URL http://www.quantum-espresso.org", 
     in publications or presentations arising from this work. More details at
     http://www.quantum-espresso.org/quote

     Parallel version (MPI & OpenMP), running on      64 processor cores
     Number of MPI processes:                16
     Threads/MPI process:                     4

     MPI processes distributed on     2 nodes
     227337 MiB available memory on the printing compute node when the environment starts
 
     Reading input from espresso_23135.pwi
Warning: card &CELL ignored
Warning: card / ignored

     Current dimensions of program PWSCF are:
     Max number of different atomic species (ntypx) = 10
     Max number of k-points (npk) =  40000
     Max angular momentum in pseudopotentials (lmaxx) =  4
     Message from routine setup:
     using ibrav=0 with symmetry is DISCOURAGED, use correct ibrav instead
 
     K-points division:     npool     =       2
     R & G space division:  proc/nbgrp/npool/nimage =       8
     Subspace diagonalization in iterative solution of the eigenvalue problem:
     a serial algorithm will be used

 
     Parallelization info
     --------------------
     sticks:   dense  smooth     PW     G-vecs:    dense   smooth      PW
     Min         144      72     21                 7966     2819     475
     Max         145      73     22                 7977     2823     478
     Sum        1155     581    175                63741    22559    3819
 
     Using Slab Decomposition
 


     bravais-lattice index     =            0
     lattice parameter (alat)  =       9.2347  a.u.
     unit-cell volume          =    1015.5117 (a.u.)^3
     number of atoms/cell      =           16
     number of atomic types    =            3
     number of electrons       =        60.00
     number of Kohn-Sham states=           64
     kinetic-energy cutoff     =      30.0000  Ry
     charge density cutoff     =     240.0000  Ry
     scf convergence threshold =      1.0E-06
     mixing beta               =       0.7000
     number of iterations used =            8  plain     mixing
     Exchange-correlation= PBE
                           (   1   4   3   4   0   0   0)

     celldm(1)=   9.234690  celldm(2)=   0.000000  celldm(3)=   0.000000
     celldm(4)=   0.000000  celldm(5)=   0.000000  celldm(6)=   0.000000

     crystal axes: (cart. coord. in units of alat)
               a(1) = (   1.000000   0.000000   0.000000 )  
               a(2) = (  -0.701863   0.712312   0.000000 )  
               a(3) = (   0.000000   0.000000   1.810289 )  

     reciprocal axes: (cart. coord. in units 2 pi/alat)
               b(1) = (  1.000000  0.985332  0.000000 )  
               b(2) = (  0.000000  1.403880  0.000000 )  
               b(3) = (  0.000000  0.000000  0.552398 )  


     PseudoPot. # 1 for Li read from file:
     /lustre07/scratch/pragov/crystal_structure_design/utils/SSSP/li_pbe_v1.4.uspp.F.UPF
     MD5 check sum: e912e257baa3777c20ea3d68f190483c
     Pseudo is Ultrasoft, Zval =  3.0
     Generated by new atomic code, or converted to UPF format
     Using radial grid of  751 points,  5 beta functions with: 
                l(1) =   0
                l(2) =   0
                l(3) =   0
                l(4) =   1
                l(5) =   1
     Q(r) pseudized with 10 coefficients,  rinner =    1.150   1.150   1.150


     PseudoPot. # 2 for H  read from file:
     /lustre07/scratch/pragov/crystal_structure_design/utils/SSSP/H.pbe-rrkjus_psl.1.0.0.UPF
     MD5 check sum: f52b6d4d1c606e5624b1dc7b2218f220
     Pseudo is Ultrasoft, Zval =  1.0
     Generated using "atomic" code by A. Dal Corso  v.5.1
     Using radial grid of  929 points,  2 beta functions with: 
                l(1) =   0
                l(2) =   0
     Q(r) pseudized with 0 coefficients 


     PseudoPot. # 3 for Rh read from file:
     /lustre07/scratch/pragov/crystal_structure_design/utils/SSSP/Rh_ONCV_PBE-1.0.oncvpsp.upf
     MD5 check sum: ba07c69523b14cacd10683cd4c4284c1
     Pseudo is Norm-conserving, Zval = 17.0
     Generated using ONCVPSP code by D. R. Hamann
     Using radial grid of 1442 points,  6 beta functions with: 
                l(1) =   0
                l(2) =   0
                l(3) =   1
                l(4) =   1
                l(5) =   2
                l(6) =   2

     atomic species   valence    mass     pseudopotential
        Li             3.00     6.94000     Li( 1.00)
        H              1.00     1.00800     H ( 1.00)
        Rh            17.00   102.90550     Rh( 1.00)

      4 Sym. Ops., with inversion, found ( 2 have fractional translation)


                                    s                        frac. trans.

      isym =  1     identity                                     

 cryst.   s( 1) = (     1          0          0      )
                  (     0          1          0      )
                  (     0          0          1      )

 cart.    s( 1) = (  1.0000000 -0.0000000  0.0000000 )
                  (  0.0000000  1.0000000  0.0000000 )
                  (  0.0000000  0.0000000  1.0000000 )


      isym =  2     180 deg rotation - cart. axis [0,0,1]        

 cryst.   s( 2) = (    -1          0          0      )    f =(  0.0000000 )
                  (     0         -1          0      )       (  0.0000000 )
                  (     0          0          1      )       ( -0.5000000 )

 cart.    s( 2) = ( -1.0000000  0.0000000  0.0000000 )    f =(  0.0000000 )
                  (  0.0000000 -1.0000000  0.0000000 )       (  0.0000000 )
                  (  0.0000000  0.0000000  1.0000000 )       ( -0.9051444 )


      isym =  3     inversion                                    

 cryst.   s( 3) = (    -1          0          0      )
                  (     0         -1          0      )
                  (     0          0         -1      )

 cart.    s( 3) = ( -1.0000000  0.0000000  0.0000000 )
                  (  0.0000000 -1.0000000  0.0000000 )
                  (  0.0000000  0.0000000 -1.0000000 )


      isym =  4     inv. 180 deg rotation - cart. axis [0,0,1]   

 cryst.   s( 4) = (     1          0          0      )    f =(  0.0000000 )
                  (     0          1          0      )       (  0.0000000 )
                  (     0          0         -1      )       (  0.5000000 )

 cart.    s( 4) = (  1.0000000 -0.0000000  0.0000000 )    f =(  0.0000000 )
                  (  0.0000000  1.0000000  0.0000000 )       (  0.0000000 )
                  (  0.0000000  0.0000000 -1.0000000 )       (  0.9051444 )


   Cartesian axes

     site n.     atom                  positions (alat units)
         1           Li  tau(   1) = (  -0.4203785   0.5944968   0.7777689  )
         2           Li  tau(   2) = (   0.7185152   0.1178149   1.0325199  )
         3           Li  tau(   3) = (  -0.4203785   0.5944968   0.1273755  )
         4           Li  tau(   4) = (   0.7185152   0.1178149   1.6829133  )
         5           Li  tau(   5) = (   0.1279142   0.3650099   0.4525722  )
         6           Li  tau(   6) = (   0.1702225   0.3473018   1.3577166  )
         7           H   tau(   7) = (   0.8850340   0.0481188   0.2229751  )
         8           H   tau(   8) = (  -0.5868973   0.6641929   1.5873137  )
         9           H   tau(   9) = (   0.8850340   0.0481188   0.6821693  )
        10           H   tau(  10) = (  -0.5868973   0.6641929   1.1281195  )
        11           H   tau(  11) = (   0.4287253   0.2391059   0.7002867  )
        12           H   tau(  12) = (  -0.1305886   0.4732057   1.1100021  )
        13           H   tau(  13) = (   0.4287253   0.2391059   0.2048577  )
        14           H   tau(  14) = (  -0.1305886   0.4732057   1.6054311  )
        15           Rh  tau(  15) = (   0.6496936   0.1466201   0.4525722  )
        16           Rh  tau(  16) = (  -0.3515569   0.5656916   1.3577166  )

   Crystallographic axes

     site n.     atom                  positions (cryst. coord.)
         1           Li  tau(   1) = (  0.1653980  0.8346020  0.4296380  )
         2           Li  tau(   2) = (  0.8346020  0.1653980  0.5703620  )
         3           Li  tau(   3) = (  0.1653980  0.8346020  0.0703620  )
         4           Li  tau(   4) = (  0.8346020  0.1653980  0.9296380  )
         5           Li  tau(   5) = (  0.4875700  0.5124300  0.2500000  )
         6           Li  tau(   6) = (  0.5124300  0.4875700  0.7500000  )
         7           H   tau(   7) = (  0.9324470  0.0675530  0.1231710  )
         8           H   tau(   8) = (  0.0675530  0.9324470  0.8768290  )
         9           H   tau(   9) = (  0.9324470  0.0675530  0.3768290  )
        10           H   tau(  10) = (  0.0675530  0.9324470  0.6231710  )
        11           H   tau(  11) = (  0.6643240  0.3356760  0.3868370  )
        12           H   tau(  12) = (  0.3356760  0.6643240  0.6131630  )
        13           H   tau(  13) = (  0.6643240  0.3356760  0.1131630  )
        14           H   tau(  14) = (  0.3356760  0.6643240  0.8868370  )
        15           Rh  tau(  15) = (  0.7941630  0.2058370  0.2500000  )
        16           Rh  tau(  16) = (  0.2058370  0.7941630  0.7500000  )

     number of k points=    10
                       cart. coord. in units 2pi/alat
        k(    1) = (   0.0000000   0.0000000   0.0000000), wk =   0.0740741
        k(    2) = (   0.0000000   0.0000000   0.1841327), wk =   0.1481481
        k(    3) = (   0.0000000   0.4679599   0.0000000), wk =   0.1481481
        k(    4) = (   0.0000000   0.4679599   0.1841327), wk =   0.2962963
        k(    5) = (   0.3333333   0.3284439   0.0000000), wk =   0.1481481
        k(    6) = (   0.3333333   0.3284439   0.1841327), wk =   0.2962963
        k(    7) = (   0.3333333   0.7964038   0.0000000), wk =   0.1481481
        k(    8) = (   0.3333333   0.7964038   0.1841327), wk =   0.2962963
        k(    9) = (   0.3333333  -0.1395160   0.0000000), wk =   0.1481481
        k(   10) = (   0.3333333  -0.1395160   0.1841327), wk =   0.2962963

                       cryst. coord.
        k(    1) = (   0.0000000   0.0000000   0.0000000), wk =   0.0740741
        k(    2) = (   0.0000000   0.0000000   0.3333333), wk =   0.1481481
        k(    3) = (   0.0000000   0.3333333   0.0000000), wk =   0.1481481
        k(    4) = (   0.0000000   0.3333333   0.3333333), wk =   0.2962963
        k(    5) = (   0.3333333  -0.0000000   0.0000000), wk =   0.1481481
        k(    6) = (   0.3333333  -0.0000000   0.3333333), wk =   0.2962963
        k(    7) = (   0.3333333   0.3333333   0.0000000), wk =   0.1481481
        k(    8) = (   0.3333333   0.3333333   0.3333333), wk =   0.2962963
        k(    9) = (   0.3333333  -0.3333333   0.0000000), wk =   0.1481481
        k(   10) = (   0.3333333  -0.3333333   0.3333333), wk =   0.2962963

     Dense  grid:    63741 G-vectors     FFT dimensions: (  45,  45,  90)

     Smooth grid:    22559 G-vectors     FFT dimensions: (  36,  36,  60)

     Dynamical RAM for                 wfc:       0.34 MB

     Dynamical RAM for     wfc (w. buffer):       2.06 MB

     Dynamical RAM for           str. fact:       0.37 MB

     Dynamical RAM for           local pot:       0.00 MB

     Dynamical RAM for          nlocal pot:       0.57 MB

     Dynamical RAM for                qrad:       3.73 MB

     Dynamical RAM for          rho,v,vnew:       0.92 MB

     Dynamical RAM for               rhoin:       0.31 MB

     Dynamical RAM for            rho*nmix:       1.95 MB

     Dynamical RAM for           G-vectors:       0.48 MB

     Dynamical RAM for          h,s,v(r/c):       0.75 MB

     Dynamical RAM for          <psi|beta>:       0.10 MB

     Dynamical RAM for                 psi:       0.69 MB

     Dynamical RAM for                hpsi:       0.69 MB

     Dynamical RAM for                spsi:       0.69 MB

     Dynamical RAM for      wfcinit/wfcrot:       0.78 MB

     Dynamical RAM for           addusdens:       4.20 MB

     Estimated static dynamical RAM per process >       9.85 MB

     Estimated max dynamical RAM per process >      16.00 MB

     Estimated total dynamical RAM >     240.35 MB

     Initial potential from superposition of free atoms

     starting charge      57.2946, renormalised to      60.0000
     Starting wfcs are   58 randomized atomic wfcs +    6 random wfcs

     total cpu time spent up to now is        0.9 secs

     Self-consistent Calculation

     iteration #  1     ecut=    30.00 Ry     beta= 0.70
     Davidson diagonalization with overlap

---- Real-time Memory Report at c_bands before calling an iterative solver
           203 MiB given to the printing process from OS
             0 MiB allocation reported by mallinfo(arena+hblkhd)
        227080 MiB available memory on the node where the printing process lives
------------------
     ethr =  1.00E-02,  avg # of iterations =  7.1

     total cpu time spent up to now is        2.1 secs

     total energy              =    -527.01774806 Ry
     estimated scf accuracy    <       5.62142064 Ry

     iteration #  2     ecut=    30.00 Ry     beta= 0.70
     Davidson diagonalization with overlap

---- Real-time Memory Report at c_bands before calling an iterative solver
           210 MiB given to the printing process from OS
             0 MiB allocation reported by mallinfo(arena+hblkhd)
        227041 MiB available memory on the node where the printing process lives
------------------
     ethr =  9.37E-03,  avg # of iterations =  2.0

     total cpu time spent up to now is        3.3 secs

     total energy              =    -529.00482752 Ry
     estimated scf accuracy    <      14.19281363 Ry

     iteration #  3     ecut=    30.00 Ry     beta= 0.70
     Davidson diagonalization with overlap

---- Real-time Memory Report at c_bands before calling an iterative solver
           213 MiB given to the printing process from OS
             0 MiB allocation reported by mallinfo(arena+hblkhd)
        227010 MiB available memory on the node where the printing process lives
------------------
     ethr =  9.37E-03,  avg # of iterations =  1.9

     total cpu time spent up to now is        4.3 secs

     total energy              =    -530.33636167 Ry
     estimated scf accuracy    <       0.54961970 Ry

     iteration #  4     ecut=    30.00 Ry     beta= 0.70
     Davidson diagonalization with overlap

---- Real-time Memory Report at c_bands before calling an iterative solver
           213 MiB given to the printing process from OS
             0 MiB allocation reported by mallinfo(arena+hblkhd)
        227010 MiB available memory on the node where the printing process lives
------------------
     ethr =  9.16E-04,  avg # of iterations =  2.1

     total cpu time spent up to now is        5.6 secs

     total energy              =    -530.46795197 Ry
     estimated scf accuracy    <       0.13696010 Ry

     iteration #  5     ecut=    30.00 Ry     beta= 0.70
     Davidson diagonalization with overlap

---- Real-time Memory Report at c_bands before calling an iterative solver
           213 MiB given to the printing process from OS
             0 MiB allocation reported by mallinfo(arena+hblkhd)
        227011 MiB available memory on the node where the printing process lives
------------------
     ethr =  2.28E-04,  avg # of iterations =  4.3

     total cpu time spent up to now is        6.6 secs

     total energy              =    -530.49503760 Ry
     estimated scf accuracy    <       0.00326487 Ry

     iteration #  6     ecut=    30.00 Ry     beta= 0.70
     Davidson diagonalization with overlap

---- Real-time Memory Report at c_bands before calling an iterative solver
           213 MiB given to the printing process from OS
             0 MiB allocation reported by mallinfo(arena+hblkhd)
        227008 MiB available memory on the node where the printing process lives
------------------
     ethr =  5.44E-06,  avg # of iterations =  7.4

     total cpu time spent up to now is        9.5 secs

     total energy              =    -530.49468686 Ry
     estimated scf accuracy    <       0.00291005 Ry

     iteration #  7     ecut=    30.00 Ry     beta= 0.70
     Davidson diagonalization with overlap

---- Real-time Memory Report at c_bands before calling an iterative solver
           213 MiB given to the printing process from OS
             0 MiB allocation reported by mallinfo(arena+hblkhd)
        227010 MiB available memory on the node where the printing process lives
------------------
     ethr =  4.85E-06,  avg # of iterations =  1.0

     total cpu time spent up to now is       12.2 secs

     total energy              =    -530.49502217 Ry
     estimated scf accuracy    <       0.00004054 Ry

     iteration #  8     ecut=    30.00 Ry     beta= 0.70
     Davidson diagonalization with overlap

---- Real-time Memory Report at c_bands before calling an iterative solver
           214 MiB given to the printing process from OS
             0 MiB allocation reported by mallinfo(arena+hblkhd)
        227008 MiB available memory on the node where the printing process lives
------------------
     ethr =  6.76E-08,  avg # of iterations =  3.6

     total cpu time spent up to now is       13.9 secs

     total energy              =    -530.49503562 Ry
     estimated scf accuracy    <       0.00000159 Ry

     iteration #  9     ecut=    30.00 Ry     beta= 0.70
     Davidson diagonalization with overlap

---- Real-time Memory Report at c_bands before calling an iterative solver
           214 MiB given to the printing process from OS
             0 MiB allocation reported by mallinfo(arena+hblkhd)
        227004 MiB available memory on the node where the printing process lives
------------------
     ethr =  2.65E-09,  avg # of iterations =  3.9

     total cpu time spent up to now is       14.9 secs

     total energy              =    -530.49503549 Ry
     estimated scf accuracy    <       0.00000430 Ry

     iteration # 10     ecut=    30.00 Ry     beta= 0.70
     Davidson diagonalization with overlap

---- Real-time Memory Report at c_bands before calling an iterative solver
           214 MiB given to the printing process from OS
             0 MiB allocation reported by mallinfo(arena+hblkhd)
        227004 MiB available memory on the node where the printing process lives
------------------
     ethr =  2.65E-09,  avg # of iterations =  2.0

     total cpu time spent up to now is       16.2 secs

     End of self-consistent calculation

          k = 0.0000 0.0000 0.0000 (  2797 PWs)   bands (ev):

   -72.9424 -72.9424 -41.0541 -41.0538 -41.0077 -40.9987 -40.6626 -40.6516
   -40.6386 -40.6368 -40.4950 -40.4949 -40.4425 -40.4421  -2.4070  -1.3351
    -0.3225  -0.2546  -0.2448   2.0660   2.0873   2.2938   2.7520   2.8279
     2.8839   2.9479   3.3710   3.4052   3.5501   3.7460   7.7117   8.2491
     8.6009   9.0336   9.7331  10.1437  10.6706  11.7832  11.7999  11.9458
    12.5056  12.8316  12.9368  13.1192  13.2133  13.5040  13.6501  14.1965
    14.6065  14.6864  15.2776  15.7669  17.9718  18.1571  18.5365  18.6114
    18.6532  19.0691  19.1283  19.7860  20.5324  20.7477  21.4563  22.2576

     occupation numbers 
     1.0000   1.0000   1.0000   1.0000   1.0000   1.0000   1.0000   1.0000
     1.0000   1.0000   1.0000   1.0000   1.0000   1.0000   1.0000   1.0000
     1.0000   1.0000   1.0000   1.0000   1.0000   1.0000   1.0000   1.0000
     1.0000   1.0000   1.0000   1.0000   1.0000   1.0000   0.0000   0.0000
     0.0000   0.0000   0.0000   0.0000   0.0000   0.0000   0.0000   0.0000
     0.0000   0.0000   0.0000   0.0000   0.0000   0.0000   0.0000   0.0000
     0.0000   0.0000   0.0000   0.0000   0.0000   0.0000   0.0000   0.0000
     0.0000   0.0000   0.0000   0.0000   0.0000   0.0000   0.0000   0.0000

          k = 0.0000 0.0000 0.1841 (  2785 PWs)   bands (ev):

   -72.9424 -72.9424 -41.0540 -41.0537 -41.0053 -41.0008 -40.6598 -40.6539
   -40.6378 -40.6367 -40.4948 -40.4945 -40.4422 -40.4422  -2.2433  -1.7811
    -0.2621  -0.2592   0.3754   1.4345   2.2001   2.3157   2.7618   2.8189
     2.9075   2.9139   3.3771   3.3944   3.6000   3.6973   7.8259   7.9952
     9.1156   9.7652   9.7955  10.2911  10.4667  11.2258  11.3599  11.3611
    11.9360  12.3504  13.1660  13.1891  13.8141  13.9633  13.9730  14.0002
    14.3109  14.4940  16.5178  16.9827  17.0602  17.4850  17.7571  17.9182
    18.1306  19.4689  20.0489  20.6823  20.8347  20.9594  21.4772  21.7367

     occupation numbers 
     1.0000   1.0000   1.0000   1.0000   1.0000   1.0000   1.0000   1.0000
     1.0000   1.0000   1.0000   1.0000   1.0000   1.0000   1.0000   1.0000
     1.0000   1.0000   1.0000   1.0000   1.0000   1.0000   1.0000   1.0000
     1.0000   1.0000   1.0000   1.0000   1.0000   1.0000   0.0000   0.0000
     0.0000   0.0000   0.0000   0.0000   0.0000   0.0000   0.0000   0.0000
     0.0000   0.0000   0.0000   0.0000   0.0000   0.0000   0.0000   0.0000
     0.0000   0.0000   0.0000   0.0000   0.0000   0.0000   0.0000   0.0000
     0.0000   0.0000   0.0000   0.0000   0.0000   0.0000   0.0000   0.0000

          k = 0.0000 0.4680 0.0000 (  2823 PWs)   bands (ev):

   -72.9422 -72.9422 -41.0520 -41.0516 -41.0019 -40.9976 -40.6641 -40.6515
   -40.6513 -40.6436 -40.5227 -40.5224 -40.4149 -40.4148  -1.7791  -1.0880
    -0.5944  -0.4824   0.7146   1.2749   1.6911   2.0760   2.8327   2.9685
     3.1743   3.1851   3.1917   3.4107   3.7686   3.9316   6.7296   7.2170
     7.5293   7.9368   9.3302   9.8193  10.4004  10.7385  10.9847  11.9981
    12.1392  12.6495  12.8092  12.9881  13.7909  14.1610  15.2697  15.4301
    15.7151  16.1304  16.6074  16.8290  17.6494  18.0737  18.8908  19.0907
    19.3245  19.4528  19.9829  20.7102  20.9430  21.0670  21.6530  22.0941

     occupation numbers 
     1.0000   1.0000   1.0000   1.0000   1.0000   1.0000   1.0000   1.0000
     1.0000   1.0000   1.0000   1.0000   1.0000   1.0000   1.0000   1.0000
     1.0000   1.0000   1.0000   1.0000   1.0000   1.0000   1.0000   1.0000
     1.0000   1.0000   1.0000   1.0000   1.0000   1.0000   0.0000   0.0000
     0.0000   0.0000   0.0000   0.0000   0.0000   0.0000   0.0000   0.0000
     0.0000   0.0000   0.0000   0.0000   0.0000   0.0000   0.0000   0.0000
     0.0000   0.0000   0.0000   0.0000   0.0000   0.0000   0.0000   0.0000
     0.0000   0.0000   0.0000   0.0000   0.0000   0.0000   0.0000   0.0000

          k = 0.0000 0.4680 0.1841 (  2816 PWs)   bands (ev):

   -72.9422 -72.9422 -41.0519 -41.0517 -41.0008 -40.9987 -40.6616 -40.6563
   -40.6475 -40.6447 -40.5226 -40.5223 -40.4148 -40.4148  -1.6612  -1.3478
    -0.5085  -0.4642   0.9406   1.3293   1.5680   1.8724   2.9151   2.9678
     3.1662   3.1714   3.2529   3.3625   3.8159   3.8852   6.5819   6.9368
     7.8387   8.2183   9.5571   9.9837  10.3137  10.5003  10.9665  11.4208
    11.8615  12.4506  12.8918  13.5492  14.2789  14.6015  14.9843  15.1507
    15.7840  16.1941  16.4097  16.9789  17.6495  18.0975  18.5797  18.9002
    19.0310  19.3159  20.3185  20.4745  20.8374  21.4327  21.4936  22.0558

     occupation numbers 
     1.0000   1.0000   1.0000   1.0000   1.0000   1.0000   1.0000   1.0000
     1.0000   1.0000   1.0000   1.0000   1.0000   1.0000   1.0000   1.0000
     1.0000   1.0000   1.0000   1.0000   1.0000   1.0000   1.0000   1.0000
     1.0000   1.0000   1.0000   1.0000   1.0000   1.0000   0.0000   0.0000
     0.0000   0.0000   0.0000   0.0000   0.0000   0.0000   0.0000   0.0000
     0.0000   0.0000   0.0000   0.0000   0.0000   0.0000   0.0000   0.0000
     0.0000   0.0000   0.0000   0.0000   0.0000   0.0000   0.0000   0.0000
     0.0000   0.0000   0.0000   0.0000   0.0000   0.0000   0.0000   0.0000

          k = 0.3333 0.3284 0.0000 (  2823 PWs)   bands (ev):

   -72.9422 -72.9422 -41.0520 -41.0516 -41.0019 -40.9976 -40.6641 -40.6515
   -40.6513 -40.6436 -40.5227 -40.5224 -40.4149 -40.4148  -1.7791  -1.0880
    -0.5944  -0.4824   0.7146   1.2749   1.6911   2.0760   2.8327   2.9685
     3.1743   3.1851   3.1917   3.4107   3.7686   3.9316   6.7296   7.2170
     7.5293   7.9368   9.3302   9.8193  10.4004  10.7385  10.9847  11.9981
    12.1392  12.6495  12.8092  12.9881  13.7909  14.1610  15.2697  15.4301
    15.7151  16.1304  16.6074  16.8290  17.6494  18.0737  18.8908  19.0907
    19.3245  19.4528  19.9829  20.7102  20.9430  21.0670  21.6530  22.0941

     occupation numbers 
     1.0000   1.0000   1.0000   1.0000   1.0000   1.0000   1.0000   1.0000
     1.0000   1.0000   1.0000   1.0000   1.0000   1.0000   1.0000   1.0000
     1.0000   1.0000   1.0000   1.0000   1.0000   1.0000   1.0000   1.0000
     1.0000   1.0000   1.0000   1.0000   1.0000   1.0000   0.0000   0.0000
     0.0000   0.0000   0.0000   0.0000   0.0000   0.0000   0.0000   0.0000
     0.0000   0.0000   0.0000   0.0000   0.0000   0.0000   0.0000   0.0000
     0.0000   0.0000   0.0000   0.0000   0.0000   0.0000   0.0000   0.0000
     0.0000   0.0000   0.0000   0.0000   0.0000   0.0000   0.0000   0.0000

          k = 0.3333 0.3284 0.1841 (  2816 PWs)   bands (ev):

   -72.9422 -72.9422 -41.0519 -41.0517 -41.0008 -40.9987 -40.6616 -40.6563
   -40.6475 -40.6447 -40.5226 -40.5223 -40.4148 -40.4148  -1.6612  -1.3478
    -0.5085  -0.4642   0.9406   1.3293   1.5680   1.8724   2.9151   2.9678
     3.1662   3.1714   3.2529   3.3625   3.8159   3.8852   6.5819   6.9368
     7.8387   8.2183   9.5571   9.9837  10.3137  10.5003  10.9665  11.4208
    11.8615  12.4506  12.8918  13.5492  14.2789  14.6015  14.9843  15.1507
    15.7840  16.1941  16.4097  16.9789  17.6495  18.0975  18.5797  18.9002
    19.0310  19.3159  20.3185  20.4745  20.8374  21.4327  21.4936  22.0558

     occupation numbers 
     1.0000   1.0000   1.0000   1.0000   1.0000   1.0000   1.0000   1.0000
     1.0000   1.0000   1.0000   1.0000   1.0000   1.0000   1.0000   1.0000
     1.0000   1.0000   1.0000   1.0000   1.0000   1.0000   1.0000   1.0000
     1.0000   1.0000   1.0000   1.0000   1.0000   1.0000   0.0000   0.0000
     0.0000   0.0000   0.0000   0.0000   0.0000   0.0000   0.0000   0.0000
     0.0000   0.0000   0.0000   0.0000   0.0000   0.0000   0.0000   0.0000
     0.0000   0.0000   0.0000   0.0000   0.0000   0.0000   0.0000   0.0000
     0.0000   0.0000   0.0000   0.0000   0.0000   0.0000   0.0000   0.0000

          k = 0.3333 0.7964 0.0000 (  2812 PWs)   bands (ev):

   -72.9422 -72.9422 -41.0550 -41.0543 -41.0016 -40.9976 -40.6618 -40.6521
   -40.6502 -40.6452 -40.5213 -40.5211 -40.4140 -40.4134  -1.1031  -0.9599
    -0.9400  -0.5109   0.2272   1.2114   1.6758   1.8577   2.9057   3.0163
     3.2019   3.2942   3.3140   3.3852   3.9159   3.9528   5.8155   5.8737
     6.9756   8.4438  10.1934  10.7194  10.7712  11.0036  11.7474  12.0413
    12.3208  12.9863  13.2663  13.5106  14.9114  14.9224  15.1246  15.3218
    15.6257  16.1289  16.5168  16.8613  16.9089  17.5714  18.1264  18.3421
    18.4187  19.2774  19.7150  20.2852  20.3781  21.0460  21.6811  21.7405

     occupation numbers 
     1.0000   1.0000   1.0000   1.0000   1.0000   1.0000   1.0000   1.0000
     1.0000   1.0000   1.0000   1.0000   1.0000   1.0000   1.0000   1.0000
     1.0000   1.0000   1.0000   1.0000   1.0000   1.0000   1.0000   1.0000
     1.0000   1.0000   1.0000   1.0000   1.0000   1.0000   0.0000   0.0000
     0.0000   0.0000   0.0000   0.0000   0.0000   0.0000   0.0000   0.0000
     0.0000   0.0000   0.0000   0.0000   0.0000   0.0000   0.0000   0.0000
     0.0000   0.0000   0.0000   0.0000   0.0000   0.0000   0.0000   0.0000
     0.0000   0.0000   0.0000   0.0000   0.0000   0.0000   0.0000   0.0000

          k = 0.3333 0.7964 0.1841 (  2821 PWs)   bands (ev):

   -72.9422 -72.9422 -41.0549 -41.0546 -41.0006 -40.9986 -40.6600 -40.6553
   -40.6482 -40.6462 -40.5213 -40.5212 -40.4140 -40.4136  -1.1110  -1.0269
    -0.8211  -0.5997   0.4311   0.9015   1.7970   1.9112   2.9182   2.9872
     3.2036   3.2668   3.3331   3.3432   3.8958   3.9332   6.0197   6.0995
     7.0270   7.7111   9.9216  10.2351  10.9675  11.1813  12.4065  12.4136
    12.6643  13.2206  13.5976  14.1541  14.5572  14.6758  14.8410  15.2396
    15.4046  15.5913  16.2113  16.5029  16.7328  16.8700  17.9451  18.5364
    19.0077  19.2604  19.5608  20.2764  20.5848  20.9588  21.3934  21.5279

     occupation numbers 
     1.0000   1.0000   1.0000   1.0000   1.0000   1.0000   1.0000   1.0000
     1.0000   1.0000   1.0000   1.0000   1.0000   1.0000   1.0000   1.0000
     1.0000   1.0000   1.0000   1.0000   1.0000   1.0000   1.0000   1.0000
     1.0000   1.0000   1.0000   1.0000   1.0000   1.0000   0.0000   0.0000
     0.0000   0.0000   0.0000   0.0000   0.0000   0.0000   0.0000   0.0000
     0.0000   0.0000   0.0000   0.0000   0.0000   0.0000   0.0000   0.0000
     0.0000   0.0000   0.0000   0.0000   0.0000   0.0000   0.0000   0.0000
     0.0000   0.0000   0.0000   0.0000   0.0000   0.0000   0.0000   0.0000

          k = 0.3333-0.1395 0.0000 (  2827 PWs)   bands (ev):

   -72.9424 -72.9424 -41.0604 -41.0596 -41.0071 -40.9985 -40.6605 -40.6518
   -40.6395 -40.6386 -40.4903 -40.4901 -40.4427 -40.4423  -1.7710  -1.1273
    -0.8050  -0.5127   0.3388   1.0281   1.4370   2.5401   2.6929   2.7753
     2.8935   3.1035   3.5129   3.5329   3.5494   3.7334   5.9322   8.4501
     8.7511   9.0873  10.2961  10.4625  10.6240  10.8247  11.6761  11.7819
    12.2184  13.2142  13.9632  14.2154  14.5222  14.6033  14.7671  15.1015
    15.7033  16.0787  16.1902  17.2267  17.4252  17.8841  18.1415  18.4187
    18.6357  19.0136  19.2880  19.6410  19.7531  20.1271  20.3211  20.4381

     occupation numbers 
     1.0000   1.0000   1.0000   1.0000   1.0000   1.0000   1.0000   1.0000
     1.0000   1.0000   1.0000   1.0000   1.0000   1.0000   1.0000   1.0000
     1.0000   1.0000   1.0000   1.0000   1.0000   1.0000   1.0000   1.0000
     1.0000   1.0000   1.0000   1.0000   1.0000   1.0000   0.0000   0.0000
     0.0000   0.0000   0.0000   0.0000   0.0000   0.0000   0.0000   0.0000
     0.0000   0.0000   0.0000   0.0000   0.0000   0.0000   0.0000   0.0000
     0.0000   0.0000   0.0000   0.0000   0.0000   0.0000   0.0000   0.0000
     0.0000   0.0000   0.0000   0.0000   0.0000   0.0000   0.0000   0.0000

          k = 0.3333-0.1395 0.1841 (  2832 PWs)   bands (ev):

   -72.9424 -72.9424 -41.0602 -41.0599 -41.0050 -41.0007 -40.6588 -40.6539
   -40.6393 -40.6388 -40.4904 -40.4900 -40.4427 -40.4425  -1.6510  -1.3408
    -0.7778  -0.5740   0.5639   1.1280   1.4441   2.1274   2.7405   2.7766
     2.9973   3.0831   3.5251   3.5407   3.5774   3.6786   6.3910   7.4938
     9.0465   9.3682   9.7574   9.8376  11.1377  11.6969  11.8269  12.3144
    12.6595  13.2977  13.6994  13.8433  14.0607  14.6629  14.8150  14.8283
    15.3472  15.4888  16.0455  16.4487  17.9139  17.9771  18.2018  18.2768
    18.7422  18.7626  19.7231  19.9447  20.1753  20.3762  20.7848  21.2087

     occupation numbers 
     1.0000   1.0000   1.0000   1.0000   1.0000   1.0000   1.0000   1.0000
     1.0000   1.0000   1.0000   1.0000   1.0000   1.0000   1.0000   1.0000
     1.0000   1.0000   1.0000   1.0000   1.0000   1.0000   1.0000   1.0000
     1.0000   1.0000   1.0000   1.0000   1.0000   1.0000   0.0000   0.0000
     0.0000   0.0000   0.0000   0.0000   0.0000   0.0000   0.0000   0.0000
     0.0000   0.0000   0.0000   0.0000   0.0000   0.0000   0.0000   0.0000
     0.0000   0.0000   0.0000   0.0000   0.0000   0.0000   0.0000   0.0000
     0.0000   0.0000   0.0000   0.0000   0.0000   0.0000   0.0000   0.0000

     highest occupied, lowest unoccupied level (ev):     3.9528    5.8155

!    total energy              =    -530.49503625 Ry
     estimated scf accuracy    <       0.00000014 Ry

     The total energy is the sum of the following terms:
     one-electron contribution =    -360.67889409 Ry
     hartree contribution      =     181.40312369 Ry
     xc contribution           =     -70.30152693 Ry
     ewald contribution        =    -280.91773892 Ry

     convergence has been achieved in  10 iterations

     Writing all to output data dir bands_nm/myprefix.save/
 
     init_run     :      1.59s CPU      0.62s WALL (       1 calls)
     electrons    :     49.93s CPU     15.36s WALL (       1 calls)

     Called by init_run:
     wfcinit      :      0.78s CPU      0.20s WALL (       1 calls)
     wfcinit:atom :      0.01s CPU      0.00s WALL (       5 calls)
     wfcinit:wfcr :      0.76s CPU      0.20s WALL (       5 calls)
     potinit      :      0.23s CPU      0.06s WALL (       1 calls)
     hinit0       :      0.45s CPU      0.25s WALL (       1 calls)

     Called by electrons:
     c_bands      :     38.61s CPU     11.69s WALL (      10 calls)
     sum_band     :      7.97s CPU      2.71s WALL (      10 calls)
     v_of_rho     :      0.54s CPU      0.15s WALL (      11 calls)
     v_h          :      0.05s CPU      0.01s WALL (      11 calls)
     v_xc         :      0.50s CPU      0.13s WALL (      11 calls)
     newd         :      2.27s CPU      0.61s WALL (      11 calls)
     mix_rho      :      0.13s CPU      0.04s WALL (      10 calls)

     Called by c_bands:
     init_us_2    :      0.14s CPU      0.04s WALL (     105 calls)
     init_us_2:cp :      0.14s CPU      0.04s WALL (     105 calls)
     cegterg      :     25.41s CPU      6.61s WALL (      50 calls)

     Called by sum_band:
     sum_band:wei :      0.00s CPU      0.00s WALL (      10 calls)
     sum_band:loo :      2.86s CPU      0.75s WALL (      10 calls)
     sum_band:buf :      0.03s CPU      0.00s WALL (      50 calls)
     sum_band:ini :      0.07s CPU      0.02s WALL (      50 calls)
     sum_band:cal :      0.48s CPU      0.12s WALL (      50 calls)
     sum_band:bec :      0.01s CPU      0.01s WALL (      50 calls)
     addusdens    :      0.52s CPU      0.14s WALL (      10 calls)
     addusd:skk   :      0.00s CPU      0.00s WALL (      20 calls)
     addusd:dgemm :      0.02s CPU      0.01s WALL (      20 calls)
     addusd:qvan2 :      0.08s CPU      0.02s WALL (      20 calls)

     Called by *egterg:
     cdiaghg      :      6.72s CPU      1.77s WALL (     232 calls)
     cegterg:over :      1.74s CPU      0.41s WALL (     182 calls)
     cegterg:upda :      0.58s CPU      0.18s WALL (     182 calls)
     cegterg:last :      1.57s CPU      0.41s WALL (      97 calls)
     h_psi        :     13.22s CPU      3.48s WALL (     237 calls)
     s_psi        :      1.05s CPU      0.27s WALL (     237 calls)
     g_psi        :      0.02s CPU      0.00s WALL (     182 calls)

     Called by h_psi:
     h_psi:calbec :      1.29s CPU      0.33s WALL (     237 calls)
     vloc_psi     :     10.99s CPU      2.87s WALL (     237 calls)
     add_vuspsi   :      0.93s CPU      0.27s WALL (     237 calls)

     General routines
     calbec       :      1.76s CPU      0.45s WALL (     287 calls)
     fft          :      0.42s CPU      0.12s WALL (     140 calls)
     ffts         :      0.03s CPU      0.01s WALL (      21 calls)
     fftw         :     12.88s CPU      3.14s WALL (   18960 calls)
     interpolate  :      0.05s CPU      0.01s WALL (      11 calls)
 
     Parallel routines
 
     PWSCF        :     53.85s CPU     17.74s WALL

 
   This run was terminated on:  18:30:46  12Jul2023            

=------------------------------------------------------------------------------=
   JOB DONE.
=------------------------------------------------------------------------------=
