
     Program PWSCF v.7.1 starts on 15Jul2023 at 14:21: 3 

     This program is part of the open-source Quantum ESPRESSO suite
     for quantum simulation of materials; please cite
         "P. Giannozzi et al., J. Phys.:Condens. Matter 21 395502 (2009);
         "P. Giannozzi et al., J. Phys.:Condens. Matter 29 465901 (2017);
         "P. Giannozzi et al., J. Chem. Phys. 152 154105 (2020);
          URL http://www.quantum-espresso.org", 
     in publications or presentations arising from this work. More details at
     http://www.quantum-espresso.org/quote

     Parallel version (MPI & OpenMP), running on      32 processor cores
     Number of MPI processes:                 8
     Threads/MPI process:                     4

     MPI processes distributed on     1 nodes
     190648 MiB available memory on the printing compute node when the environment starts
 
     Reading input from espresso_7114.pwi
Warning: card &CELL ignored
Warning: card / ignored

     Current dimensions of program PWSCF are:
     Max number of different atomic species (ntypx) = 10
     Max number of k-points (npk) =  40000
     Max angular momentum in pseudopotentials (lmaxx) =  4
     file O.pbe-n-kjpaw_psl.0.1.UPF: wavefunction(s)  2P renormalized
     Message from routine setup:
     the system is metallic, specify occupations
 
     K-points division:     npool     =       2
     R & G space division:  proc/nbgrp/npool/nimage =       4
     Subspace diagonalization in iterative solution of the eigenvalue problem:
     a serial algorithm will be used

 
     Parallelization info
     --------------------
     sticks:   dense  smooth     PW     G-vecs:    dense   smooth      PW
     Min         493     247     70                25941     9179    1398
     Max         494     248     71                25946     9182    1399
     Sum        1975     991    283               103771    36721    5593
 
     Using Slab Decomposition
 


     bravais-lattice index     =            0
     lattice parameter (alat)  =       9.1898  a.u.
     unit-cell volume          =    1652.7536 (a.u.)^3
     number of atoms/cell      =           19
     number of atomic types    =            5
     number of electrons       =       101.00 (up:  53.00, down:  48.00)
     number of Kohn-Sham states=           64
     kinetic-energy cutoff     =      30.0000  Ry
     charge density cutoff     =     240.0000  Ry
     scf convergence threshold =      1.0E-06
     mixing beta               =       0.7000
     number of iterations used =            8  plain     mixing
     Exchange-correlation= SLA  PW   PBX  PBC
                           (   1   4   3   4   0   0   0)

     celldm(1)=   9.189846  celldm(2)=   0.000000  celldm(3)=   0.000000
     celldm(4)=   0.000000  celldm(5)=   0.000000  celldm(6)=   0.000000

     crystal axes: (cart. coord. in units of alat)
               a(1) = (   1.000000   0.000000   0.000000 )  
               a(2) = (  -0.094344   1.226969   0.000000 )  
               a(3) = (  -0.186328  -0.458792   1.735601 )  

     reciprocal axes: (cart. coord. in units 2 pi/alat)
               b(1) = (  1.000000  0.076892  0.127682 )  
               b(2) = (  0.000000  0.815017  0.215443 )  
               b(3) = (  0.000000  0.000000  0.576169 )  


     PseudoPot. # 1 for Cs read from file:
     /lustre07/scratch/pragov/crystal_structure_design/utils/SSSP/Cs_pbe_v1.uspp.F.UPF
     MD5 check sum: 3476d69cb178dfad3ffaa59df4e07ca4
     Pseudo is Ultrasoft + core correction, Zval =  9.0
     Generated by new atomic code, or converted to UPF format
     Using radial grid of  905 points,  6 beta functions with: 
                l(1) =   0
                l(2) =   0
                l(3) =   1
                l(4) =   1
                l(5) =   2
                l(6) =   2
     Q(r) pseudized with  6 coefficients,  rinner =    1.500   1.500   1.500
                                                       1.500   1.500

     PseudoPot. # 2 for Mn read from file:
     /lustre07/scratch/pragov/crystal_structure_design/utils/SSSP/mn_pbe_v1.5.uspp.F.UPF
     MD5 check sum: 82ef2b46521d7a7d9e736dc3972e4928
     Pseudo is Ultrasoft + core correction, Zval = 15.0
     Generated by new atomic code, or converted to UPF format
     Using radial grid of  859 points,  6 beta functions with: 
                l(1) =   0
                l(2) =   0
                l(3) =   1
                l(4) =   1
                l(5) =   2
                l(6) =   2
     Q(r) pseudized with  8 coefficients,  rinner =    0.950   0.950   0.950
                                                       0.950   0.950

     PseudoPot. # 3 for H  read from file:
     /lustre07/scratch/pragov/crystal_structure_design/utils/SSSP/H.pbe-rrkjus_psl.1.0.0.UPF
     MD5 check sum: f52b6d4d1c606e5624b1dc7b2218f220
     Pseudo is Ultrasoft, Zval =  1.0
     Generated using "atomic" code by A. Dal Corso  v.5.1
     Using radial grid of  929 points,  2 beta functions with: 
                l(1) =   0
                l(2) =   0
     Q(r) pseudized with 0 coefficients 


     PseudoPot. # 4 for S  read from file:
     /lustre07/scratch/pragov/crystal_structure_design/utils/SSSP/s_pbe_v1.4.uspp.F.UPF
     MD5 check sum: 88d86576ff6df21479756cfb9bdac1df
     Pseudo is Ultrasoft + core correction, Zval =  6.0
     Generated by new atomic code, or converted to UPF format
     Using radial grid of  907 points,  6 beta functions with: 
                l(1) =   0
                l(2) =   0
                l(3) =   1
                l(4) =   1
                l(5) =   2
                l(6) =   2
     Q(r) pseudized with  8 coefficients,  rinner =    1.300   1.300   1.300
                                                       1.300   1.300

     PseudoPot. # 5 for O  read from file:
     /lustre07/scratch/pragov/crystal_structure_design/utils/SSSP/O.pbe-n-kjpaw_psl.0.1.UPF
     MD5 check sum: 0234752ac141de4415c5fc33072bef88
     Pseudo is Projector augmented-wave + core cor, Zval =  6.0
     Generated using "atomic" code by A. Dal Corso  v.5.0.99 svn rev. 10869
     Shape of augmentation charge: BESSEL
     Using radial grid of 1095 points,  4 beta functions with: 
                l(1) =   0
                l(2) =   0
                l(3) =   1
                l(4) =   1
     Q(r) pseudized with 0 coefficients 


     atomic species   valence    mass     pseudopotential
        Cs             9.00   132.90545     Cs( 1.00)
        Mn            15.00    54.93804     Mn( 1.00)
        H              1.00     1.00800     H ( 1.00)
        S              6.00    32.06000     S ( 1.00)
        O              6.00    15.99900     O ( 1.00)

     Starting magnetic structure 
     atomic species   magnetization
        Cs           0.000
        Mn           0.000
        H            0.000
        S            0.000
        O            0.000

     No symmetry found


                                    s                        frac. trans.

      isym =  1     identity                                     

 cryst.   s( 1) = (     1          0          0      )
                  (     0          1          0      )
                  (     0          0          1      )

 cart.    s( 1) = (  1.0000000  0.0000000 -0.0000000 )
                  (  0.0000000  1.0000000  0.0000000 )
                  (  0.0000000  0.0000000  1.0000000 )


   Cartesian axes

     site n.     atom                  positions (alat units)
         1           Cs  tau(   1) = (   0.9064234  -0.2212208   0.8582615  )
         2           Mn  tau(   2) = (  -0.0013337   0.0046855   0.0109135  )
         3           H   tau(   3) = (   0.4671516  -0.0543244   1.4686810  )
         4           H   tau(   4) = (   0.2525367   0.8192028   0.2714549  )
         5           H   tau(   5) = (   0.7758446   0.0455419   1.4510906  )
         6           H   tau(   6) = (  -0.0585562   0.7189425   0.2848173  )
         7           H   tau(   7) = (   0.3536458   0.4139873   0.8981647  )
         8           S   tau(   8) = (   0.2239768   0.4907755   1.3333666  )
         9           S   tau(   9) = (   0.4936284   0.2799523   0.4127779  )
        10           O   tau(  10) = (   0.0347108   0.7115361   1.4190341  )
        11           O   tau(  11) = (   0.6841880   0.0566231   0.3222854  )
        12           O   tau(  12) = (   0.0961574   0.2182448   1.3070583  )
        13           O   tau(  13) = (   0.6277137   0.5529607   0.4195485  )
        14           O   tau(  14) = (   0.4690295   0.4794254   1.5108543  )
        15           O   tau(  15) = (   0.2537737   0.2936713   0.2224762  )
        16           O   tau(  16) = (   0.3183129   0.5815561   1.0375595  )
        17           O   tau(  17) = (   0.3985377   0.2028271   0.6985810  )
        18           O   tau(  18) = (   0.6579251  -0.1187292   1.4655846  )
        19           O   tau(  19) = (   0.0613527   0.8822927   0.2643424  )

   Crystallographic axes

     site n.     atom                  positions (cryst. coord.)
         1           Cs  tau(   1) = (  0.9989980  0.0046080  0.4945040  )
         2           Mn  tau(   2) = (  0.0004200  0.0061700  0.0062880  )
         3           H   tau(   3) = (  0.6504990  0.2721420  0.8462090  )
         4           H   tau(   4) = (  0.3501870  0.7261470  0.1564040  )
         5           H   tau(   5) = (  0.9646250  0.3497450  0.8360740  )
         6           H   tau(   6) = (  0.0330910  0.6473120  0.1641030  )
         7           H   tau(   7) = (  0.5001580  0.5309100  0.5174950  )
         8           S   tau(   8) = (  0.4319610  0.6872550  0.7682450  )
         9           S   tau(   9) = (  0.5678590  0.3170960  0.2378300  )
        10           O   tau(  10) = (  0.2706080  0.8856350  0.8176040  )
        11           O   tau(  11) = (  0.7296920  0.1155830  0.1856910  )
        12           O   tau(  12) = (  0.2798270  0.4594700  0.7530870  )
        13           O   tau(  13) = (  0.7238010  0.5410610  0.2417310  )
        14           O   tau(  14) = (  0.6988030  0.7162430  0.8705080  )
        15           O   tau(  15) = (  0.3047610  0.2872780  0.1281840  )
        16           O   tau(  16) = (  0.4955080  0.6975130  0.5978100  )
        17           O   tau(  17) = (  0.5033300  0.3158120  0.4025010  )
        18           O   tau(  18) = (  0.8359250  0.2189840  0.8444250  )
        19           O   tau(  19) = (  0.1629460  0.7760340  0.1523060  )

     number of k points=    14
                       cart. coord. in units 2pi/alat
        k(    1) = (   0.0000000   0.0000000   0.0000000), wk =   0.0370370
        k(    2) = (   0.0000000   0.0000000   0.1920565), wk =   0.0740741
        k(    3) = (   0.0000000   0.2716722   0.0718144), wk =   0.0740741
        k(    4) = (   0.0000000   0.2716722   0.2638709), wk =   0.0740741
        k(    5) = (   0.0000000   0.2716722  -0.1202421), wk =   0.0740741
        k(    6) = (   0.3333333   0.0256307   0.0425608), wk =   0.0740741
        k(    7) = (   0.3333333   0.0256307   0.2346172), wk =   0.0740741
        k(    8) = (   0.3333333   0.0256307  -0.1494957), wk =   0.0740741
        k(    9) = (   0.3333333   0.2973030   0.1143752), wk =   0.0740741
        k(   10) = (   0.3333333   0.2973030   0.3064316), wk =   0.0740741
        k(   11) = (   0.3333333   0.2973030  -0.0776813), wk =   0.0740741
        k(   12) = (   0.3333333  -0.2460415  -0.0292536), wk =   0.0740741
        k(   13) = (   0.3333333  -0.2460415   0.1628028), wk =   0.0740741
        k(   14) = (   0.3333333  -0.2460415  -0.2213101), wk =   0.0740741

                       cryst. coord.
        k(    1) = (   0.0000000   0.0000000   0.0000000), wk =   0.0370370
        k(    2) = (   0.0000000   0.0000000   0.3333333), wk =   0.0740741
        k(    3) = (   0.0000000   0.3333333  -0.0000000), wk =   0.0740741
        k(    4) = (   0.0000000   0.3333333   0.3333333), wk =   0.0740741
        k(    5) = (   0.0000000   0.3333333  -0.3333333), wk =   0.0740741
        k(    6) = (   0.3333333   0.0000000  -0.0000000), wk =   0.0740741
        k(    7) = (   0.3333333   0.0000000   0.3333333), wk =   0.0740741
        k(    8) = (   0.3333333   0.0000000  -0.3333333), wk =   0.0740741
        k(    9) = (   0.3333333   0.3333333  -0.0000000), wk =   0.0740741
        k(   10) = (   0.3333333   0.3333333   0.3333333), wk =   0.0740741
        k(   11) = (   0.3333333   0.3333333  -0.3333333), wk =   0.0740741
        k(   12) = (   0.3333333  -0.3333333  -0.0000000), wk =   0.0740741
        k(   13) = (   0.3333333  -0.3333333   0.3333333), wk =   0.0740741
        k(   14) = (   0.3333333  -0.3333333  -0.3333333), wk =   0.0740741

     Dense  grid:   103771 G-vectors     FFT dimensions: (  45,  60,  81)

     Smooth grid:    36721 G-vectors     FFT dimensions: (  36,  40,  60)

     Dynamical RAM for                 wfc:       1.12 MB

     Dynamical RAM for     wfc (w. buffer):      16.79 MB

     Dynamical RAM for           str. fact:       1.98 MB

     Dynamical RAM for           local pot:       0.00 MB

     Dynamical RAM for          nlocal pot:       2.83 MB

     Dynamical RAM for                qrad:       6.22 MB

     Dynamical RAM for          rho,v,vnew:       4.97 MB

     Dynamical RAM for               rhoin:       1.66 MB

     Dynamical RAM for            rho*nmix:      12.67 MB

     Dynamical RAM for           G-vectors:       1.55 MB

     Dynamical RAM for          h,s,v(r/c):       0.75 MB

     Dynamical RAM for          <psi|beta>:       0.16 MB

     Dynamical RAM for                 psi:       2.24 MB

     Dynamical RAM for                hpsi:       2.24 MB

     Dynamical RAM for                spsi:       2.24 MB

     Dynamical RAM for      wfcinit/wfcrot:       2.91 MB

     Dynamical RAM for           addusdens:      39.39 MB

     Estimated static dynamical RAM per process >      40.97 MB

     Estimated max dynamical RAM per process >      93.03 MB

     Estimated total dynamical RAM >     693.54 MB

     Check: negative core charge=   -0.000014
     Generating pointlists ...
     new r_m :   0.2654 (alat units)  2.4387 (a.u.) for type    1
     new r_m :   0.1814 (alat units)  1.6669 (a.u.) for type    2
     new r_m :   0.0831 (alat units)  0.7634 (a.u.) for type    3
     new r_m :   0.1246 (alat units)  1.1454 (a.u.) for type    4
     new r_m :   0.0831 (alat units)  0.7634 (a.u.) for type    5

     Initial potential from superposition of free atoms

     starting charge     100.4604, renormalised to     101.0000
     Starting wfcs are   79 randomized atomic wfcs
     Checking if some PAW data can be deallocated... 
       PAW data deallocated on    3 nodes for type:  5

     total cpu time spent up to now is        1.9 secs

     Self-consistent Calculation

     iteration #  1     ecut=    30.00 Ry     beta= 0.70
     Davidson diagonalization with overlap

---- Real-time Memory Report at c_bands before calling an iterative solver
           254 MiB given to the printing process from OS
             0 MiB allocation reported by mallinfo(arena+hblkhd)
        190097 MiB available memory on the node where the printing process lives
------------------
     ethr =  1.00E-02,  avg # of iterations =  3.4

     total cpu time spent up to now is        3.9 secs

     total energy              =    -743.44140265 Ry
     estimated scf accuracy    <       3.25409591 Ry

     total magnetization       =     5.00 Bohr mag/cell
     absolute magnetization    =     5.00 Bohr mag/cell

     iteration #  2     ecut=    30.00 Ry     beta= 0.70
     Davidson diagonalization with overlap

---- Real-time Memory Report at c_bands before calling an iterative solver
           289 MiB given to the printing process from OS
             0 MiB allocation reported by mallinfo(arena+hblkhd)
        189843 MiB available memory on the node where the printing process lives
------------------
     ethr =  3.22E-03,  avg # of iterations =  3.6

     total cpu time spent up to now is        6.0 secs

     total energy              =    -744.16506755 Ry
     estimated scf accuracy    <       2.68322468 Ry

     total magnetization       =     5.00 Bohr mag/cell
     absolute magnetization    =     5.01 Bohr mag/cell

     iteration #  3     ecut=    30.00 Ry     beta= 0.70
     Davidson diagonalization with overlap

---- Real-time Memory Report at c_bands before calling an iterative solver
           306 MiB given to the printing process from OS
             0 MiB allocation reported by mallinfo(arena+hblkhd)
        189731 MiB available memory on the node where the printing process lives
------------------
     ethr =  2.66E-03,  avg # of iterations =  2.0

     total cpu time spent up to now is        7.7 secs

     total energy              =    -744.72330073 Ry
     estimated scf accuracy    <       0.06074690 Ry

     total magnetization       =     5.00 Bohr mag/cell
     absolute magnetization    =     5.01 Bohr mag/cell

     iteration #  4     ecut=    30.00 Ry     beta= 0.70
     Davidson diagonalization with overlap

---- Real-time Memory Report at c_bands before calling an iterative solver
           306 MiB given to the printing process from OS
             0 MiB allocation reported by mallinfo(arena+hblkhd)
        189688 MiB available memory on the node where the printing process lives
------------------
     ethr =  6.01E-05,  avg # of iterations = 12.0

     negative rho (up, down):  0.000E+00 4.350E-05

     total cpu time spent up to now is       10.4 secs

     total energy              =    -744.73115596 Ry
     estimated scf accuracy    <       0.05415723 Ry

     total magnetization       =     5.00 Bohr mag/cell
     absolute magnetization    =     5.01 Bohr mag/cell

     iteration #  5     ecut=    30.00 Ry     beta= 0.70
     Davidson diagonalization with overlap

---- Real-time Memory Report at c_bands before calling an iterative solver
           306 MiB given to the printing process from OS
             0 MiB allocation reported by mallinfo(arena+hblkhd)
        189720 MiB available memory on the node where the printing process lives
------------------
     ethr =  5.36E-05,  avg # of iterations =  2.1

     negative rho (up, down):  0.000E+00 4.746E-05

     total cpu time spent up to now is       12.1 secs

     total energy              =    -744.73919525 Ry
     estimated scf accuracy    <       0.00356479 Ry

     total magnetization       =     5.00 Bohr mag/cell
     absolute magnetization    =     5.01 Bohr mag/cell

     iteration #  6     ecut=    30.00 Ry     beta= 0.70
     Davidson diagonalization with overlap

---- Real-time Memory Report at c_bands before calling an iterative solver
           307 MiB given to the printing process from OS
             0 MiB allocation reported by mallinfo(arena+hblkhd)
        189690 MiB available memory on the node where the printing process lives
------------------
     c_bands:  1 eigenvalues not converged
     c_bands:  1 eigenvalues not converged
     ethr =  3.53E-06,  avg # of iterations = 11.2

     negative rho (up, down):  0.000E+00 4.890E-05

     total cpu time spent up to now is       14.8 secs

     total energy              =    -744.73969409 Ry
     estimated scf accuracy    <       0.00033834 Ry

     total magnetization       =     5.00 Bohr mag/cell
     absolute magnetization    =     5.01 Bohr mag/cell

     iteration #  7     ecut=    30.00 Ry     beta= 0.70
     Davidson diagonalization with overlap

---- Real-time Memory Report at c_bands before calling an iterative solver
           308 MiB given to the printing process from OS
             0 MiB allocation reported by mallinfo(arena+hblkhd)
        189725 MiB available memory on the node where the printing process lives
------------------
     ethr =  3.35E-07,  avg # of iterations =  3.0

     negative rho (up, down):  0.000E+00 5.190E-05

     total cpu time spent up to now is       16.7 secs

     total energy              =    -744.73977667 Ry
     estimated scf accuracy    <       0.00002897 Ry

     total magnetization       =     5.00 Bohr mag/cell
     absolute magnetization    =     5.01 Bohr mag/cell

     iteration #  8     ecut=    30.00 Ry     beta= 0.70
     Davidson diagonalization with overlap

---- Real-time Memory Report at c_bands before calling an iterative solver
           311 MiB given to the printing process from OS
             0 MiB allocation reported by mallinfo(arena+hblkhd)
        189715 MiB available memory on the node where the printing process lives
------------------
     ethr =  2.87E-08,  avg # of iterations =  4.0

     negative rho (up, down):  0.000E+00 5.322E-05

     total cpu time spent up to now is       18.8 secs

     total energy              =    -744.73978659 Ry
     estimated scf accuracy    <       0.00001660 Ry

     total magnetization       =     5.00 Bohr mag/cell
     absolute magnetization    =     5.01 Bohr mag/cell

     iteration #  9     ecut=    30.00 Ry     beta= 0.70
     Davidson diagonalization with overlap

---- Real-time Memory Report at c_bands before calling an iterative solver
           311 MiB given to the printing process from OS
             0 MiB allocation reported by mallinfo(arena+hblkhd)
        189743 MiB available memory on the node where the printing process lives
------------------
     ethr =  1.64E-08,  avg # of iterations =  2.0

     negative rho (up, down):  0.000E+00 5.338E-05

     total cpu time spent up to now is       20.3 secs

     total energy              =    -744.73978726 Ry
     estimated scf accuracy    <       0.00000295 Ry

     total magnetization       =     5.00 Bohr mag/cell
     absolute magnetization    =     5.01 Bohr mag/cell

     iteration # 10     ecut=    30.00 Ry     beta= 0.70
     Davidson diagonalization with overlap

---- Real-time Memory Report at c_bands before calling an iterative solver
           311 MiB given to the printing process from OS
             0 MiB allocation reported by mallinfo(arena+hblkhd)
        191348 MiB available memory on the node where the printing process lives
------------------
     ethr =  2.92E-09,  avg # of iterations =  2.4

     negative rho (up, down):  0.000E+00 5.311E-05
 
     Magnetic moment per site  (integrated on atomic sphere of radius R)
     atom   1 (R=0.265)  charge=  6.7709  magn=  0.0004
     atom   2 (R=0.181)  charge= 12.3993  magn=  4.1941
     atom   3 (R=0.083)  charge=  0.3928  magn=  0.0011
     atom   4 (R=0.083)  charge=  0.3912  magn=  0.0013
     atom   5 (R=0.083)  charge=  0.3847  magn=  0.0009
     atom   6 (R=0.083)  charge=  0.3797  magn=  0.0010
     atom   7 (R=0.083)  charge=  0.3203  magn=  0.0004
     atom   8 (R=0.125)  charge=  1.2400  magn=  0.0057
     atom   9 (R=0.125)  charge=  1.2376  magn=  0.0059
     atom  10 (R=0.083)  charge=  1.9330  magn=  0.0096
     atom  11 (R=0.083)  charge=  1.9294  magn=  0.0131
     atom  12 (R=0.083)  charge=  1.9267  magn=  0.0023
     atom  13 (R=0.083)  charge=  1.9269  magn=  0.0028
     atom  14 (R=0.083)  charge=  1.9339  magn=  0.0105
     atom  15 (R=0.083)  charge=  1.9297  magn=  0.0140
     atom  16 (R=0.083)  charge=  1.9327  magn=  0.0022
     atom  17 (R=0.083)  charge=  1.9285  magn=  0.0027
     atom  18 (R=0.083)  charge=  1.9357  magn=  0.0112
     atom  19 (R=0.083)  charge=  1.9355  magn=  0.0118

     total cpu time spent up to now is       22.2 secs

     End of self-consistent calculation

 ------ SPIN UP ------------


          k = 0.0000 0.0000 0.0000 (  4593 PWs)   bands (ev):

   -76.9123 -45.6625 -45.6347 -45.6007 -20.9135 -20.3615 -17.3790 -17.2367
   -17.1822 -16.8414 -16.7108 -16.4774 -16.2898 -16.2170 -16.0921  -7.6919
    -6.3573  -5.3955  -5.0163  -4.8468  -4.0823  -3.9242  -3.8190  -3.7738
    -3.4520  -3.3791  -3.2820  -2.8633  -2.5670  -2.0905  -2.0133  -1.0919
    -0.9064  -0.5445  -0.4854  -0.3204  -0.2169   0.1188   0.1434   0.1923
     0.5909   0.7167   0.8705   1.3337   1.5265   1.7526   1.8043   2.0291
     2.3223   2.5402   2.6763   3.5274   3.7547   7.0418   9.2852   9.3019
     9.4965  10.2945  10.4231  10.7205  10.7965  10.8820  11.3025  11.4711

     occupation numbers 
     1.0000   1.0000   1.0000   1.0000   1.0000   1.0000   1.0000   1.0000
     1.0000   1.0000   1.0000   1.0000   1.0000   1.0000   1.0000   1.0000
     1.0000   1.0000   1.0000   1.0000   1.0000   1.0000   1.0000   1.0000
     1.0000   1.0000   1.0000   1.0000   1.0000   1.0000   1.0000   1.0000
     1.0000   1.0000   1.0000   1.0000   1.0000   1.0000   1.0000   1.0000
     1.0000   1.0000   1.0000   1.0000   1.0000   1.0000   1.0000   1.0000
     1.0000   1.0000   1.0000   1.0000   1.0000   0.0000   0.0000   0.0000
     0.0000   0.0000   0.0000   0.0000   0.0000   0.0000   0.0000   0.0000

          k = 0.0000 0.0000 0.1921 (  4550 PWs)   bands (ev):

   -76.9120 -45.6598 -45.6323 -45.5988 -20.9116 -20.3640 -17.3676 -17.2298
   -17.1927 -16.8408 -16.7119 -16.4763 -16.2900 -16.2227 -16.0910  -7.6199
    -6.5039  -5.2758  -5.0072  -4.8730  -4.0775  -3.9460  -3.8288  -3.7899
    -3.4312  -3.3913  -3.2868  -2.8487  -2.5486  -2.1005  -1.9322  -0.9880
    -0.9120  -0.5426  -0.4418  -0.3239  -0.1837  -0.0016   0.1825   0.2073
     0.5287   0.6688   0.9285   1.3099   1.5348   1.7055   1.8136   2.0371
     2.3229   2.5588   2.6784   3.5914   3.7685   7.4534   8.5112   9.2857
     9.6364  10.3773  10.4409  10.5713  10.7935  11.1024  11.3038  11.5168

     occupation numbers 
     1.0000   1.0000   1.0000   1.0000   1.0000   1.0000   1.0000   1.0000
     1.0000   1.0000   1.0000   1.0000   1.0000   1.0000   1.0000   1.0000
     1.0000   1.0000   1.0000   1.0000   1.0000   1.0000   1.0000   1.0000
     1.0000   1.0000   1.0000   1.0000   1.0000   1.0000   1.0000   1.0000
     1.0000   1.0000   1.0000   1.0000   1.0000   1.0000   1.0000   1.0000
     1.0000   1.0000   1.0000   1.0000   1.0000   1.0000   1.0000   1.0000
     1.0000   1.0000   1.0000   1.0000   1.0000   0.0000   0.0000   0.0000
     0.0000   0.0000   0.0000   0.0000   0.0000   0.0000   0.0000   0.0000

          k = 0.0000 0.2717 0.0718 (  4577 PWs)   bands (ev):

   -76.9122 -45.6614 -45.6341 -45.5999 -20.9090 -20.3602 -17.3868 -17.2542
   -17.1975 -16.8285 -16.7054 -16.4904 -16.2697 -16.2260 -16.0752  -7.6256
    -6.4555  -5.4123  -5.1037  -4.8155  -4.0161  -3.8983  -3.7805  -3.7389
    -3.3986  -3.3380  -3.2915  -2.9734  -2.3740  -1.9731  -1.8749  -1.1698
    -0.9396  -0.5893  -0.4962  -0.3353  -0.1990  -0.1264   0.0485   0.1809
     0.5010   0.6681   0.9655   1.2079   1.5080   1.6857   1.7578   2.0733
     2.3200   2.5728   2.6701   3.5570   3.7047   7.9035   9.2571   9.4737
     9.7340   9.9963  10.3875  10.5654  10.8458  11.1721  11.2679  11.4649

     occupation numbers 
     1.0000   1.0000   1.0000   1.0000   1.0000   1.0000   1.0000   1.0000
     1.0000   1.0000   1.0000   1.0000   1.0000   1.0000   1.0000   1.0000
     1.0000   1.0000   1.0000   1.0000   1.0000   1.0000   1.0000   1.0000
     1.0000   1.0000   1.0000   1.0000   1.0000   1.0000   1.0000   1.0000
     1.0000   1.0000   1.0000   1.0000   1.0000   1.0000   1.0000   1.0000
     1.0000   1.0000   1.0000   1.0000   1.0000   1.0000   1.0000   1.0000
     1.0000   1.0000   1.0000   1.0000   1.0000   0.0000   0.0000   0.0000
     0.0000   0.0000   0.0000   0.0000   0.0000   0.0000   0.0000   0.0000

          k = 0.0000 0.2717 0.2639 (  4572 PWs)   bands (ev):

   -76.9122 -45.6617 -45.6333 -45.5996 -20.9087 -20.3607 -17.3808 -17.2507
   -17.2073 -16.8285 -16.7058 -16.4880 -16.2701 -16.2271 -16.0745  -7.6211
    -6.4735  -5.3556  -5.0825  -4.8903  -4.0331  -3.8806  -3.7849  -3.7113
    -3.4067  -3.3713  -3.2784  -2.9621  -2.3732  -1.9679  -1.8632  -1.0814
    -0.9375  -0.5618  -0.5167  -0.4058  -0.2490  -0.0765   0.0116   0.1904
     0.5158   0.6120   0.9796   1.2252   1.4987   1.6863   1.7582   2.0690
     2.3241   2.5875   2.6726   3.5591   3.7010   8.3018   8.8671   9.2804
     9.6529  10.0871  10.3664  10.6309  10.9111  11.1787  11.3267  11.3777

     occupation numbers 
     1.0000   1.0000   1.0000   1.0000   1.0000   1.0000   1.0000   1.0000
     1.0000   1.0000   1.0000   1.0000   1.0000   1.0000   1.0000   1.0000
     1.0000   1.0000   1.0000   1.0000   1.0000   1.0000   1.0000   1.0000
     1.0000   1.0000   1.0000   1.0000   1.0000   1.0000   1.0000   1.0000
     1.0000   1.0000   1.0000   1.0000   1.0000   1.0000   1.0000   1.0000
     1.0000   1.0000   1.0000   1.0000   1.0000   1.0000   1.0000   1.0000
     1.0000   1.0000   1.0000   1.0000   1.0000   0.0000   0.0000   0.0000
     0.0000   0.0000   0.0000   0.0000   0.0000   0.0000   0.0000   0.0000

          k = 0.0000 0.2717-0.1202 (  4575 PWs)   bands (ev):

   -76.9121 -45.6607 -45.6337 -45.6001 -20.9099 -20.3585 -17.3841 -17.2562
   -17.2054 -16.8291 -16.7048 -16.4875 -16.2692 -16.2214 -16.0746  -7.6868
    -6.3413  -5.3716  -5.0871  -4.9601  -4.0316  -3.8474  -3.7725  -3.7106
    -3.4046  -3.3539  -3.2862  -2.9784  -2.3591  -1.9845  -1.9249  -1.1051
    -0.9148  -0.5630  -0.5188  -0.3565  -0.2428  -0.1149  -0.0002   0.1609
     0.5337   0.6491   0.9514   1.2695   1.4986   1.6923   1.7798   2.0799
     2.3321   2.5866   2.6735   3.5332   3.6718   7.9799   9.2234   9.4809
     9.5632   9.9509  10.5176  10.7634  10.9114  11.0380  11.3121  11.4040

     occupation numbers 
     1.0000   1.0000   1.0000   1.0000   1.0000   1.0000   1.0000   1.0000
     1.0000   1.0000   1.0000   1.0000   1.0000   1.0000   1.0000   1.0000
     1.0000   1.0000   1.0000   1.0000   1.0000   1.0000   1.0000   1.0000
     1.0000   1.0000   1.0000   1.0000   1.0000   1.0000   1.0000   1.0000
     1.0000   1.0000   1.0000   1.0000   1.0000   1.0000   1.0000   1.0000
     1.0000   1.0000   1.0000   1.0000   1.0000   1.0000   1.0000   1.0000
     1.0000   1.0000   1.0000   1.0000   1.0000   0.0000   0.0000   0.0000
     0.0000   0.0000   0.0000   0.0000   0.0000   0.0000   0.0000   0.0000

          k = 0.3333 0.0256 0.0426 (  4590 PWs)   bands (ev):

   -76.9123 -45.6610 -45.6370 -45.5995 -20.8961 -20.3441 -17.3677 -17.2339
   -17.1951 -16.8726 -16.7212 -16.4693 -16.3274 -16.2104 -16.1057  -7.6224
    -6.3304  -5.4853  -5.1164  -4.7508  -4.3312  -3.9439  -3.7886  -3.6976
    -3.5210  -3.3845  -3.1785  -2.9346  -2.3278  -2.0382  -1.8651  -0.9673
    -0.8514  -0.7031  -0.4140  -0.3787  -0.2518  -0.0151   0.0620   0.1458
     0.4029   0.7520   0.9578   1.1709   1.4827   1.7254   1.8578   2.0389
     2.4101   2.4808   2.8084   3.5596   3.7786   8.2345   9.3933   9.5372
     9.9903  10.2187  10.3114  10.5530  10.7807  10.9581  11.0918  11.3726

     occupation numbers 
     1.0000   1.0000   1.0000   1.0000   1.0000   1.0000   1.0000   1.0000
     1.0000   1.0000   1.0000   1.0000   1.0000   1.0000   1.0000   1.0000
     1.0000   1.0000   1.0000   1.0000   1.0000   1.0000   1.0000   1.0000
     1.0000   1.0000   1.0000   1.0000   1.0000   1.0000   1.0000   1.0000
     1.0000   1.0000   1.0000   1.0000   1.0000   1.0000   1.0000   1.0000
     1.0000   1.0000   1.0000   1.0000   1.0000   1.0000   1.0000   1.0000
     1.0000   1.0000   1.0000   1.0000   1.0000   0.0000   0.0000   0.0000
     0.0000   0.0000   0.0000   0.0000   0.0000   0.0000   0.0000   0.0000

          k = 0.3333 0.0256 0.2346 (  4591 PWs)   bands (ev):

   -76.9123 -45.6613 -45.6369 -45.5998 -20.8951 -20.3460 -17.3630 -17.2293
   -17.2000 -16.8729 -16.7217 -16.4686 -16.3284 -16.2132 -16.1060  -7.5883
    -6.4114  -5.4870  -5.0317  -4.7718  -4.3086  -3.9250  -3.8038  -3.7122
    -3.5471  -3.4019  -3.1680  -2.9381  -2.3542  -2.0097  -1.8812  -0.9518
    -0.8714  -0.6895  -0.4628  -0.3152  -0.2717  -0.0221   0.0828   0.1826
     0.4296   0.6558   0.9476   1.2020   1.5078   1.7561   1.8750   2.0157
     2.3983   2.4877   2.8182   3.5192   3.7640   8.4971   9.1455   9.6256
     9.7538  10.0362  10.2540  10.5727  10.7818  11.0609  11.1883  11.4120

     occupation numbers 
     1.0000   1.0000   1.0000   1.0000   1.0000   1.0000   1.0000   1.0000
     1.0000   1.0000   1.0000   1.0000   1.0000   1.0000   1.0000   1.0000
     1.0000   1.0000   1.0000   1.0000   1.0000   1.0000   1.0000   1.0000
     1.0000   1.0000   1.0000   1.0000   1.0000   1.0000   1.0000   1.0000
     1.0000   1.0000   1.0000   1.0000   1.0000   1.0000   1.0000   1.0000
     1.0000   1.0000   1.0000   1.0000   1.0000   1.0000   1.0000   1.0000
     1.0000   1.0000   1.0000   1.0000   1.0000   0.0000   0.0000   0.0000
     0.0000   0.0000   0.0000   0.0000   0.0000   0.0000   0.0000   0.0000

          k = 0.3333 0.0256-0.1495 (  4591 PWs)   bands (ev):

   -76.9123 -45.6618 -45.6367 -45.6000 -20.8952 -20.3460 -17.3620 -17.2283
   -17.2016 -16.8729 -16.7220 -16.4714 -16.3253 -16.2143 -16.1055  -7.5853
    -6.4064  -5.4748  -5.0174  -4.8757  -4.2850  -3.8828  -3.8058  -3.7151
    -3.5454  -3.3911  -3.1735  -2.9439  -2.3316  -2.0217  -1.8603  -0.9560
    -0.8500  -0.6412  -0.5136  -0.3734  -0.2156  -0.0554   0.0974   0.1473
     0.4248   0.6676   0.9591   1.2537   1.4592   1.6983   1.8532   2.0170
     2.4123   2.4837   2.8242   3.5610   3.7905   8.3975   9.1561   9.5892
     9.8586  10.1798  10.2504  10.6061  10.7324  11.0443  11.1357  11.4913

     occupation numbers 
     1.0000   1.0000   1.0000   1.0000   1.0000   1.0000   1.0000   1.0000
     1.0000   1.0000   1.0000   1.0000   1.0000   1.0000   1.0000   1.0000
     1.0000   1.0000   1.0000   1.0000   1.0000   1.0000   1.0000   1.0000
     1.0000   1.0000   1.0000   1.0000   1.0000   1.0000   1.0000   1.0000
     1.0000   1.0000   1.0000   1.0000   1.0000   1.0000   1.0000   1.0000
     1.0000   1.0000   1.0000   1.0000   1.0000   1.0000   1.0000   1.0000
     1.0000   1.0000   1.0000   1.0000   1.0000   0.0000   0.0000   0.0000
     0.0000   0.0000   0.0000   0.0000   0.0000   0.0000   0.0000   0.0000

          k = 0.3333 0.2973 0.1144 (  4597 PWs)   bands (ev):

   -76.9123 -45.6621 -45.6358 -45.6002 -20.8930 -20.3429 -17.3606 -17.2341
   -17.2009 -16.8829 -16.7238 -16.4877 -16.3156 -16.2119 -16.1001  -7.5803
    -6.3133  -5.4437  -5.1576  -4.7727  -4.2332  -3.9474  -3.8370  -3.6573
    -3.5025  -3.3151  -3.1879  -3.0191  -2.4338  -2.0472  -1.8779  -0.9803
    -0.8347  -0.7079  -0.4440  -0.3625  -0.2331  -0.0465   0.0789   0.1498
     0.4024   0.6523   0.9502   1.1875   1.4387   1.7541   1.8476   2.0092
     2.3935   2.5029   2.8116   3.5198   3.7393   8.6918   9.4618   9.9196
    10.0317  10.2772  10.4130  10.5709  10.7070  11.0397  11.1872  11.3714

     occupation numbers 
     1.0000   1.0000   1.0000   1.0000   1.0000   1.0000   1.0000   1.0000
     1.0000   1.0000   1.0000   1.0000   1.0000   1.0000   1.0000   1.0000
     1.0000   1.0000   1.0000   1.0000   1.0000   1.0000   1.0000   1.0000
     1.0000   1.0000   1.0000   1.0000   1.0000   1.0000   1.0000   1.0000
     1.0000   1.0000   1.0000   1.0000   1.0000   1.0000   1.0000   1.0000
     1.0000   1.0000   1.0000   1.0000   1.0000   1.0000   1.0000   1.0000
     1.0000   1.0000   1.0000   1.0000   1.0000   0.0000   0.0000   0.0000
     0.0000   0.0000   0.0000   0.0000   0.0000   0.0000   0.0000   0.0000

          k = 0.3333 0.2973 0.3064 (  4597 PWs)   bands (ev):

   -76.9123 -45.6619 -45.6359 -45.5999 -20.8929 -20.3434 -17.3576 -17.2342
   -17.2035 -16.8834 -16.7228 -16.4892 -16.3137 -16.2118 -16.1011  -7.5611
    -6.3513  -5.4379  -5.1032  -4.8795  -4.1993  -3.9485  -3.8303  -3.6186
    -3.4733  -3.3311  -3.2144  -3.0244  -2.4385  -2.0025  -1.8926  -0.9748
    -0.8028  -0.6664  -0.4363  -0.4117  -0.2401  -0.0446   0.0459   0.1541
     0.4383   0.5719   0.9663   1.2420   1.4225   1.6786   1.8264   2.0150
     2.4136   2.5060   2.8112   3.5432   3.7744   9.0238   9.3436   9.6536
    10.0030  10.1681  10.2757  10.5562  10.7787  11.0397  11.2723  11.5021

     occupation numbers 
     1.0000   1.0000   1.0000   1.0000   1.0000   1.0000   1.0000   1.0000
     1.0000   1.0000   1.0000   1.0000   1.0000   1.0000   1.0000   1.0000
     1.0000   1.0000   1.0000   1.0000   1.0000   1.0000   1.0000   1.0000
     1.0000   1.0000   1.0000   1.0000   1.0000   1.0000   1.0000   1.0000
     1.0000   1.0000   1.0000   1.0000   1.0000   1.0000   1.0000   1.0000
     1.0000   1.0000   1.0000   1.0000   1.0000   1.0000   1.0000   1.0000
     1.0000   1.0000   1.0000   1.0000   1.0000   0.0000   0.0000   0.0000
     0.0000   0.0000   0.0000   0.0000   0.0000   0.0000   0.0000   0.0000

          k = 0.3333 0.2973-0.0777 (  4590 PWs)   bands (ev):

   -76.9123 -45.6612 -45.6359 -45.6000 -20.8935 -20.3420 -17.3594 -17.2365
   -17.2021 -16.8845 -16.7229 -16.4921 -16.3094 -16.2097 -16.1005  -7.5906
    -6.3034  -5.4105  -5.1081  -4.8977  -4.2451  -3.9919  -3.7398  -3.6328
    -3.4858  -3.3474  -3.1821  -3.0229  -2.4057  -2.0574  -1.8665  -0.9926
    -0.8068  -0.6468  -0.4450  -0.3790  -0.2684  -0.0791   0.0764   0.1106
     0.4380   0.6183   0.9809   1.1769   1.4338   1.6896   1.8485   2.0405
     2.4202   2.5088   2.8021   3.5522   3.7619   8.7165   9.3108   9.8589
     9.9838  10.3123  10.5081  10.5978  10.7818  11.0181  11.2350  11.4727

     occupation numbers 
     1.0000   1.0000   1.0000   1.0000   1.0000   1.0000   1.0000   1.0000
     1.0000   1.0000   1.0000   1.0000   1.0000   1.0000   1.0000   1.0000
     1.0000   1.0000   1.0000   1.0000   1.0000   1.0000   1.0000   1.0000
     1.0000   1.0000   1.0000   1.0000   1.0000   1.0000   1.0000   1.0000
     1.0000   1.0000   1.0000   1.0000   1.0000   1.0000   1.0000   1.0000
     1.0000   1.0000   1.0000   1.0000   1.0000   1.0000   1.0000   1.0000
     1.0000   1.0000   1.0000   1.0000   1.0000   0.0000   0.0000   0.0000
     0.0000   0.0000   0.0000   0.0000   0.0000   0.0000   0.0000   0.0000

          k = 0.3333-0.2460-0.0293 (  4594 PWs)   bands (ev):

   -76.9123 -45.6616 -45.6364 -45.5995 -20.8935 -20.3433 -17.3548 -17.2357
   -17.1953 -16.8743 -16.7353 -16.4807 -16.3181 -16.2119 -16.1136  -7.5685
    -6.2943  -5.3459  -5.1705  -4.9159  -4.2203  -4.0086  -3.8576  -3.6442
    -3.4576  -3.4065  -3.1167  -2.9868  -2.4049  -2.0151  -1.9330  -1.0042
    -0.8009  -0.6590  -0.4444  -0.3327  -0.2240   0.0309   0.0764   0.1867
     0.3275   0.6583   0.9045   1.2293   1.4144   1.6553   1.8163   1.9821
     2.3992   2.5057   2.8164   3.5576   3.7910   8.6816   9.3220   9.9619
    10.1932  10.2975  10.4598  10.5239  10.7620  10.9873  11.3032  11.3664

     occupation numbers 
     1.0000   1.0000   1.0000   1.0000   1.0000   1.0000   1.0000   1.0000
     1.0000   1.0000   1.0000   1.0000   1.0000   1.0000   1.0000   1.0000
     1.0000   1.0000   1.0000   1.0000   1.0000   1.0000   1.0000   1.0000
     1.0000   1.0000   1.0000   1.0000   1.0000   1.0000   1.0000   1.0000
     1.0000   1.0000   1.0000   1.0000   1.0000   1.0000   1.0000   1.0000
     1.0000   1.0000   1.0000   1.0000   1.0000   1.0000   1.0000   1.0000
     1.0000   1.0000   1.0000   1.0000   1.0000   0.0000   0.0000   0.0000
     0.0000   0.0000   0.0000   0.0000   0.0000   0.0000   0.0000   0.0000

          k = 0.3333-0.2460 0.1628 (  4602 PWs)   bands (ev):

   -76.9123 -45.6613 -45.6372 -45.6003 -20.8940 -20.3426 -17.3544 -17.2383
   -17.1969 -16.8764 -16.7341 -16.4803 -16.3160 -16.2096 -16.1145  -7.5845
    -6.2934  -5.3340  -5.1294  -4.9242  -4.2650  -4.0409  -3.7971  -3.6633
    -3.4875  -3.3999  -3.0891  -2.9938  -2.3969  -2.0589  -1.8939  -1.0151
    -0.7625  -0.6676  -0.3997  -0.3484  -0.2663   0.0037   0.0977   0.1841
     0.3559   0.5832   0.9212   1.1584   1.4404   1.6886   1.8093   1.9911
     2.4197   2.5143   2.8011   3.5591   3.7871   8.7431   9.4383   9.6715
    10.0537  10.2373  10.5334  10.6301  10.8553  10.9992  11.2412  11.4012

     occupation numbers 
     1.0000   1.0000   1.0000   1.0000   1.0000   1.0000   1.0000   1.0000
     1.0000   1.0000   1.0000   1.0000   1.0000   1.0000   1.0000   1.0000
     1.0000   1.0000   1.0000   1.0000   1.0000   1.0000   1.0000   1.0000
     1.0000   1.0000   1.0000   1.0000   1.0000   1.0000   1.0000   1.0000
     1.0000   1.0000   1.0000   1.0000   1.0000   1.0000   1.0000   1.0000
     1.0000   1.0000   1.0000   1.0000   1.0000   1.0000   1.0000   1.0000
     1.0000   1.0000   1.0000   1.0000   1.0000   0.0000   0.0000   0.0000
     0.0000   0.0000   0.0000   0.0000   0.0000   0.0000   0.0000   0.0000

          k = 0.3333-0.2460-0.2213 (  4589 PWs)   bands (ev):

   -76.9122 -45.6604 -45.6366 -45.5998 -20.8931 -20.3439 -17.3514 -17.2319
   -17.2010 -16.8760 -16.7354 -16.4817 -16.3161 -16.2122 -16.1132  -7.5639
    -6.3382  -5.2901  -5.0950  -4.9702  -4.2373  -4.0192  -3.8100  -3.7075
    -3.4671  -3.4098  -3.1193  -2.9739  -2.3699  -2.0535  -1.9286  -1.0376
    -0.7750  -0.6403  -0.4521  -0.3114  -0.1949  -0.0093   0.1135   0.1584
     0.3895   0.5471   0.9058   1.1887   1.4727   1.7258   1.8379   1.9683
     2.4035   2.5118   2.8145   3.5194   3.7768   8.8599   9.2675   9.5309
    10.0633  10.2928  10.4594  10.6059  10.8912  11.0642  11.2621  11.4716

     occupation numbers 
     1.0000   1.0000   1.0000   1.0000   1.0000   1.0000   1.0000   1.0000
     1.0000   1.0000   1.0000   1.0000   1.0000   1.0000   1.0000   1.0000
     1.0000   1.0000   1.0000   1.0000   1.0000   1.0000   1.0000   1.0000
     1.0000   1.0000   1.0000   1.0000   1.0000   1.0000   1.0000   1.0000
     1.0000   1.0000   1.0000   1.0000   1.0000   1.0000   1.0000   1.0000
     1.0000   1.0000   1.0000   1.0000   1.0000   1.0000   1.0000   1.0000
     1.0000   1.0000   1.0000   1.0000   1.0000   0.0000   0.0000   0.0000
     0.0000   0.0000   0.0000   0.0000   0.0000   0.0000   0.0000   0.0000

 ------ SPIN DOWN ----------


          k = 0.0000 0.0000 0.0000 (  4593 PWs)   bands (ev):

   -71.6829 -40.5476 -40.5261 -40.4883 -20.8881 -20.3298 -17.3460 -17.2099
   -17.1463 -16.8085 -16.6864 -16.4710 -16.2493 -16.1829 -16.0705  -7.6454
    -6.3060  -5.3503  -4.9867  -4.7989  -4.0244  -3.8791  -3.7442  -3.6552
    -3.4233  -3.3572  -3.2694  -2.8525  -2.3298  -2.0000  -1.9467  -0.8996
    -0.8080  -0.4207  -0.2989  -0.2420  -0.1452   0.1657   0.2339   0.2867
     0.6614   0.7822   0.9618   1.4604   1.6182   1.8825   1.9572   2.1220
     6.5914   6.7702   6.8177   7.2205   7.5360   7.7204   9.2975   9.3777
     9.5810  10.4217  10.5756  10.8016  10.9339  10.9814  11.4345  11.5649

     occupation numbers 
     1.0000   1.0000   1.0000   1.0000   1.0000   1.0000   1.0000   1.0000
     1.0000   1.0000   1.0000   1.0000   1.0000   1.0000   1.0000   1.0000
     1.0000   1.0000   1.0000   1.0000   1.0000   1.0000   1.0000   1.0000
     1.0000   1.0000   1.0000   1.0000   1.0000   1.0000   1.0000   1.0000
     1.0000   1.0000   1.0000   1.0000   1.0000   1.0000   1.0000   1.0000
     1.0000   1.0000   1.0000   1.0000   1.0000   1.0000   1.0000   1.0000
     0.0000   0.0000   0.0000   0.0000   0.0000   0.0000   0.0000   0.0000
     0.0000   0.0000   0.0000   0.0000   0.0000   0.0000   0.0000   0.0000

          k = 0.0000 0.0000 0.1921 (  4550 PWs)   bands (ev):

   -71.6826 -40.5450 -40.5238 -40.4865 -20.8862 -20.3323 -17.3337 -17.2062
   -17.1549 -16.8081 -16.6870 -16.4701 -16.2493 -16.1886 -16.0694  -7.5825
    -6.4315  -5.2448  -4.9738  -4.8335  -4.0180  -3.8734  -3.7715  -3.6754
    -3.4142  -3.3565  -3.2668  -2.8365  -2.3109  -1.9973  -1.9021  -0.8455
    -0.7623  -0.4141  -0.3111  -0.1945  -0.1161   0.0512   0.2774   0.3043
     0.5901   0.7598   0.9893   1.4635   1.6312   1.8806   1.9701   2.1305
     6.5954   6.7735   6.8255   7.5305   7.6354   7.7651   8.6284   9.2908
     9.7022  10.4872  10.5760  10.6683  10.8929  11.2329  11.4448  11.5815

     occupation numbers 
     1.0000   1.0000   1.0000   1.0000   1.0000   1.0000   1.0000   1.0000
     1.0000   1.0000   1.0000   1.0000   1.0000   1.0000   1.0000   1.0000
     1.0000   1.0000   1.0000   1.0000   1.0000   1.0000   1.0000   1.0000
     1.0000   1.0000   1.0000   1.0000   1.0000   1.0000   1.0000   1.0000
     1.0000   1.0000   1.0000   1.0000   1.0000   1.0000   1.0000   1.0000
     1.0000   1.0000   1.0000   1.0000   1.0000   1.0000   1.0000   1.0000
     0.0000   0.0000   0.0000   0.0000   0.0000   0.0000   0.0000   0.0000
     0.0000   0.0000   0.0000   0.0000   0.0000   0.0000   0.0000   0.0000

          k = 0.0000 0.2717 0.0718 (  4577 PWs)   bands (ev):

   -71.6828 -40.5466 -40.5255 -40.4876 -20.8836 -20.3285 -17.3521 -17.2277
   -17.1643 -16.7950 -16.6807 -16.4832 -16.2275 -16.1910 -16.0567  -7.5886
    -6.3805  -5.3806  -5.0619  -4.7744  -3.9241  -3.8383  -3.7347  -3.6369
    -3.3846  -3.3240  -3.2702  -2.9557  -2.1085  -1.8955  -1.8076  -0.9947
    -0.8501  -0.4903  -0.4000  -0.2318  -0.1036  -0.0462   0.1207   0.2704
     0.6218   0.7350   1.0462   1.3974   1.5845   1.8401   1.9034   2.1483
     6.5866   6.7792   6.8304   7.5675   7.6072   8.0953   9.3026   9.6532
     9.8565  10.0896  10.5223  10.6765  10.9492  11.2910  11.3451  11.5459

     occupation numbers 
     1.0000   1.0000   1.0000   1.0000   1.0000   1.0000   1.0000   1.0000
     1.0000   1.0000   1.0000   1.0000   1.0000   1.0000   1.0000   1.0000
     1.0000   1.0000   1.0000   1.0000   1.0000   1.0000   1.0000   1.0000
     1.0000   1.0000   1.0000   1.0000   1.0000   1.0000   1.0000   1.0000
     1.0000   1.0000   1.0000   1.0000   1.0000   1.0000   1.0000   1.0000
     1.0000   1.0000   1.0000   1.0000   1.0000   1.0000   1.0000   1.0000
     0.0000   0.0000   0.0000   0.0000   0.0000   0.0000   0.0000   0.0000
     0.0000   0.0000   0.0000   0.0000   0.0000   0.0000   0.0000   0.0000

          k = 0.0000 0.2717 0.2639 (  4572 PWs)   bands (ev):

   -71.6827 -40.5469 -40.5247 -40.4872 -20.8833 -20.3290 -17.3456 -17.2263
   -17.1727 -16.7950 -16.6810 -16.4810 -16.2278 -16.1920 -16.0560  -7.5839
    -6.3995  -5.3241  -5.0424  -4.8465  -3.9462  -3.8120  -3.7279  -3.6354
    -3.3887  -3.3424  -3.2598  -2.9463  -2.1011  -1.8843  -1.8054  -0.9077
    -0.8557  -0.4800  -0.4152  -0.3146  -0.1655  -0.0054   0.1304   0.2872
     0.5999   0.7274   1.0558   1.4066   1.5727   1.8358   1.9226   2.1469
     6.5872   6.7809   6.8364   7.5476   7.6066   8.5296   8.9397   9.4451
     9.7638  10.2294  10.4701  10.6955  10.9722  11.2621  11.4056  11.4875

     occupation numbers 
     1.0000   1.0000   1.0000   1.0000   1.0000   1.0000   1.0000   1.0000
     1.0000   1.0000   1.0000   1.0000   1.0000   1.0000   1.0000   1.0000
     1.0000   1.0000   1.0000   1.0000   1.0000   1.0000   1.0000   1.0000
     1.0000   1.0000   1.0000   1.0000   1.0000   1.0000   1.0000   1.0000
     1.0000   1.0000   1.0000   1.0000   1.0000   1.0000   1.0000   1.0000
     1.0000   1.0000   1.0000   1.0000   1.0000   1.0000   1.0000   1.0000
     0.0000   0.0000   0.0000   0.0000   0.0000   0.0000   0.0000   0.0000
     0.0000   0.0000   0.0000   0.0000   0.0000   0.0000   0.0000   0.0000

          k = 0.0000 0.2717-0.1202 (  4575 PWs)   bands (ev):

   -71.6827 -40.5459 -40.5250 -40.4877 -20.8845 -20.3268 -17.3491 -17.2313
   -17.1704 -16.7956 -16.6803 -16.4804 -16.2266 -16.1868 -16.0561  -7.6402
    -6.2896  -5.3329  -5.0425  -4.9090  -3.9540  -3.8011  -3.6850  -3.6439
    -3.3907  -3.3218  -3.2677  -2.9578  -2.0937  -1.8986  -1.8420  -0.9294
    -0.8401  -0.4635  -0.4240  -0.2932  -0.1707  -0.0211   0.0999   0.2727
     0.6314   0.7503   1.0470   1.4340   1.5521   1.8294   1.9370   2.1616
     6.5877   6.7823   6.8354   7.5392   7.5869   8.1885   9.2884   9.5703
     9.7799  10.0298  10.6080  10.8666  10.9699  11.1621  11.4085  11.5228

     occupation numbers 
     1.0000   1.0000   1.0000   1.0000   1.0000   1.0000   1.0000   1.0000
     1.0000   1.0000   1.0000   1.0000   1.0000   1.0000   1.0000   1.0000
     1.0000   1.0000   1.0000   1.0000   1.0000   1.0000   1.0000   1.0000
     1.0000   1.0000   1.0000   1.0000   1.0000   1.0000   1.0000   1.0000
     1.0000   1.0000   1.0000   1.0000   1.0000   1.0000   1.0000   1.0000
     1.0000   1.0000   1.0000   1.0000   1.0000   1.0000   1.0000   1.0000
     0.0000   0.0000   0.0000   0.0000   0.0000   0.0000   0.0000   0.0000
     0.0000   0.0000   0.0000   0.0000   0.0000   0.0000   0.0000   0.0000

          k = 0.3333 0.0256 0.0426 (  4590 PWs)   bands (ev):

   -71.6829 -40.5467 -40.5278 -40.4872 -20.8709 -20.3128 -17.3309 -17.2131
   -17.1570 -16.8361 -16.6991 -16.4632 -16.2823 -16.1775 -16.0871  -7.5880
    -6.2652  -5.4569  -5.0689  -4.7006  -4.2082  -3.8875  -3.7521  -3.6408
    -3.5066  -3.3573  -3.1507  -2.9132  -2.0942  -1.9505  -1.7845  -0.8630
    -0.7301  -0.5310  -0.3241  -0.3026  -0.1662   0.0615   0.1703   0.2203
     0.5021   0.8200   1.0288   1.3966   1.6757   1.8848   2.0191   2.1498
     6.6494   6.7356   6.8305   7.5349   7.6452   8.4501   9.4690   9.6351
    10.1492  10.3217  10.5553  10.6886  10.9200  11.0926  11.1941  11.4636

     occupation numbers 
     1.0000   1.0000   1.0000   1.0000   1.0000   1.0000   1.0000   1.0000
     1.0000   1.0000   1.0000   1.0000   1.0000   1.0000   1.0000   1.0000
     1.0000   1.0000   1.0000   1.0000   1.0000   1.0000   1.0000   1.0000
     1.0000   1.0000   1.0000   1.0000   1.0000   1.0000   1.0000   1.0000
     1.0000   1.0000   1.0000   1.0000   1.0000   1.0000   1.0000   1.0000
     1.0000   1.0000   1.0000   1.0000   1.0000   1.0000   1.0000   1.0000
     0.0000   0.0000   0.0000   0.0000   0.0000   0.0000   0.0000   0.0000
     0.0000   0.0000   0.0000   0.0000   0.0000   0.0000   0.0000   0.0000

          k = 0.3333 0.0256 0.2346 (  4591 PWs)   bands (ev):

   -71.6829 -40.5471 -40.5276 -40.4874 -20.8700 -20.3147 -17.3260 -17.2098
   -17.1611 -16.8365 -16.6996 -16.4624 -16.2833 -16.1803 -16.0873  -7.5517
    -6.3513  -5.4581  -4.9865  -4.7236  -4.1889  -3.8510  -3.7562  -3.6748
    -3.5320  -3.3813  -3.1314  -2.9168  -2.1424  -1.9084  -1.7786  -0.8486
    -0.7323  -0.5566  -0.3629  -0.2227  -0.1870   0.0432   0.1556   0.2714
     0.5399   0.7298   1.0314   1.4233   1.6868   1.9038   2.0109   2.1377
     6.6489   6.7353   6.8319   7.4915   7.6295   8.7333   9.2801   9.7130
     9.8629  10.2404  10.5105  10.6982  10.8920  11.1561  11.2709  11.4796

     occupation numbers 
     1.0000   1.0000   1.0000   1.0000   1.0000   1.0000   1.0000   1.0000
     1.0000   1.0000   1.0000   1.0000   1.0000   1.0000   1.0000   1.0000
     1.0000   1.0000   1.0000   1.0000   1.0000   1.0000   1.0000   1.0000
     1.0000   1.0000   1.0000   1.0000   1.0000   1.0000   1.0000   1.0000
     1.0000   1.0000   1.0000   1.0000   1.0000   1.0000   1.0000   1.0000
     1.0000   1.0000   1.0000   1.0000   1.0000   1.0000   1.0000   1.0000
     0.0000   0.0000   0.0000   0.0000   0.0000   0.0000   0.0000   0.0000
     0.0000   0.0000   0.0000   0.0000   0.0000   0.0000   0.0000   0.0000

          k = 0.3333 0.0256-0.1495 (  4591 PWs)   bands (ev):

   -71.6829 -40.5475 -40.5274 -40.4876 -20.8701 -20.3146 -17.3247 -17.2097
   -17.1620 -16.8365 -16.7000 -16.4644 -16.2809 -16.1816 -16.0867  -7.5503
    -6.3470  -5.4453  -4.9738  -4.8059  -4.1766  -3.8299  -3.7487  -3.6655
    -3.5337  -3.3693  -3.1449  -2.9154  -2.1224  -1.8909  -1.7970  -0.8717
    -0.7363  -0.5051  -0.3845  -0.2592  -0.1393   0.0108   0.1489   0.2627
     0.5348   0.7484   1.0356   1.4422   1.6759   1.8826   2.0003   2.1442
     6.6508   6.7343   6.8298   7.5146   7.6708   8.6245   9.2171   9.7143
    10.0378  10.2902  10.5147  10.6948  10.9633  11.1380  11.2137  11.5498

     occupation numbers 
     1.0000   1.0000   1.0000   1.0000   1.0000   1.0000   1.0000   1.0000
     1.0000   1.0000   1.0000   1.0000   1.0000   1.0000   1.0000   1.0000
     1.0000   1.0000   1.0000   1.0000   1.0000   1.0000   1.0000   1.0000
     1.0000   1.0000   1.0000   1.0000   1.0000   1.0000   1.0000   1.0000
     1.0000   1.0000   1.0000   1.0000   1.0000   1.0000   1.0000   1.0000
     1.0000   1.0000   1.0000   1.0000   1.0000   1.0000   1.0000   1.0000
     0.0000   0.0000   0.0000   0.0000   0.0000   0.0000   0.0000   0.0000
     0.0000   0.0000   0.0000   0.0000   0.0000   0.0000   0.0000   0.0000

          k = 0.3333 0.2973 0.1144 (  4597 PWs)   bands (ev):

   -71.6829 -40.5477 -40.5266 -40.4878 -20.8679 -20.3115 -17.3240 -17.2134
   -17.1635 -16.8465 -16.7011 -16.4786 -16.2711 -16.1794 -16.0831  -7.5440
    -6.2512  -5.4152  -5.1131  -4.7199  -4.1158  -3.9072  -3.7661  -3.6145
    -3.4823  -3.2928  -3.1650  -2.9903  -2.2002  -1.9768  -1.7916  -0.8393
    -0.7316  -0.5330  -0.3355  -0.2796  -0.1530   0.0044   0.1779   0.2205
     0.5127   0.7290   1.0163   1.4195   1.6262   1.9007   1.9796   2.1140
     6.6473   6.7342   6.8352   7.5369   7.5771   8.9967   9.7028  10.0077
    10.1413  10.3678  10.4813  10.6640  10.9195  11.1003  11.3064  11.4651

     occupation numbers 
     1.0000   1.0000   1.0000   1.0000   1.0000   1.0000   1.0000   1.0000
     1.0000   1.0000   1.0000   1.0000   1.0000   1.0000   1.0000   1.0000
     1.0000   1.0000   1.0000   1.0000   1.0000   1.0000   1.0000   1.0000
     1.0000   1.0000   1.0000   1.0000   1.0000   1.0000   1.0000   1.0000
     1.0000   1.0000   1.0000   1.0000   1.0000   1.0000   1.0000   1.0000
     1.0000   1.0000   1.0000   1.0000   1.0000   1.0000   1.0000   1.0000
     0.0000   0.0000   0.0000   0.0000   0.0000   0.0000   0.0000   0.0000
     0.0000   0.0000   0.0000   0.0000   0.0000   0.0000   0.0000   0.0000

          k = 0.3333 0.2973 0.3064 (  4597 PWs)   bands (ev):

   -71.6829 -40.5475 -40.5268 -40.4875 -20.8678 -20.3120 -17.3207 -17.2146
   -17.1651 -16.8473 -16.7002 -16.4796 -16.2695 -16.1795 -16.0839  -7.5265
    -6.2929  -5.4064  -5.0516  -4.8117  -4.0989  -3.8973  -3.7636  -3.5922
    -3.4547  -3.3078  -3.1839  -2.9960  -2.2073  -1.9087  -1.8356  -0.8347
    -0.7263  -0.5121  -0.3345  -0.2843  -0.1660   0.0175   0.1247   0.2457
     0.5566   0.6695   1.0346   1.4484   1.6104   1.8774   1.9683   2.1222
     6.6471   6.7338   6.8337   7.5470   7.6311   9.3174   9.4684   9.8457
    10.1012  10.3185  10.4649  10.6334  10.8692  11.0881  11.3497  11.5898

     occupation numbers 
     1.0000   1.0000   1.0000   1.0000   1.0000   1.0000   1.0000   1.0000
     1.0000   1.0000   1.0000   1.0000   1.0000   1.0000   1.0000   1.0000
     1.0000   1.0000   1.0000   1.0000   1.0000   1.0000   1.0000   1.0000
     1.0000   1.0000   1.0000   1.0000   1.0000   1.0000   1.0000   1.0000
     1.0000   1.0000   1.0000   1.0000   1.0000   1.0000   1.0000   1.0000
     1.0000   1.0000   1.0000   1.0000   1.0000   1.0000   1.0000   1.0000
     0.0000   0.0000   0.0000   0.0000   0.0000   0.0000   0.0000   0.0000
     0.0000   0.0000   0.0000   0.0000   0.0000   0.0000   0.0000   0.0000

          k = 0.3333 0.2973-0.0777 (  4590 PWs)   bands (ev):

   -71.6828 -40.5468 -40.5268 -40.4876 -20.8683 -20.3106 -17.3224 -17.2170
   -17.1636 -16.8483 -16.7002 -16.4819 -16.2660 -16.1771 -16.0834  -7.5568
    -6.2384  -5.3811  -5.0653  -4.8328  -4.1328  -3.9501  -3.6616  -3.6053
    -3.4703  -3.3231  -3.1596  -2.9908  -2.1627  -1.9813  -1.8040  -0.8642
    -0.7110  -0.4765  -0.3535  -0.2814  -0.1908  -0.0058   0.1355   0.2260
     0.5329   0.7396   1.0447   1.4099   1.6240   1.8669   1.9948   2.1328
     6.6487   6.7347   6.8316   7.5597   7.6295   8.9523   9.5097   9.9695
    10.1162  10.4058  10.5532  10.8028  10.9413  11.1250  11.3084  11.5528

     occupation numbers 
     1.0000   1.0000   1.0000   1.0000   1.0000   1.0000   1.0000   1.0000
     1.0000   1.0000   1.0000   1.0000   1.0000   1.0000   1.0000   1.0000
     1.0000   1.0000   1.0000   1.0000   1.0000   1.0000   1.0000   1.0000
     1.0000   1.0000   1.0000   1.0000   1.0000   1.0000   1.0000   1.0000
     1.0000   1.0000   1.0000   1.0000   1.0000   1.0000   1.0000   1.0000
     1.0000   1.0000   1.0000   1.0000   1.0000   1.0000   1.0000   1.0000
     0.0000   0.0000   0.0000   0.0000   0.0000   0.0000   0.0000   0.0000
     0.0000   0.0000   0.0000   0.0000   0.0000   0.0000   0.0000   0.0000

          k = 0.3333-0.2460-0.0293 (  4594 PWs)   bands (ev):

   -71.6828 -40.5471 -40.5273 -40.4871 -20.8684 -20.3120 -17.3178 -17.2147
   -17.1577 -16.8389 -16.7123 -16.4723 -16.2732 -16.1803 -16.0955  -7.5335
    -6.2322  -5.3092  -5.1332  -4.8551  -4.1082  -3.9717  -3.7908  -3.6092
    -3.4379  -3.3695  -3.0890  -2.9674  -2.1550  -1.9409  -1.8544  -0.8890
    -0.7187  -0.4779  -0.3522  -0.2622  -0.0956   0.0879   0.1613   0.2368
     0.4923   0.7263   0.9616   1.4167   1.6247   1.8633   1.9553   2.1092
     6.6498   6.7305   6.8364   7.5469   7.6543   8.8813   9.6580  10.0718
    10.2648  10.3710  10.6016  10.6845  10.8512  11.0776  11.3819  11.4519

     occupation numbers 
     1.0000   1.0000   1.0000   1.0000   1.0000   1.0000   1.0000   1.0000
     1.0000   1.0000   1.0000   1.0000   1.0000   1.0000   1.0000   1.0000
     1.0000   1.0000   1.0000   1.0000   1.0000   1.0000   1.0000   1.0000
     1.0000   1.0000   1.0000   1.0000   1.0000   1.0000   1.0000   1.0000
     1.0000   1.0000   1.0000   1.0000   1.0000   1.0000   1.0000   1.0000
     1.0000   1.0000   1.0000   1.0000   1.0000   1.0000   1.0000   1.0000
     0.0000   0.0000   0.0000   0.0000   0.0000   0.0000   0.0000   0.0000
     0.0000   0.0000   0.0000   0.0000   0.0000   0.0000   0.0000   0.0000

          k = 0.3333-0.2460 0.1628 (  4602 PWs)   bands (ev):

   -71.6829 -40.5468 -40.5281 -40.4879 -20.8688 -20.3113 -17.3174 -17.2180
   -17.1583 -16.8411 -16.7112 -16.4717 -16.2718 -16.1777 -16.0964  -7.5503
    -6.2269  -5.2993  -5.0892  -4.8764  -4.1373  -4.0077  -3.7370  -3.6155
    -3.4687  -3.3764  -3.0652  -2.9679  -2.1401  -1.9631  -1.8422  -0.9111
    -0.6746  -0.4859  -0.3209  -0.2689  -0.1731   0.0986   0.1688   0.2507
     0.4810   0.7117   0.9805   1.3812   1.6292   1.8576   1.9721   2.1118
     6.6507   6.7337   6.8349   7.5449   7.6745   8.9295   9.6382   9.9660
    10.1140  10.3053  10.6291  10.8405  10.9277  11.1097  11.3087  11.4458

     occupation numbers 
     1.0000   1.0000   1.0000   1.0000   1.0000   1.0000   1.0000   1.0000
     1.0000   1.0000   1.0000   1.0000   1.0000   1.0000   1.0000   1.0000
     1.0000   1.0000   1.0000   1.0000   1.0000   1.0000   1.0000   1.0000
     1.0000   1.0000   1.0000   1.0000   1.0000   1.0000   1.0000   1.0000
     1.0000   1.0000   1.0000   1.0000   1.0000   1.0000   1.0000   1.0000
     1.0000   1.0000   1.0000   1.0000   1.0000   1.0000   1.0000   1.0000
     0.0000   0.0000   0.0000   0.0000   0.0000   0.0000   0.0000   0.0000
     0.0000   0.0000   0.0000   0.0000   0.0000   0.0000   0.0000   0.0000

          k = 0.3333-0.2460-0.2213 (  4589 PWs)   bands (ev):

   -71.6828 -40.5461 -40.5274 -40.4875 -20.8680 -20.3125 -17.3141 -17.2128
   -17.1618 -16.8405 -16.7125 -16.4728 -16.2721 -16.1803 -16.0950  -7.5273
    -6.2747  -5.2634  -5.0595  -4.9155  -4.1194  -3.9779  -3.7442  -3.6568
    -3.4513  -3.3843  -3.0824  -2.9528  -2.1325  -1.9361  -1.8687  -0.9330
    -0.6899  -0.4516  -0.3669  -0.2308  -0.1028   0.0564   0.1843   0.2192
     0.5416   0.6502   0.9711   1.4080   1.6428   1.8925   1.9744   2.1018
     6.6505   6.7329   6.8331   7.4928   7.6717   9.1047   9.5328   9.7350
    10.1064  10.3586  10.6142  10.7876  10.9440  11.1521  11.3180  11.5227

     occupation numbers 
     1.0000   1.0000   1.0000   1.0000   1.0000   1.0000   1.0000   1.0000
     1.0000   1.0000   1.0000   1.0000   1.0000   1.0000   1.0000   1.0000
     1.0000   1.0000   1.0000   1.0000   1.0000   1.0000   1.0000   1.0000
     1.0000   1.0000   1.0000   1.0000   1.0000   1.0000   1.0000   1.0000
     1.0000   1.0000   1.0000   1.0000   1.0000   1.0000   1.0000   1.0000
     1.0000   1.0000   1.0000   1.0000   1.0000   1.0000   1.0000   1.0000
     0.0000   0.0000   0.0000   0.0000   0.0000   0.0000   0.0000   0.0000
     0.0000   0.0000   0.0000   0.0000   0.0000   0.0000   0.0000   0.0000

     highest occupied, lowest unoccupied level (ev):     3.7910    6.5866

!    total energy              =    -744.73978783 Ry
     estimated scf accuracy    <       0.00000014 Ry

     The total energy is the sum of the following terms:
     one-electron contribution =    -462.37519447 Ry
     hartree contribution      =     275.06257920 Ry
     xc contribution           =    -152.74492221 Ry
     ewald contribution        =    -309.48477350 Ry
     one-center paw contrib.   =     -95.19747686 Ry
      -> PAW hartree energy AE =       0.00000000 Ry
      -> PAW hartree energy PS =       0.00000000 Ry
      -> PAW xc energy AE      =       0.00000000 Ry
      -> PAW xc energy PS      =       0.00000000 Ry
      -> total E_H with PAW    =     275.06257920 Ry
      -> total E_XC with PAW   =    -152.74492221 Ry

     total magnetization       =     5.00 Bohr mag/cell
     absolute magnetization    =     5.01 Bohr mag/cell

     convergence has been achieved in  10 iterations

     Writing all to output data dir bands_nm/myprefix.save/
 
     init_run     :      5.27s CPU      1.52s WALL (       1 calls)
     electrons    :     78.75s CPU     20.31s WALL (       1 calls)

     Called by init_run:
     wfcinit      :      2.16s CPU      0.56s WALL (       1 calls)
     wfcinit:atom :      0.03s CPU      0.01s WALL (      14 calls)
     wfcinit:wfcr :      1.97s CPU      0.51s WALL (      14 calls)
     potinit      :      0.79s CPU      0.20s WALL (       1 calls)
     hinit0       :      2.06s CPU      0.69s WALL (       1 calls)

     Called by electrons:
     c_bands      :     63.81s CPU     16.39s WALL (      10 calls)
     sum_band     :     10.05s CPU      2.61s WALL (      10 calls)
     v_of_rho     :      0.98s CPU      0.26s WALL (      11 calls)
     v_h          :      0.04s CPU      0.01s WALL (      11 calls)
     v_xc         :      0.94s CPU      0.25s WALL (      11 calls)
     newd         :      2.05s CPU      0.55s WALL (      11 calls)
     PAW_pot      :      1.76s CPU      0.46s WALL (      11 calls)
     mix_rho      :      0.24s CPU      0.06s WALL (      10 calls)

     Called by c_bands:
     init_us_2    :      0.51s CPU      0.13s WALL (     294 calls)
     init_us_2:cp :      0.51s CPU      0.13s WALL (     294 calls)
     cegterg      :     59.32s CPU     15.20s WALL (     140 calls)

     Called by sum_band:
     sum_band:wei :      0.00s CPU      0.00s WALL (      10 calls)
     sum_band:loo :      6.71s CPU      1.72s WALL (      10 calls)
     sum_band:buf :      0.19s CPU      0.04s WALL (     140 calls)
     sum_band:ini :      0.23s CPU      0.06s WALL (     140 calls)
     sum_band:cal :      1.44s CPU      0.36s WALL (     140 calls)
     sum_band:bec :      0.03s CPU      0.02s WALL (     140 calls)
     addusdens    :      3.15s CPU      0.84s WALL (      10 calls)
     addusd:skk   :      0.01s CPU      0.00s WALL (      50 calls)
     addusd:dgemm :      0.95s CPU      0.27s WALL (     100 calls)
     addusd:qvan2 :      2.07s CPU      0.54s WALL (     100 calls)

     Called by *egterg:
     cdiaghg      :     11.83s CPU      3.04s WALL (     763 calls)
     cegterg:over :      4.22s CPU      0.98s WALL (     623 calls)
     cegterg:upda :      1.66s CPU      0.54s WALL (     623 calls)
     cegterg:last :      4.41s CPU      1.15s WALL (     305 calls)
     h_psi        :     32.68s CPU      8.47s WALL (     777 calls)
     s_psi        :      3.75s CPU      0.97s WALL (     777 calls)
     g_psi        :      0.08s CPU      0.02s WALL (     623 calls)

     Called by h_psi:
     h_psi:calbec :      4.15s CPU      1.05s WALL (     777 calls)
     vloc_psi     :     25.08s CPU      6.41s WALL (     777 calls)
     add_vuspsi   :      3.37s CPU      0.97s WALL (     777 calls)

     General routines
     calbec       :      5.58s CPU      1.41s WALL (     917 calls)
     fft          :      0.70s CPU      0.19s WALL (     269 calls)
     ffts         :      0.04s CPU      0.01s WALL (      42 calls)
     fftw         :     27.92s CPU      6.29s WALL (   60472 calls)
     interpolate  :      0.09s CPU      0.03s WALL (      22 calls)
 
     Parallel routines

     PAW routines
     PAW_pot      :      1.76s CPU      0.46s WALL (      11 calls)
 
     PWSCF        :   1m28.28s CPU     23.66s WALL

 
   This run was terminated on:  14:21:27  15Jul2023            

=------------------------------------------------------------------------------=
   JOB DONE.
=------------------------------------------------------------------------------=
