
     Program PWSCF v.7.1 starts on 15Jul2023 at 19: 3:10 

     This program is part of the open-source Quantum ESPRESSO suite
     for quantum simulation of materials; please cite
         "P. Giannozzi et al., J. Phys.:Condens. Matter 21 395502 (2009);
         "P. Giannozzi et al., J. Phys.:Condens. Matter 29 465901 (2017);
         "P. Giannozzi et al., J. Chem. Phys. 152 154105 (2020);
          URL http://www.quantum-espresso.org", 
     in publications or presentations arising from this work. More details at
     http://www.quantum-espresso.org/quote

     Parallel version (MPI & OpenMP), running on      32 processor cores
     Number of MPI processes:                 8
     Threads/MPI process:                     4

     MPI processes distributed on     1 nodes
     230348 MiB available memory on the printing compute node when the environment starts
 
     Reading input from espresso_14318.pwi
Warning: card &CELL ignored
Warning: card / ignored

     Current dimensions of program PWSCF are:
     Max number of different atomic species (ntypx) = 10
     Max number of k-points (npk) =  40000
     Max angular momentum in pseudopotentials (lmaxx) =  4
     file La.paw.z_11.atompaw.wentzcovitch.v1.2.upf: wavefunction(s)  6S 0P 5D 0D 4F 0F renormalized
     file Mg.pbe-n-kjpaw_psl.0.3.0.UPF: wavefunction(s)  3S renormalized
     file Fe.pbe-spn-kjpaw_psl.0.2.1.UPF: wavefunction(s)  3D renormalized
     file O.pbe-n-kjpaw_psl.0.1.UPF: wavefunction(s)  2P renormalized
     Message from routine setup:
     using ibrav=0 with symmetry is DISCOURAGED, use correct ibrav instead
 
     K-points division:     npool     =       2
     R & G space division:  proc/nbgrp/npool/nimage =       4
     Subspace diagonalization in iterative solution of the eigenvalue problem:
     one sub-group per band group will be used
     scalapack distributed-memory algorithm (size of sub-group:  2*  2 procs)

 
     Parallelization info
     --------------------
     sticks:   dense  smooth     PW     G-vecs:    dense   smooth      PW
     Min         522     260     74                26310     9299    1430
     Max         523     261     75                26315     9303    1433
     Sum        2091    1043    297               105253    37207    5725
 
     Using Slab Decomposition
 


     bravais-lattice index     =            0
     lattice parameter (alat)  =      10.6758  a.u.
     unit-cell volume          =    1675.9549 (a.u.)^3
     number of atoms/cell      =           20
     number of atomic types    =            5
     number of electrons       =       160.00
     number of Kohn-Sham states=          256
     kinetic-energy cutoff     =      30.0000  Ry
     charge density cutoff     =     240.0000  Ry
     scf convergence threshold =      1.0E-06
     mixing beta               =       0.7000
     number of iterations used =            8  plain     mixing
     Exchange-correlation= SLA  PW   PBX  PBC
                           (   1   4   3   4   0   0   0)

     celldm(1)=  10.675824  celldm(2)=   0.000000  celldm(3)=   0.000000
     celldm(4)=   0.000000  celldm(5)=   0.000000  celldm(6)=   0.000000

     crystal axes: (cart. coord. in units of alat)
               a(1) = (   1.000000   0.000000   0.000000 )  
               a(2) = (   0.000000   0.960742   0.000000 )  
               a(3) = (   0.000000   0.961355   1.433677 )  

     reciprocal axes: (cart. coord. in units 2 pi/alat)
               b(1) = (  1.000000  0.000000  0.000000 )  
               b(2) = (  0.000000  1.040862 -0.697952 )  
               b(3) = (  0.000000  0.000000  0.697507 )  


     PseudoPot. # 1 for La read from file:
     /lustre07/scratch/pragov/crystal_structure_design/utils/SSSP/La.paw.z_11.atompaw.wentzcovitch.v1.2.upf
     MD5 check sum: 754494e15ae71f30e5b5f678af019e01
     Pseudo is Projector augmented-wave + core cor, Zval = 11.0
     Generated using ATOMPAW code
     Shape of augmentation charge: BESSEL
     Using radial grid of 1101 points,  8 beta functions with: 
                l(1) =   0
                l(2) =   0
                l(3) =   1
                l(4) =   1
                l(5) =   2
                l(6) =   2
                l(7) =   3
                l(8) =   3
     Q(r) pseudized with 0 coefficients 


     PseudoPot. # 2 for Mg read from file:
     /lustre07/scratch/pragov/crystal_structure_design/utils/SSSP/Mg.pbe-n-kjpaw_psl.0.3.0.UPF
     MD5 check sum: 24ecedc7f3e3cbe212e682f4413594e4
     Pseudo is Projector augmented-wave + core cor, Zval =  2.0
     Generated using "atomic" code by A. Dal Corso  v.5.0.99 svn rev. 10869
     Shape of augmentation charge: PSQ
     Using radial grid of 1129 points,  4 beta functions with: 
                l(1) =   0
                l(2) =   0
                l(3) =   1
                l(4) =   1
     Q(r) pseudized with 0 coefficients 


     PseudoPot. # 3 for Fe read from file:
     /lustre07/scratch/pragov/crystal_structure_design/utils/SSSP/Fe.pbe-spn-kjpaw_psl.0.2.1.UPF
     MD5 check sum: e86618425769142926afa95317d90200
     Pseudo is Projector augmented-wave + core cor, Zval = 16.0
     Generated using "atomic" code by A. Dal Corso  v.5.0.99 svn rev. 10869
     Shape of augmentation charge: PSQ
     Using radial grid of 1191 points,  6 beta functions with: 
                l(1) =   0
                l(2) =   0
                l(3) =   1
                l(4) =   1
                l(5) =   2
                l(6) =   2
     Q(r) pseudized with 0 coefficients 


     PseudoPot. # 4 for Sb read from file:
     /lustre07/scratch/pragov/crystal_structure_design/utils/SSSP/sb_pbe_v1.4.uspp.F.UPF
     MD5 check sum: 9bc50dfb53373b713f5709b9110fe27f
     Pseudo is Ultrasoft + core correction, Zval = 15.0
     Generated by new atomic code, or converted to UPF format
     Using radial grid of  891 points,  6 beta functions with: 
                l(1) =   0
                l(2) =   0
                l(3) =   1
                l(4) =   1
                l(5) =   2
                l(6) =   2
     Q(r) pseudized with  8 coefficients,  rinner =    1.350   1.350   1.350
                                                       1.350   1.350

     PseudoPot. # 5 for O  read from file:
     /lustre07/scratch/pragov/crystal_structure_design/utils/SSSP/O.pbe-n-kjpaw_psl.0.1.UPF
     MD5 check sum: 0234752ac141de4415c5fc33072bef88
     Pseudo is Projector augmented-wave + core cor, Zval =  6.0
     Generated using "atomic" code by A. Dal Corso  v.5.0.99 svn rev. 10869
     Shape of augmentation charge: BESSEL
     Using radial grid of 1095 points,  4 beta functions with: 
                l(1) =   0
                l(2) =   0
                l(3) =   1
                l(4) =   1
     Q(r) pseudized with 0 coefficients 


     atomic species   valence    mass     pseudopotential
        La            11.00   138.90547     La( 1.00)
        Mg             2.00    24.30500     Mg( 1.00)
        Fe            16.00    55.84500     Fe( 1.00)
        Sb            15.00   121.76000     Sb( 1.00)
        O              6.00    15.99900     O ( 1.00)

      2 Sym. Ops. (no inversion) found ( 1 have fractional translation)


                                    s                        frac. trans.

      isym =  1     identity                                     

 cryst.   s( 1) = (     1          0          0      )
                  (     0          1          0      )
                  (     0          0          1      )

 cart.    s( 1) = (  1.0000000  0.0000000  0.0000000 )
                  (  0.0000000  1.0000000  0.0000000 )
                  (  0.0000000  0.0000000  1.0000000 )


      isym =  2     inv. 180 deg rotation - cart. axis [1,0,0]   

 cryst.   s( 2) = (    -1          0          0      )    f =(  0.0000000 )
                  (     0          1          0      )       ( -0.0000000 )
                  (     0          0          1      )       (  0.5000000 )

 cart.    s( 2) = ( -1.0000000  0.0000000  0.0000000 )    f =(  0.0000000 )
                  (  0.0000000  1.0000000  0.0000000 )       (  0.4806774 )
                  (  0.0000000  0.0000000  1.0000000 )       (  0.7168384 )


   Cartesian axes

     site n.     atom                  positions (alat units)
         1           La  tau(   1) = (   0.2052470   0.9465087   0.3596407  )
         2           La  tau(   2) = (   0.7947530   1.4271861   1.0764791  )
         3           Mg  tau(   3) = (   0.6926340   0.5094289   0.3669940  )
         4           Mg  tau(   4) = (   0.3073660   0.9901064   1.0838324  )
         5           Fe  tau(   5) = (   0.7511620   0.9617170   1.4313284  )
         6           Fe  tau(   6) = (   0.2488380   0.4810396   0.7144900  )
         7           Sb  tau(   7) = (   0.7460570   0.9626874   0.7143682  )
         8           Sb  tau(   8) = (   0.2539430   1.4433648   1.4312066  )
         9           O   tau(   9) = (   0.2095010   1.5848071   1.1028487  )
        10           O   tau(  10) = (   0.0617050   1.1484601   1.3455085  )
        11           O   tau(  11) = (   0.0457710   1.1286505   0.8217147  )
        12           O   tau(  12) = (   0.9542290   0.6479731   0.1048763  )
        13           O   tau(  13) = (   0.9382950   0.6677827   0.6286701  )
        14           O   tau(  14) = (   0.7904990   1.1041297   0.3860103  )
        15           O   tau(  15) = (   0.6801430   0.8635502   1.0513138  )
        16           O   tau(  16) = (   0.5311550   1.2303185   0.8021221  )
        17           O   tau(  17) = (   0.5174920   1.2360174   1.3230600  )
        18           O   tau(  18) = (   0.4825080   0.7553399   0.6062216  )
        19           O   tau(  19) = (   0.4688450   0.7496410   0.0852837  )
        20           O   tau(  20) = (   0.3198570   0.3828728   0.3344754  )

   Crystallographic axes

     site n.     atom                  positions (cryst. coord.)
         1           La  tau(   1) = (  0.2052470  0.7341730  0.2508520  )
         2           La  tau(   2) = (  0.7947530  0.7341730  0.7508520  )
         3           Mg  tau(   3) = (  0.6926340  0.2741010  0.2559810  )
         4           Mg  tau(   4) = (  0.3073660  0.2741010  0.7559810  )
         5           Fe  tau(   5) = (  0.7511620  0.0020160  0.9983620  )
         6           Fe  tau(   6) = (  0.2488380  0.0020160  0.4983620  )
         7           Sb  tau(   7) = (  0.7460570  0.5034300  0.4982770  )
         8           Sb  tau(   8) = (  0.2539430  0.5034300  0.9982770  )
         9           O   tau(   9) = (  0.2095010  0.8798300  0.7692450  )
        10           O   tau(  10) = (  0.0617050  0.2562880  0.9385020  )
        11           O   tau(  11) = (  0.0457710  0.6012520  0.5731520  )
        12           O   tau(  12) = (  0.9542290  0.6012520  0.0731520  )
        13           O   tau(  13) = (  0.9382950  0.2562880  0.4385020  )
        14           O   tau(  14) = (  0.7904990  0.8798300  0.2692450  )
        15           O   tau(  15) = (  0.6801430  0.1650700  0.7332990  )
        16           O   tau(  16) = (  0.5311550  0.7207490  0.5594860  )
        17           O   tau(  17) = (  0.5174920  0.3630910  0.9228440  )
        18           O   tau(  18) = (  0.4825080  0.3630910  0.4228440  )
        19           O   tau(  19) = (  0.4688450  0.7207490  0.0594860  )
        20           O   tau(  20) = (  0.3198570  0.1650700  0.2332990  )

     number of k points=    10
                       cart. coord. in units 2pi/alat
        k(    1) = (   0.0000000   0.0000000   0.0000000), wk =   0.0740741
        k(    2) = (   0.0000000   0.0000000   0.2325024), wk =   0.1481481
        k(    3) = (   0.0000000   0.3469540  -0.2326507), wk =   0.1481481
        k(    4) = (   0.0000000   0.3469540  -0.0001483), wk =   0.1481481
        k(    5) = (   0.0000000   0.3469540  -0.4651532), wk =   0.1481481
        k(    6) = (   0.3333333   0.0000000   0.0000000), wk =   0.1481481
        k(    7) = (   0.3333333   0.0000000   0.2325024), wk =   0.2962963
        k(    8) = (   0.3333333   0.3469540  -0.2326507), wk =   0.2962963
        k(    9) = (   0.3333333   0.3469540  -0.0001483), wk =   0.2962963
        k(   10) = (   0.3333333   0.3469540  -0.4651532), wk =   0.2962963

                       cryst. coord.
        k(    1) = (   0.0000000   0.0000000   0.0000000), wk =   0.0740741
        k(    2) = (   0.0000000   0.0000000   0.3333333), wk =   0.1481481
        k(    3) = (   0.0000000   0.3333333   0.0000000), wk =   0.1481481
        k(    4) = (   0.0000000   0.3333333   0.3333333), wk =   0.1481481
        k(    5) = (   0.0000000   0.3333333  -0.3333333), wk =   0.1481481
        k(    6) = (   0.3333333   0.0000000   0.0000000), wk =   0.1481481
        k(    7) = (   0.3333333   0.0000000   0.3333333), wk =   0.2962963
        k(    8) = (   0.3333333   0.3333333   0.0000000), wk =   0.2962963
        k(    9) = (   0.3333333   0.3333333   0.3333333), wk =   0.2962963
        k(   10) = (   0.3333333   0.3333333  -0.3333333), wk =   0.2962963

     Dense  grid:   105253 G-vectors     FFT dimensions: (  54,  54,  96)

     Smooth grid:    37207 G-vectors     FFT dimensions: (  40,  36,  72)

     Dynamical RAM for                 wfc:       4.54 MB

     Dynamical RAM for     wfc (w. buffer):      27.23 MB

     Dynamical RAM for           str. fact:       2.01 MB

     Dynamical RAM for           local pot:       0.00 MB

     Dynamical RAM for          nlocal pot:       4.40 MB

     Dynamical RAM for                qrad:      14.93 MB

     Dynamical RAM for          rho,v,vnew:       2.81 MB

     Dynamical RAM for               rhoin:       0.94 MB

     Dynamical RAM for            rho*nmix:       6.42 MB

     Dynamical RAM for           G-vectors:       1.58 MB

     Dynamical RAM for          h,s,v(r/c):       3.00 MB

     Dynamical RAM for          <psi|beta>:       0.97 MB

     Dynamical RAM for                 psi:       9.08 MB

     Dynamical RAM for                hpsi:       9.08 MB

     Dynamical RAM for                spsi:       9.08 MB

     Dynamical RAM for      wfcinit/wfcrot:      10.58 MB

     Dynamical RAM for           addusdens:     114.03 MB

     Estimated static dynamical RAM per process >      58.97 MB

     Estimated max dynamical RAM per process >     179.42 MB

     Estimated total dynamical RAM >       1.38 GB

     Check: negative core charge=   -0.000059

     Initial potential from superposition of free atoms

     starting charge     157.9802, renormalised to     160.0000

     negative rho (up, down):  1.528E-04 0.000E+00
     Starting wfcs are  164 randomized atomic wfcs +   92 random wfcs
     Checking if some PAW data can be deallocated... 
       PAW data deallocated on    7 nodes for type:  1
       PAW data deallocated on    6 nodes for type:  2
       PAW data deallocated on    7 nodes for type:  3
       PAW data deallocated on    2 nodes for type:  5

     total cpu time spent up to now is        3.0 secs

     Self-consistent Calculation

     iteration #  1     ecut=    30.00 Ry     beta= 0.70
     Davidson diagonalization with overlap

---- Real-time Memory Report at c_bands before calling an iterative solver
           339 MiB given to the printing process from OS
             0 MiB allocation reported by mallinfo(arena+hblkhd)
        229526 MiB available memory on the node where the printing process lives
------------------
     ethr =  1.00E-02,  avg # of iterations =  6.3

     total cpu time spent up to now is       16.3 secs

     total energy              =   -2502.68948279 Ry
     estimated scf accuracy    <      12.49073756 Ry

     iteration #  2     ecut=    30.00 Ry     beta= 0.70
     Davidson diagonalization with overlap

---- Real-time Memory Report at c_bands before calling an iterative solver
           420 MiB given to the printing process from OS
             0 MiB allocation reported by mallinfo(arena+hblkhd)
        228987 MiB available memory on the node where the printing process lives
------------------
     ethr =  7.81E-03,  avg # of iterations =  2.0

     negative rho (up, down):  1.484E-05 0.000E+00

     total cpu time spent up to now is       20.7 secs

     total energy              =   -2507.40346341 Ry
     estimated scf accuracy    <      85.28572580 Ry

     iteration #  3     ecut=    30.00 Ry     beta= 0.70
     Davidson diagonalization with overlap

---- Real-time Memory Report at c_bands before calling an iterative solver
           424 MiB given to the printing process from OS
             0 MiB allocation reported by mallinfo(arena+hblkhd)
        229044 MiB available memory on the node where the printing process lives
------------------
     ethr =  7.81E-03,  avg # of iterations =  2.0

     negative rho (up, down):  4.152E-05 0.000E+00

     total cpu time spent up to now is       25.0 secs

     total energy              =   -2511.36704257 Ry
     estimated scf accuracy    <      13.27616845 Ry

     iteration #  4     ecut=    30.00 Ry     beta= 0.70
     Davidson diagonalization with overlap

---- Real-time Memory Report at c_bands before calling an iterative solver
           424 MiB given to the printing process from OS
             0 MiB allocation reported by mallinfo(arena+hblkhd)
        229045 MiB available memory on the node where the printing process lives
------------------
     ethr =  7.81E-03,  avg # of iterations =  1.0

     negative rho (up, down):  1.632E-04 0.000E+00

     total cpu time spent up to now is       28.6 secs

     total energy              =   -2511.63112833 Ry
     estimated scf accuracy    <       1.58270781 Ry

     iteration #  5     ecut=    30.00 Ry     beta= 0.70
     Davidson diagonalization with overlap

---- Real-time Memory Report at c_bands before calling an iterative solver
           434 MiB given to the printing process from OS
             0 MiB allocation reported by mallinfo(arena+hblkhd)
        228747 MiB available memory on the node where the printing process lives
------------------
     ethr =  9.89E-04,  avg # of iterations =  2.6

     negative rho (up, down):  2.143E-04 0.000E+00

     total cpu time spent up to now is       33.0 secs

     total energy              =   -2511.85654898 Ry
     estimated scf accuracy    <       0.15696185 Ry

     iteration #  6     ecut=    30.00 Ry     beta= 0.70
     Davidson diagonalization with overlap

---- Real-time Memory Report at c_bands before calling an iterative solver
           434 MiB given to the printing process from OS
             0 MiB allocation reported by mallinfo(arena+hblkhd)
        228681 MiB available memory on the node where the printing process lives
------------------
     ethr =  9.81E-05,  avg # of iterations =  5.1

     negative rho (up, down):  3.624E-04 0.000E+00

     total cpu time spent up to now is       38.2 secs

     total energy              =   -2511.88674578 Ry
     estimated scf accuracy    <       0.10652977 Ry

     iteration #  7     ecut=    30.00 Ry     beta= 0.70
     Davidson diagonalization with overlap

---- Real-time Memory Report at c_bands before calling an iterative solver
           441 MiB given to the printing process from OS
             0 MiB allocation reported by mallinfo(arena+hblkhd)
        228773 MiB available memory on the node where the printing process lives
------------------
     ethr =  6.66E-05,  avg # of iterations =  2.8

     negative rho (up, down):  4.035E-04 0.000E+00

     total cpu time spent up to now is       42.8 secs

     total energy              =   -2511.89201914 Ry
     estimated scf accuracy    <       0.02965347 Ry

     iteration #  8     ecut=    30.00 Ry     beta= 0.70
     Davidson diagonalization with overlap

---- Real-time Memory Report at c_bands before calling an iterative solver
           441 MiB given to the printing process from OS
             0 MiB allocation reported by mallinfo(arena+hblkhd)
        228714 MiB available memory on the node where the printing process lives
------------------
     ethr =  1.85E-05,  avg # of iterations =  6.0

     negative rho (up, down):  3.385E-04 0.000E+00

     total cpu time spent up to now is       48.9 secs

     total energy              =   -2511.89880950 Ry
     estimated scf accuracy    <       0.01097156 Ry

     iteration #  9     ecut=    30.00 Ry     beta= 0.70
     Davidson diagonalization with overlap

---- Real-time Memory Report at c_bands before calling an iterative solver
           449 MiB given to the printing process from OS
             0 MiB allocation reported by mallinfo(arena+hblkhd)
        228675 MiB available memory on the node where the printing process lives
------------------
     ethr =  6.86E-06,  avg # of iterations =  5.9

     negative rho (up, down):  3.423E-04 0.000E+00

     total cpu time spent up to now is       54.2 secs

     total energy              =   -2511.90061438 Ry
     estimated scf accuracy    <       0.00039611 Ry

     iteration # 10     ecut=    30.00 Ry     beta= 0.70
     Davidson diagonalization with overlap

---- Real-time Memory Report at c_bands before calling an iterative solver
           456 MiB given to the printing process from OS
             0 MiB allocation reported by mallinfo(arena+hblkhd)
        228710 MiB available memory on the node where the printing process lives
------------------
     ethr =  2.48E-07,  avg # of iterations =  7.0

     negative rho (up, down):  3.415E-04 0.000E+00

     total cpu time spent up to now is       60.5 secs

     total energy              =   -2511.90077409 Ry
     estimated scf accuracy    <       0.00004617 Ry

     iteration # 11     ecut=    30.00 Ry     beta= 0.70
     Davidson diagonalization with overlap

---- Real-time Memory Report at c_bands before calling an iterative solver
           484 MiB given to the printing process from OS
             0 MiB allocation reported by mallinfo(arena+hblkhd)
        228471 MiB available memory on the node where the printing process lives
------------------
     ethr =  2.89E-08,  avg # of iterations =  1.2

     negative rho (up, down):  3.355E-04 0.000E+00

     total cpu time spent up to now is       64.4 secs

     total energy              =   -2511.90078558 Ry
     estimated scf accuracy    <       0.00001957 Ry

     iteration # 12     ecut=    30.00 Ry     beta= 0.70
     Davidson diagonalization with overlap

---- Real-time Memory Report at c_bands before calling an iterative solver
           484 MiB given to the printing process from OS
             0 MiB allocation reported by mallinfo(arena+hblkhd)
        228495 MiB available memory on the node where the printing process lives
------------------
     ethr =  1.22E-08,  avg # of iterations =  1.0

     negative rho (up, down):  3.349E-04 0.000E+00

     total cpu time spent up to now is       68.0 secs

     total energy              =   -2511.90078788 Ry
     estimated scf accuracy    <       0.00000127 Ry

     iteration # 13     ecut=    30.00 Ry     beta= 0.70
     Davidson diagonalization with overlap

---- Real-time Memory Report at c_bands before calling an iterative solver
           484 MiB given to the printing process from OS
             0 MiB allocation reported by mallinfo(arena+hblkhd)
        228508 MiB available memory on the node where the printing process lives
------------------
     ethr =  7.91E-10,  avg # of iterations =  4.7

     negative rho (up, down):  3.360E-04 0.000E+00

     total cpu time spent up to now is       72.7 secs

     End of self-consistent calculation

          k = 0.0000 0.0000 0.0000 (  4649 PWs)   bands (ev):

   -76.0794 -76.0782 -41.7414 -41.7323 -41.6466 -41.6453 -41.6333 -41.6314
   -20.9054 -20.8993 -19.6441 -19.6441 -19.6332 -19.6306 -19.4808 -19.4806
   -19.4771 -19.4732 -19.4642 -19.4628  -9.3525  -9.3370  -8.4113  -8.3714
    -8.0919  -8.0891  -7.9101  -7.8000  -7.6799  -7.5011  -7.3088  -7.1432
    -4.5682  -4.3527  -4.3305  -4.1808  -4.1225  -4.0413   0.8355   1.2098
     4.2087   4.4145   4.5097   4.6772   4.6919   4.9321   5.2505   5.5697
     5.7935   6.0479   6.2534   6.4111   6.4721   6.6299   6.7936   6.8038
     6.9406   7.0822   7.1132   7.3174   7.3805   7.4354   7.6917   7.7561
     7.7760   7.9268   7.9665   7.9761   8.0072   8.1495   8.2426   8.2658
     8.3979   8.4012   9.9637  10.1212  10.1432  10.3299  10.3443  10.3961
    11.3046  11.6210  11.8257  12.3725  12.3936  13.7041  14.0558  14.0598
    14.1125  14.1225  14.1442  14.1473  14.1632  14.1781  14.1927  14.2289
    14.2411  14.2772  14.2978  14.3246  15.1638  15.2183  15.4524  15.4862
    15.4984  15.7416  16.4341  16.5681  16.7318  17.0056  17.3225  17.4362
    17.5941  17.7495  17.8398  18.3464  18.6466  18.7443  19.3082  19.4589
    19.8653  19.9327  20.2715  20.3736  20.4993  21.1286  21.2629  21.6167
    22.4401  22.5841  22.9867  23.0067  23.6120  23.7805  24.0079  24.5773
    24.6320  24.6459  24.9451  25.0293  25.1155  25.3295  25.6142  25.7243
    25.9058  26.3180  26.4770  26.6856  26.9449  27.1512  27.3184  28.0783
    28.2165  28.5825  28.7691  29.0096  29.2026  29.4202  29.7215  29.8116
    30.2526  30.3461  30.7229  30.7945  30.8323  31.1581  31.3895  31.5024
    31.7928  32.1527  32.3372  32.5435  32.5686  32.7047  32.9809  33.4625
    33.7043  33.8361  34.1286  34.3452  34.5449  34.7636  34.8555  35.1363
    35.5050  36.0314  36.1765  36.3438  36.5102  36.7121  36.8071  37.0533
    37.0592  37.1981  37.2589  37.8627  37.8810  38.0322  38.0628  38.5116
    38.7659  39.0995  39.1470  39.5901  39.6899  39.7223  40.0772  40.2207
    40.2954  40.5181  40.6548  40.6612  40.9282  40.9649  41.2918  41.4188
    41.4558  41.5989  41.6085  41.7243  41.7467  41.9117  41.9664  42.3605
    42.4315  42.5008  42.6627  42.8133  42.9725  43.1333  43.2964  43.3712
    43.5307  43.5863  43.6178  43.7536  44.2304  44.2371  44.4815  44.6461
    44.6772  44.7458  45.1625  45.3398  45.3706  45.5712  45.7567  45.7757
    46.1700  46.2221  46.3433  46.6346  46.8097  47.0410  47.0942  47.1886

     occupation numbers 
     1.0000   1.0000   1.0000   1.0000   1.0000   1.0000   1.0000   1.0000
     1.0000   1.0000   1.0000   1.0000   1.0000   1.0000   1.0000   1.0000
     1.0000   1.0000   1.0000   1.0000   1.0000   1.0000   1.0000   1.0000
     1.0000   1.0000   1.0000   1.0000   1.0000   1.0000   1.0000   1.0000
     1.0000   1.0000   1.0000   1.0000   1.0000   1.0000   1.0000   1.0000
     1.0000   1.0000   1.0000   1.0000   1.0000   1.0000   1.0000   1.0000
     1.0000   1.0000   1.0000   1.0000   1.0000   1.0000   1.0000   1.0000
     1.0000   1.0000   1.0000   1.0000   1.0000   1.0000   1.0000   1.0000
     1.0000   1.0000   1.0000   1.0000   1.0000   1.0000   1.0000   1.0000
     1.0000   1.0000   1.0000   1.0000   1.0000   1.0000   1.0000   1.0000
     0.0000   0.0000   0.0000   0.0000   0.0000   0.0000   0.0000   0.0000
     0.0000   0.0000   0.0000   0.0000   0.0000   0.0000   0.0000   0.0000
     0.0000   0.0000   0.0000   0.0000   0.0000   0.0000   0.0000   0.0000
     0.0000   0.0000   0.0000   0.0000   0.0000   0.0000   0.0000   0.0000
     0.0000   0.0000   0.0000   0.0000   0.0000   0.0000   0.0000   0.0000
     0.0000   0.0000   0.0000   0.0000   0.0000   0.0000   0.0000   0.0000
     0.0000   0.0000   0.0000   0.0000   0.0000   0.0000   0.0000   0.0000
     0.0000   0.0000   0.0000   0.0000   0.0000   0.0000   0.0000   0.0000
     0.0000   0.0000   0.0000   0.0000   0.0000   0.0000   0.0000   0.0000
     0.0000   0.0000   0.0000   0.0000   0.0000   0.0000   0.0000   0.0000
     0.0000   0.0000   0.0000   0.0000   0.0000   0.0000   0.0000   0.0000
     0.0000   0.0000   0.0000   0.0000   0.0000   0.0000   0.0000   0.0000
     0.0000   0.0000   0.0000   0.0000   0.0000   0.0000   0.0000   0.0000
     0.0000   0.0000   0.0000   0.0000   0.0000   0.0000   0.0000   0.0000
     0.0000   0.0000   0.0000   0.0000   0.0000   0.0000   0.0000   0.0000
     0.0000   0.0000   0.0000   0.0000   0.0000   0.0000   0.0000   0.0000
     0.0000   0.0000   0.0000   0.0000   0.0000   0.0000   0.0000   0.0000
     0.0000   0.0000   0.0000   0.0000   0.0000   0.0000   0.0000   0.0000
     0.0000   0.0000   0.0000   0.0000   0.0000   0.0000   0.0000   0.0000
     0.0000   0.0000   0.0000   0.0000   0.0000   0.0000   0.0000   0.0000
     0.0000   0.0000   0.0000   0.0000   0.0000   0.0000   0.0000   0.0000
     0.0000   0.0000   0.0000   0.0000   0.0000   0.0000   0.0000   0.0000

          k = 0.0000 0.0000 0.2325 (  4625 PWs)   bands (ev):

   -76.0778 -76.0773 -41.7348 -41.7322 -41.6459 -41.6434 -41.6243 -41.6189
   -20.9038 -20.9008 -19.6423 -19.6420 -19.6311 -19.6310 -19.4819 -19.4816
   -19.4729 -19.4708 -19.4610 -19.4607  -9.3475  -9.3397  -8.3623  -8.3352
    -8.1479  -8.1275  -7.9408  -7.9324  -7.5331  -7.4838  -7.2610  -7.1728
    -4.5353  -4.4264  -4.2755  -4.2010  -4.1074  -4.0664   0.9400   1.1295
     4.2437   4.3258   4.4806   4.6551   4.7201   4.7546   5.3264   5.7291
     5.9855   6.0270   6.3043   6.3242   6.5909   6.6642   6.7485   6.8025
     6.8990   7.0361   7.1440   7.1463   7.4605   7.5342   7.6277   7.6655
     7.8381   7.8595   7.9312   7.9487   8.0490   8.2019   8.2717   8.2845
     8.3228   8.4103  10.0335  10.1010  10.1935  10.3136  10.3403  10.3474
    11.3619  11.6045  12.2479  12.3692  12.3795  13.2328  14.0406  14.0448
    14.1097  14.1206  14.1450  14.1538  14.1753  14.1776  14.2228  14.2309
    14.2495  14.2538  14.3098  14.3254  15.1412  15.3102  15.3944  15.5684
    15.6443  15.8030  16.0878  16.3816  16.5342  16.5508  17.4222  17.5477
    17.7690  18.0205  18.2975  18.4064  18.8173  18.8696  19.2327  19.3416
    19.8065  20.0459  20.3167  20.4528  20.8145  21.0543  21.2535  21.5884
    22.2686  22.4875  22.8517  23.0864  23.2627  23.7179  23.9327  24.0159
    24.3860  24.4736  24.6678  24.7408  25.3686  25.5357  25.5917  25.9035
    25.9512  26.2472  26.6100  26.7851  27.2500  27.2798  27.6206  28.0263
    28.1811  28.5501  29.0497  29.2707  29.3451  29.4547  29.8052  29.8819
    30.3818  30.5578  30.6429  30.7063  30.9932  31.1275  31.4090  31.8120
    31.8495  32.2074  32.3063  32.5136  32.9495  32.9790  33.2199  33.3987
    33.7910  33.8744  34.1068  34.1691  34.3490  34.7158  34.7571  35.2330
    35.3569  35.5169  35.8203  36.0861  36.2768  36.5015  36.5952  36.8314
    36.9144  37.1415  37.3030  37.3989  37.6641  37.8440  38.2414  38.2540
    38.4299  38.6198  38.8884  39.1218  39.4277  39.5691  39.9663  40.1372
    40.3781  40.4279  40.6680  40.7144  41.0347  41.0674  41.2604  41.4011
    41.5480  41.6412  41.6850  41.7300  41.9448  41.9648  42.2817  42.3977
    42.5944  42.6199  42.8817  42.9655  43.2559  43.3493  43.4751  43.5121
    43.6097  43.9342  44.1463  44.1880  44.2813  44.4463  44.7552  44.8444
    45.0125  45.0333  45.1668  45.1677  45.5266  45.5307  45.7645  45.9007
    45.9948  46.3627  46.6618  46.8165  46.9582  47.0085  47.2334  47.3216

     occupation numbers 
     1.0000   1.0000   1.0000   1.0000   1.0000   1.0000   1.0000   1.0000
     1.0000   1.0000   1.0000   1.0000   1.0000   1.0000   1.0000   1.0000
     1.0000   1.0000   1.0000   1.0000   1.0000   1.0000   1.0000   1.0000
     1.0000   1.0000   1.0000   1.0000   1.0000   1.0000   1.0000   1.0000
     1.0000   1.0000   1.0000   1.0000   1.0000   1.0000   1.0000   1.0000
     1.0000   1.0000   1.0000   1.0000   1.0000   1.0000   1.0000   1.0000
     1.0000   1.0000   1.0000   1.0000   1.0000   1.0000   1.0000   1.0000
     1.0000   1.0000   1.0000   1.0000   1.0000   1.0000   1.0000   1.0000
     1.0000   1.0000   1.0000   1.0000   1.0000   1.0000   1.0000   1.0000
     1.0000   1.0000   1.0000   1.0000   1.0000   1.0000   1.0000   1.0000
     0.0000   0.0000   0.0000   0.0000   0.0000   0.0000   0.0000   0.0000
     0.0000   0.0000   0.0000   0.0000   0.0000   0.0000   0.0000   0.0000
     0.0000   0.0000   0.0000   0.0000   0.0000   0.0000   0.0000   0.0000
     0.0000   0.0000   0.0000   0.0000   0.0000   0.0000   0.0000   0.0000
     0.0000   0.0000   0.0000   0.0000   0.0000   0.0000   0.0000   0.0000
     0.0000   0.0000   0.0000   0.0000   0.0000   0.0000   0.0000   0.0000
     0.0000   0.0000   0.0000   0.0000   0.0000   0.0000   0.0000   0.0000
     0.0000   0.0000   0.0000   0.0000   0.0000   0.0000   0.0000   0.0000
     0.0000   0.0000   0.0000   0.0000   0.0000   0.0000   0.0000   0.0000
     0.0000   0.0000   0.0000   0.0000   0.0000   0.0000   0.0000   0.0000
     0.0000   0.0000   0.0000   0.0000   0.0000   0.0000   0.0000   0.0000
     0.0000   0.0000   0.0000   0.0000   0.0000   0.0000   0.0000   0.0000
     0.0000   0.0000   0.0000   0.0000   0.0000   0.0000   0.0000   0.0000
     0.0000   0.0000   0.0000   0.0000   0.0000   0.0000   0.0000   0.0000
     0.0000   0.0000   0.0000   0.0000   0.0000   0.0000   0.0000   0.0000
     0.0000   0.0000   0.0000   0.0000   0.0000   0.0000   0.0000   0.0000
     0.0000   0.0000   0.0000   0.0000   0.0000   0.0000   0.0000   0.0000
     0.0000   0.0000   0.0000   0.0000   0.0000   0.0000   0.0000   0.0000
     0.0000   0.0000   0.0000   0.0000   0.0000   0.0000   0.0000   0.0000
     0.0000   0.0000   0.0000   0.0000   0.0000   0.0000   0.0000   0.0000
     0.0000   0.0000   0.0000   0.0000   0.0000   0.0000   0.0000   0.0000
     0.0000   0.0000   0.0000   0.0000   0.0000   0.0000   0.0000   0.0000

          k = 0.0000 0.3470-0.2327 (  4664 PWs)   bands (ev):

   -76.0802 -76.0791 -41.7405 -41.7317 -41.6594 -41.6582 -41.6305 -41.6286
   -20.9020 -20.9006 -19.6452 -19.6444 -19.6331 -19.6311 -19.4816 -19.4809
   -19.4763 -19.4741 -19.4650 -19.4645  -9.4158  -9.3306  -8.5692  -8.3360
    -8.2290  -8.0372  -8.0277  -7.7987  -7.5895  -7.3399  -7.2913  -7.1208
    -4.4830  -4.4339  -4.1847  -4.1600  -4.0756  -4.0284   1.0940   1.2611
     3.8469   3.9329   4.4165   4.4708   4.7021   4.9201   5.3836   5.6368
     6.1028   6.1128   6.2076   6.3732   6.5983   6.6712   6.7712   6.8411
     6.9450   6.9642   7.1823   7.2384   7.3943   7.4325   7.5946   7.6359
     7.7225   7.8067   7.8548   7.9556   8.0832   8.0998   8.2977   8.3545
     8.4135   8.5499  10.0477  10.1453  10.1463  10.2641  10.3128  10.3164
    11.4844  11.5795  12.2309  12.2310  12.8315  13.2774  14.0222  14.0641
    14.1118  14.1181  14.1442  14.1535  14.1697  14.1782  14.2135  14.2385
    14.2683  14.2858  14.3081  14.3351  14.7777  15.0886  15.3495  15.5050
    15.8446  15.9756  16.2008  16.3817  16.5214  16.7247  17.2764  17.4873
    17.8156  17.9087  18.2542  18.3455  18.6784  18.7345  19.3248  19.4625
    19.8656  20.1553  20.3866  20.5036  20.8127  21.1865  21.5399  21.7285
    22.2065  22.2515  22.5027  22.5712  23.3756  23.4942  23.6367  23.8079
    24.2691  24.3894  24.6140  24.7663  25.0916  25.2322  25.6005  25.9749
    26.1340  26.2956  26.4702  26.7709  27.2409  27.4248  27.7639  28.0328
    28.3069  28.5064  28.8473  29.0884  29.4258  29.6750  29.7145  30.3544
    30.4041  30.5494  31.2538  31.2971  31.4336  31.4877  31.8728  31.9194
    32.1963  32.3562  32.5882  32.6085  33.0756  33.4305  33.4664  33.6263
    33.8087  33.8721  34.3724  34.4202  34.7923  34.9160  35.3317  35.4425
    35.5242  35.6302  35.6535  35.6879  36.1589  36.3367  36.5694  36.6459
    36.7469  37.1328  37.2797  37.3276  37.6226  37.8137  37.9245  38.1594
    38.3144  38.7205  38.8821  38.9042  39.1335  39.2633  39.4795  39.6456
    39.8060  40.1213  40.4347  40.5360  40.7910  40.9799  40.9918  41.1313
    41.3407  41.5360  41.5868  41.6687  41.7022  41.7542  42.0943  42.1923
    42.3519  42.4024  42.6831  42.7061  42.9655  43.0010  43.4195  43.5443
    43.5838  43.7879  43.7964  44.0316  44.1806  44.2639  44.5011  44.6457
    45.0284  45.1413  45.2069  45.3433  45.5255  45.5412  45.7585  45.8750
    45.9463  46.2159  46.4074  46.5598  46.7728  46.8789  46.8978  47.0659

     occupation numbers 
     1.0000   1.0000   1.0000   1.0000   1.0000   1.0000   1.0000   1.0000
     1.0000   1.0000   1.0000   1.0000   1.0000   1.0000   1.0000   1.0000
     1.0000   1.0000   1.0000   1.0000   1.0000   1.0000   1.0000   1.0000
     1.0000   1.0000   1.0000   1.0000   1.0000   1.0000   1.0000   1.0000
     1.0000   1.0000   1.0000   1.0000   1.0000   1.0000   1.0000   1.0000
     1.0000   1.0000   1.0000   1.0000   1.0000   1.0000   1.0000   1.0000
     1.0000   1.0000   1.0000   1.0000   1.0000   1.0000   1.0000   1.0000
     1.0000   1.0000   1.0000   1.0000   1.0000   1.0000   1.0000   1.0000
     1.0000   1.0000   1.0000   1.0000   1.0000   1.0000   1.0000   1.0000
     1.0000   1.0000   1.0000   1.0000   1.0000   1.0000   1.0000   1.0000
     0.0000   0.0000   0.0000   0.0000   0.0000   0.0000   0.0000   0.0000
     0.0000   0.0000   0.0000   0.0000   0.0000   0.0000   0.0000   0.0000
     0.0000   0.0000   0.0000   0.0000   0.0000   0.0000   0.0000   0.0000
     0.0000   0.0000   0.0000   0.0000   0.0000   0.0000   0.0000   0.0000
     0.0000   0.0000   0.0000   0.0000   0.0000   0.0000   0.0000   0.0000
     0.0000   0.0000   0.0000   0.0000   0.0000   0.0000   0.0000   0.0000
     0.0000   0.0000   0.0000   0.0000   0.0000   0.0000   0.0000   0.0000
     0.0000   0.0000   0.0000   0.0000   0.0000   0.0000   0.0000   0.0000
     0.0000   0.0000   0.0000   0.0000   0.0000   0.0000   0.0000   0.0000
     0.0000   0.0000   0.0000   0.0000   0.0000   0.0000   0.0000   0.0000
     0.0000   0.0000   0.0000   0.0000   0.0000   0.0000   0.0000   0.0000
     0.0000   0.0000   0.0000   0.0000   0.0000   0.0000   0.0000   0.0000
     0.0000   0.0000   0.0000   0.0000   0.0000   0.0000   0.0000   0.0000
     0.0000   0.0000   0.0000   0.0000   0.0000   0.0000   0.0000   0.0000
     0.0000   0.0000   0.0000   0.0000   0.0000   0.0000   0.0000   0.0000
     0.0000   0.0000   0.0000   0.0000   0.0000   0.0000   0.0000   0.0000
     0.0000   0.0000   0.0000   0.0000   0.0000   0.0000   0.0000   0.0000
     0.0000   0.0000   0.0000   0.0000   0.0000   0.0000   0.0000   0.0000
     0.0000   0.0000   0.0000   0.0000   0.0000   0.0000   0.0000   0.0000
     0.0000   0.0000   0.0000   0.0000   0.0000   0.0000   0.0000   0.0000
     0.0000   0.0000   0.0000   0.0000   0.0000   0.0000   0.0000   0.0000
     0.0000   0.0000   0.0000   0.0000   0.0000   0.0000   0.0000   0.0000

          k = 0.0000 0.3470-0.0001 (  4662 PWs)   bands (ev):

   -76.0819 -76.0768 -41.7501 -41.7273 -41.6608 -41.6525 -41.6332 -41.6193
   -20.9028 -20.8998 -19.6450 -19.6431 -19.6329 -19.6315 -19.4838 -19.4788
   -19.4765 -19.4726 -19.4663 -19.4612  -9.3853  -9.3556  -8.5960  -8.3500
    -8.2287  -8.0301  -7.9361  -7.8830  -7.4892  -7.3849  -7.2605  -7.1944
    -4.4907  -4.3410  -4.2110  -4.2107  -4.0623  -4.0455   1.0598   1.2683
     3.9376   3.9446   4.4550   4.5285   4.7674   4.8730   5.3859   5.4550
     5.9814   6.1670   6.2104   6.4020   6.4697   6.5697   6.8000   6.8780
     7.0853   7.0988   7.1778   7.3308   7.3974   7.4985   7.5376   7.6437
     7.6605   7.7769   7.8527   7.9701   8.1345   8.1424   8.2122   8.2258
     8.3931   8.5291  10.0745  10.1278  10.1482  10.2833  10.3137  10.3161
    11.4032  11.6201  12.2160  12.2308  12.6859  13.4784  14.0549  14.0652
    14.1127  14.1275  14.1384  14.1579  14.1660  14.1724  14.2160  14.2261
    14.2733  14.2796  14.3096  14.3419  15.1392  15.2364  15.2634  15.4344
    15.6527  15.7357  16.3285  16.4248  16.7298  16.9896  17.0101  17.4844
    17.8248  17.8601  18.0066  18.2551  18.7127  18.7221  19.3240  19.4337
    19.8583  19.9134  20.5030  20.6016  20.8275  20.9473  21.4858  21.8056
    22.3265  22.3776  22.8869  22.8967  23.3315  23.3635  23.6785  23.8186
    24.1846  24.3230  24.6154  24.7007  24.9392  25.0390  25.3708  25.8377
    26.2846  26.4671  26.7448  26.9098  27.1164  27.5635  27.7464  28.1143
    28.3000  28.4028  28.9490  28.9929  29.3115  29.4865  29.7535  29.9522
    30.2296  30.5474  30.9936  31.2048  31.2653  31.3292  31.7019  32.0099
    32.3908  32.6606  32.9001  32.9203  33.2867  33.3125  33.5501  33.6137
    33.8583  34.1255  34.2231  34.3707  34.4229  34.9684  35.1202  35.2518
    35.4223  35.6447  35.6550  35.9523  36.2356  36.2714  36.5251  36.9971
    37.0598  37.1431  37.3682  37.5731  37.6228  37.9887  38.0648  38.2968
    38.5079  38.6560  38.7737  39.1639  39.4467  39.5646  39.7488  39.9085
    40.0029  40.0049  40.4022  40.4264  40.5987  40.6568  40.8300  41.1394
    41.1419  41.4977  41.5967  41.6497  41.7082  41.8073  41.8077  42.0786
    42.1565  42.3554  42.4608  42.5143  42.7907  42.9756  43.0288  43.1741
    43.4095  43.6835  43.8937  43.9395  44.3760  44.4136  44.6550  44.7615
    44.7780  44.9654  45.0931  45.3118  45.5805  45.6244  45.6742  45.7792
    46.0308  46.2175  46.3663  46.5483  46.5545  46.6851  46.7496  47.1212

     occupation numbers 
     1.0000   1.0000   1.0000   1.0000   1.0000   1.0000   1.0000   1.0000
     1.0000   1.0000   1.0000   1.0000   1.0000   1.0000   1.0000   1.0000
     1.0000   1.0000   1.0000   1.0000   1.0000   1.0000   1.0000   1.0000
     1.0000   1.0000   1.0000   1.0000   1.0000   1.0000   1.0000   1.0000
     1.0000   1.0000   1.0000   1.0000   1.0000   1.0000   1.0000   1.0000
     1.0000   1.0000   1.0000   1.0000   1.0000   1.0000   1.0000   1.0000
     1.0000   1.0000   1.0000   1.0000   1.0000   1.0000   1.0000   1.0000
     1.0000   1.0000   1.0000   1.0000   1.0000   1.0000   1.0000   1.0000
     1.0000   1.0000   1.0000   1.0000   1.0000   1.0000   1.0000   1.0000
     1.0000   1.0000   1.0000   1.0000   1.0000   1.0000   1.0000   1.0000
     0.0000   0.0000   0.0000   0.0000   0.0000   0.0000   0.0000   0.0000
     0.0000   0.0000   0.0000   0.0000   0.0000   0.0000   0.0000   0.0000
     0.0000   0.0000   0.0000   0.0000   0.0000   0.0000   0.0000   0.0000
     0.0000   0.0000   0.0000   0.0000   0.0000   0.0000   0.0000   0.0000
     0.0000   0.0000   0.0000   0.0000   0.0000   0.0000   0.0000   0.0000
     0.0000   0.0000   0.0000   0.0000   0.0000   0.0000   0.0000   0.0000
     0.0000   0.0000   0.0000   0.0000   0.0000   0.0000   0.0000   0.0000
     0.0000   0.0000   0.0000   0.0000   0.0000   0.0000   0.0000   0.0000
     0.0000   0.0000   0.0000   0.0000   0.0000   0.0000   0.0000   0.0000
     0.0000   0.0000   0.0000   0.0000   0.0000   0.0000   0.0000   0.0000
     0.0000   0.0000   0.0000   0.0000   0.0000   0.0000   0.0000   0.0000
     0.0000   0.0000   0.0000   0.0000   0.0000   0.0000   0.0000   0.0000
     0.0000   0.0000   0.0000   0.0000   0.0000   0.0000   0.0000   0.0000
     0.0000   0.0000   0.0000   0.0000   0.0000   0.0000   0.0000   0.0000
     0.0000   0.0000   0.0000   0.0000   0.0000   0.0000   0.0000   0.0000
     0.0000   0.0000   0.0000   0.0000   0.0000   0.0000   0.0000   0.0000
     0.0000   0.0000   0.0000   0.0000   0.0000   0.0000   0.0000   0.0000
     0.0000   0.0000   0.0000   0.0000   0.0000   0.0000   0.0000   0.0000
     0.0000   0.0000   0.0000   0.0000   0.0000   0.0000   0.0000   0.0000
     0.0000   0.0000   0.0000   0.0000   0.0000   0.0000   0.0000   0.0000
     0.0000   0.0000   0.0000   0.0000   0.0000   0.0000   0.0000   0.0000
     0.0000   0.0000   0.0000   0.0000   0.0000   0.0000   0.0000   0.0000

          k = 0.0000 0.3470-0.4652 (  4664 PWs)   bands (ev):

   -76.0802 -76.0791 -41.7398 -41.7318 -41.6597 -41.6582 -41.6303 -41.6289
   -20.9021 -20.9005 -19.6435 -19.6422 -19.6333 -19.6322 -19.4817 -19.4802
   -19.4758 -19.4751 -19.4665 -19.4661  -9.4048  -9.3490  -8.4820  -8.4521
    -8.1382  -8.1166  -7.9992  -7.8430  -7.4939  -7.3656  -7.2766  -7.1721
    -4.4765  -4.3852  -4.1778  -4.1657  -4.1103  -4.0440   1.1558   1.1969
     3.8237   3.9070   4.3838   4.5263   4.6804   4.9832   5.4178   5.7622
     5.9999   6.1211   6.1993   6.4297   6.4442   6.6265   6.7780   6.8028
     6.9937   7.0314   7.0681   7.3024   7.3661   7.4791   7.6052   7.6185
     7.7451   7.7623   7.9290   7.9608   8.0561   8.1061   8.2752   8.3358
     8.4867   8.5091  10.0664  10.1181  10.2124  10.2134  10.3109  10.3127
    11.4470  11.6370  12.2100  12.2384  12.8357  13.2433  14.0333  14.0687
    14.1104  14.1118  14.1417  14.1608  14.1776  14.1780  14.2181  14.2281
    14.2435  14.2776  14.3240  14.3254  14.9611  14.9921  15.4067  15.4254
    15.8809  16.0361  16.1999  16.2508  16.5895  16.6906  17.2660  17.3160
    17.6421  18.1643  18.2329  18.4350  18.5583  18.7371  19.5093  19.5438
    19.7048  20.1232  20.5009  20.5167  20.7950  21.1833  21.6470  21.6901
    22.3191  22.3722  22.3770  22.6957  23.1984  23.3394  23.4909  23.7997
    24.0802  24.3884  24.8425  24.8477  25.0845  25.2615  25.7144  25.7545
    25.9944  26.0329  26.8817  26.8928  27.2213  27.4090  27.6939  27.8427
    28.0582  28.7841  29.1005  29.3442  29.5362  29.6078  29.8934  30.2626
    30.4576  30.5759  30.7919  30.9178  31.5007  31.6998  31.8506  31.8572
    32.3349  32.4118  32.7549  32.7903  33.1392  33.2119  33.2269  33.7150
    33.9093  34.0075  34.2255  34.4364  34.6239  34.6929  35.1986  35.3856
    35.4412  35.5865  35.8305  35.8569  36.1492  36.2073  36.3779  36.5974
    36.6491  37.2708  37.2800  37.5433  37.7240  37.9821  38.1074  38.2360
    38.2687  38.5716  38.7261  38.8219  39.1830  39.3324  39.5337  39.8515
    39.8529  40.2478  40.2903  40.5859  40.6770  40.9607  41.0016  41.2258
    41.3068  41.4706  41.6288  41.6588  41.6839  41.8047  42.0314  42.0710
    42.3628  42.4570  42.5490  42.8074  42.9314  43.1348  43.3853  43.4463
    43.5938  43.7404  44.0142  44.0667  44.2749  44.4107  44.5599  44.6022
    44.8959  44.9127  45.1217  45.2462  45.5062  45.5574  45.6789  45.8603
    46.0870  46.1172  46.3878  46.6484  46.6939  46.7649  46.9629  47.3073

     occupation numbers 
     1.0000   1.0000   1.0000   1.0000   1.0000   1.0000   1.0000   1.0000
     1.0000   1.0000   1.0000   1.0000   1.0000   1.0000   1.0000   1.0000
     1.0000   1.0000   1.0000   1.0000   1.0000   1.0000   1.0000   1.0000
     1.0000   1.0000   1.0000   1.0000   1.0000   1.0000   1.0000   1.0000
     1.0000   1.0000   1.0000   1.0000   1.0000   1.0000   1.0000   1.0000
     1.0000   1.0000   1.0000   1.0000   1.0000   1.0000   1.0000   1.0000
     1.0000   1.0000   1.0000   1.0000   1.0000   1.0000   1.0000   1.0000
     1.0000   1.0000   1.0000   1.0000   1.0000   1.0000   1.0000   1.0000
     1.0000   1.0000   1.0000   1.0000   1.0000   1.0000   1.0000   1.0000
     1.0000   1.0000   1.0000   1.0000   1.0000   1.0000   1.0000   1.0000
     0.0000   0.0000   0.0000   0.0000   0.0000   0.0000   0.0000   0.0000
     0.0000   0.0000   0.0000   0.0000   0.0000   0.0000   0.0000   0.0000
     0.0000   0.0000   0.0000   0.0000   0.0000   0.0000   0.0000   0.0000
     0.0000   0.0000   0.0000   0.0000   0.0000   0.0000   0.0000   0.0000
     0.0000   0.0000   0.0000   0.0000   0.0000   0.0000   0.0000   0.0000
     0.0000   0.0000   0.0000   0.0000   0.0000   0.0000   0.0000   0.0000
     0.0000   0.0000   0.0000   0.0000   0.0000   0.0000   0.0000   0.0000
     0.0000   0.0000   0.0000   0.0000   0.0000   0.0000   0.0000   0.0000
     0.0000   0.0000   0.0000   0.0000   0.0000   0.0000   0.0000   0.0000
     0.0000   0.0000   0.0000   0.0000   0.0000   0.0000   0.0000   0.0000
     0.0000   0.0000   0.0000   0.0000   0.0000   0.0000   0.0000   0.0000
     0.0000   0.0000   0.0000   0.0000   0.0000   0.0000   0.0000   0.0000
     0.0000   0.0000   0.0000   0.0000   0.0000   0.0000   0.0000   0.0000
     0.0000   0.0000   0.0000   0.0000   0.0000   0.0000   0.0000   0.0000
     0.0000   0.0000   0.0000   0.0000   0.0000   0.0000   0.0000   0.0000
     0.0000   0.0000   0.0000   0.0000   0.0000   0.0000   0.0000   0.0000
     0.0000   0.0000   0.0000   0.0000   0.0000   0.0000   0.0000   0.0000
     0.0000   0.0000   0.0000   0.0000   0.0000   0.0000   0.0000   0.0000
     0.0000   0.0000   0.0000   0.0000   0.0000   0.0000   0.0000   0.0000
     0.0000   0.0000   0.0000   0.0000   0.0000   0.0000   0.0000   0.0000
     0.0000   0.0000   0.0000   0.0000   0.0000   0.0000   0.0000   0.0000
     0.0000   0.0000   0.0000   0.0000   0.0000   0.0000   0.0000   0.0000

          k = 0.3333 0.0000 0.0000 (  4610 PWs)   bands (ev):

   -76.0771 -76.0759 -41.7300 -41.7257 -41.6452 -41.6370 -41.6224 -41.6153
   -20.9042 -20.8998 -19.6417 -19.6391 -19.6306 -19.6299 -19.4785 -19.4775
   -19.4723 -19.4680 -19.4616 -19.4592  -9.4211  -9.2574  -8.4737  -8.2503
    -8.2123  -8.0867  -8.0017  -7.9494  -7.5265  -7.3946  -7.3139  -7.2092
    -4.5220  -4.3504  -4.2821  -4.2004  -4.1023  -4.0188   1.1546   1.3834
     4.1676   4.3314   4.4074   4.5425   4.6413   4.8803   5.3092   5.7104
     5.9245   6.0407   6.1763   6.2656   6.4998   6.6874   6.7659   6.8375
     6.9219   7.0326   7.1239   7.2235   7.4274   7.4799   7.5680   7.6002
     7.7235   7.7249   7.7569   7.9905   8.0048   8.1206   8.2218   8.2911
     8.3027   8.4695  10.0666  10.1248  10.1918  10.2941  10.3895  10.4069
    11.4658  11.6501  12.0382  12.0797  12.7467  13.6219  14.0536  14.0816
    14.0978  14.1259  14.1313  14.1546  14.1843  14.1979  14.2078  14.2530
    14.2710  14.2905  14.3159  14.3456  15.1421  15.3100  15.4353  15.6510
    15.7998  15.8527  16.1844  16.3395  16.5883  16.7784  17.2719  17.4278
    17.6263  18.0288  18.1050  18.3907  18.5252  18.9926  19.3468  19.6148
    19.8686  20.1455  20.2982  20.5458  20.6268  20.9589  21.5346  21.7294
    22.0816  22.4067  22.8595  23.1055  23.2754  23.6062  23.9215  24.0256
    24.2656  24.4255  24.6403  24.9937  25.1410  25.6985  25.8065  25.9212
    26.0268  26.3029  26.7498  26.9874  27.0740  27.2928  27.6567  27.7346
    27.9195  28.3337  28.4488  28.7327  29.4452  29.6542  29.8996  30.1880
    30.2790  30.5282  30.7204  30.7990  31.1008  31.4167  31.5313  31.6698
    31.9311  32.3849  32.6268  32.7905  32.8454  33.0663  33.2784  33.7044
    33.7702  33.8260  34.2220  34.4861  34.6848  34.8876  35.1174  35.2239
    35.5189  35.6318  35.6608  35.9176  36.0399  36.3271  36.4243  36.6202
    36.7955  36.9224  37.1754  37.4276  37.7297  37.9783  38.1420  38.4113
    38.6702  38.6961  39.0013  39.2553  39.3569  39.4859  39.7747  39.9860
    40.0920  40.1641  40.2779  40.5534  40.7655  41.0310  41.0970  41.3794
    41.5964  41.6782  41.7176  41.7749  41.8754  42.0327  42.2050  42.3450
    42.4132  42.5061  42.6237  42.7836  43.0921  43.2944  43.3358  43.5406
    43.6707  43.6948  43.8070  43.8644  43.9918  44.1490  44.3183  44.4130
    44.6719  44.7646  45.0051  45.2772  45.4198  45.6836  45.7961  45.8648
    46.0713  46.2464  46.2940  46.6103  46.7460  46.7950  47.0692  47.1981

     occupation numbers 
     1.0000   1.0000   1.0000   1.0000   1.0000   1.0000   1.0000   1.0000
     1.0000   1.0000   1.0000   1.0000   1.0000   1.0000   1.0000   1.0000
     1.0000   1.0000   1.0000   1.0000   1.0000   1.0000   1.0000   1.0000
     1.0000   1.0000   1.0000   1.0000   1.0000   1.0000   1.0000   1.0000
     1.0000   1.0000   1.0000   1.0000   1.0000   1.0000   1.0000   1.0000
     1.0000   1.0000   1.0000   1.0000   1.0000   1.0000   1.0000   1.0000
     1.0000   1.0000   1.0000   1.0000   1.0000   1.0000   1.0000   1.0000
     1.0000   1.0000   1.0000   1.0000   1.0000   1.0000   1.0000   1.0000
     1.0000   1.0000   1.0000   1.0000   1.0000   1.0000   1.0000   1.0000
     1.0000   1.0000   1.0000   1.0000   1.0000   1.0000   1.0000   1.0000
     0.0000   0.0000   0.0000   0.0000   0.0000   0.0000   0.0000   0.0000
     0.0000   0.0000   0.0000   0.0000   0.0000   0.0000   0.0000   0.0000
     0.0000   0.0000   0.0000   0.0000   0.0000   0.0000   0.0000   0.0000
     0.0000   0.0000   0.0000   0.0000   0.0000   0.0000   0.0000   0.0000
     0.0000   0.0000   0.0000   0.0000   0.0000   0.0000   0.0000   0.0000
     0.0000   0.0000   0.0000   0.0000   0.0000   0.0000   0.0000   0.0000
     0.0000   0.0000   0.0000   0.0000   0.0000   0.0000   0.0000   0.0000
     0.0000   0.0000   0.0000   0.0000   0.0000   0.0000   0.0000   0.0000
     0.0000   0.0000   0.0000   0.0000   0.0000   0.0000   0.0000   0.0000
     0.0000   0.0000   0.0000   0.0000   0.0000   0.0000   0.0000   0.0000
     0.0000   0.0000   0.0000   0.0000   0.0000   0.0000   0.0000   0.0000
     0.0000   0.0000   0.0000   0.0000   0.0000   0.0000   0.0000   0.0000
     0.0000   0.0000   0.0000   0.0000   0.0000   0.0000   0.0000   0.0000
     0.0000   0.0000   0.0000   0.0000   0.0000   0.0000   0.0000   0.0000
     0.0000   0.0000   0.0000   0.0000   0.0000   0.0000   0.0000   0.0000
     0.0000   0.0000   0.0000   0.0000   0.0000   0.0000   0.0000   0.0000
     0.0000   0.0000   0.0000   0.0000   0.0000   0.0000   0.0000   0.0000
     0.0000   0.0000   0.0000   0.0000   0.0000   0.0000   0.0000   0.0000
     0.0000   0.0000   0.0000   0.0000   0.0000   0.0000   0.0000   0.0000
     0.0000   0.0000   0.0000   0.0000   0.0000   0.0000   0.0000   0.0000
     0.0000   0.0000   0.0000   0.0000   0.0000   0.0000   0.0000   0.0000
     0.0000   0.0000   0.0000   0.0000   0.0000   0.0000   0.0000   0.0000

          k = 0.3333 0.0000 0.2325 (  4643 PWs)   bands (ev):

   -76.0788 -76.0787 -41.7414 -41.7367 -41.6507 -41.6473 -41.6277 -41.6216
   -20.9031 -20.9009 -19.6437 -19.6421 -19.6338 -19.6324 -19.4835 -19.4814
   -19.4733 -19.4714 -19.4630 -19.4624  -9.3877  -9.3071  -8.4052  -8.2710
    -8.2134  -8.1198  -8.0152  -7.9694  -7.4524  -7.3894  -7.3209  -7.2495
    -4.4924  -4.3848  -4.2620  -4.1821  -4.1017  -4.0509   1.2229   1.3373
     4.1430   4.2182   4.4299   4.5261   4.6068   4.7108   5.4380   5.7310
     5.9066   6.1152   6.2883   6.3901   6.5383   6.6570   6.7383   6.7916
     6.9103   6.9792   7.1433   7.2080   7.3438   7.4150   7.4627   7.5437
     7.7111   7.7882   7.8335   7.9513   8.0390   8.1276   8.2205   8.2536
     8.3890   8.4644  10.0808  10.1076  10.1963  10.2537  10.3943  10.4018
    11.5140  11.6376  12.0635  12.0747  12.8787  13.3462  14.0601  14.0762
    14.1093  14.1219  14.1458  14.1580  14.1733  14.1932  14.2200  14.2504
    14.2681  14.2799  14.3112  14.3326  15.1638  15.2530  15.3922  15.4856
    15.7420  15.8040  16.2588  16.3327  16.5732  16.6890  17.3148  17.5287
    17.8729  17.9953  18.1659  18.4459  18.7289  18.9961  19.3620  19.5126
    19.8969  20.1097  20.4240  20.4638  20.6043  20.8170  21.5330  21.7898
    22.1923  22.4794  22.8045  23.0325  23.2143  23.5924  23.7159  23.9852
    24.0528  24.4580  24.5967  24.8421  25.2936  25.5012  25.6829  25.9377
    26.1569  26.2336  26.7534  26.8658  27.0519  27.3000  27.6201  27.8998
    28.0871  28.4829  28.6376  29.0476  29.1848  29.5586  29.8809  30.0090
    30.2688  30.5598  30.6571  30.8962  31.1243  31.3979  31.6961  32.0707
    32.1553  32.3455  32.4894  32.6269  32.8760  33.2020  33.4462  33.5638
    33.7565  34.2536  34.3250  34.5263  34.8814  34.9592  35.1087  35.2023
    35.2714  35.5297  35.6975  35.8381  36.0591  36.2019  36.3833  36.6653
    36.8285  37.0128  37.2061  37.4016  37.6993  37.7923  37.8550  38.0943
    38.4113  38.6993  38.8722  39.0272  39.2463  39.4368  39.5424  39.6811
    39.9097  39.9500  40.2764  40.4480  40.6251  40.8956  41.0581  41.2201
    41.2991  41.5372  41.6545  41.6886  41.7411  41.8839  42.0184  42.2565
    42.4471  42.4999  42.6168  42.7804  42.8429  43.1091  43.2929  43.4991
    43.6286  43.8211  43.9816  44.1321  44.1726  44.4083  44.5827  44.6781
    44.8196  44.9891  45.2193  45.4838  45.6021  45.9054  45.9431  46.1790
    46.2828  46.5029  46.7108  46.8444  47.0488  47.1102  47.1962  47.2557

     occupation numbers 
     1.0000   1.0000   1.0000   1.0000   1.0000   1.0000   1.0000   1.0000
     1.0000   1.0000   1.0000   1.0000   1.0000   1.0000   1.0000   1.0000
     1.0000   1.0000   1.0000   1.0000   1.0000   1.0000   1.0000   1.0000
     1.0000   1.0000   1.0000   1.0000   1.0000   1.0000   1.0000   1.0000
     1.0000   1.0000   1.0000   1.0000   1.0000   1.0000   1.0000   1.0000
     1.0000   1.0000   1.0000   1.0000   1.0000   1.0000   1.0000   1.0000
     1.0000   1.0000   1.0000   1.0000   1.0000   1.0000   1.0000   1.0000
     1.0000   1.0000   1.0000   1.0000   1.0000   1.0000   1.0000   1.0000
     1.0000   1.0000   1.0000   1.0000   1.0000   1.0000   1.0000   1.0000
     1.0000   1.0000   1.0000   1.0000   1.0000   1.0000   1.0000   1.0000
     0.0000   0.0000   0.0000   0.0000   0.0000   0.0000   0.0000   0.0000
     0.0000   0.0000   0.0000   0.0000   0.0000   0.0000   0.0000   0.0000
     0.0000   0.0000   0.0000   0.0000   0.0000   0.0000   0.0000   0.0000
     0.0000   0.0000   0.0000   0.0000   0.0000   0.0000   0.0000   0.0000
     0.0000   0.0000   0.0000   0.0000   0.0000   0.0000   0.0000   0.0000
     0.0000   0.0000   0.0000   0.0000   0.0000   0.0000   0.0000   0.0000
     0.0000   0.0000   0.0000   0.0000   0.0000   0.0000   0.0000   0.0000
     0.0000   0.0000   0.0000   0.0000   0.0000   0.0000   0.0000   0.0000
     0.0000   0.0000   0.0000   0.0000   0.0000   0.0000   0.0000   0.0000
     0.0000   0.0000   0.0000   0.0000   0.0000   0.0000   0.0000   0.0000
     0.0000   0.0000   0.0000   0.0000   0.0000   0.0000   0.0000   0.0000
     0.0000   0.0000   0.0000   0.0000   0.0000   0.0000   0.0000   0.0000
     0.0000   0.0000   0.0000   0.0000   0.0000   0.0000   0.0000   0.0000
     0.0000   0.0000   0.0000   0.0000   0.0000   0.0000   0.0000   0.0000
     0.0000   0.0000   0.0000   0.0000   0.0000   0.0000   0.0000   0.0000
     0.0000   0.0000   0.0000   0.0000   0.0000   0.0000   0.0000   0.0000
     0.0000   0.0000   0.0000   0.0000   0.0000   0.0000   0.0000   0.0000
     0.0000   0.0000   0.0000   0.0000   0.0000   0.0000   0.0000   0.0000
     0.0000   0.0000   0.0000   0.0000   0.0000   0.0000   0.0000   0.0000
     0.0000   0.0000   0.0000   0.0000   0.0000   0.0000   0.0000   0.0000
     0.0000   0.0000   0.0000   0.0000   0.0000   0.0000   0.0000   0.0000
     0.0000   0.0000   0.0000   0.0000   0.0000   0.0000   0.0000   0.0000

          k = 0.3333 0.3470-0.2327 (  4649 PWs)   bands (ev):

   -76.0796 -76.0783 -41.7368 -41.7330 -41.6572 -41.6540 -41.6285 -41.6225
   -20.9014 -20.9006 -19.6437 -19.6410 -19.6325 -19.6319 -19.4801 -19.4795
   -19.4752 -19.4735 -19.4649 -19.4639  -9.4383  -9.2940  -8.5889  -8.3247
    -8.2341  -8.1840  -7.9297  -7.8987  -7.4519  -7.3745  -7.3051  -7.1639
    -4.4550  -4.3888  -4.1989  -4.1293  -4.0938  -3.9871   1.2400   1.3562
     4.1266   4.2288   4.4552   4.5609   4.6717   4.8530   5.3858   5.5879
     5.9045   6.0726   6.2168   6.3650   6.4567   6.5326   6.7354   6.7959
     6.9456   7.0279   7.1290   7.2593   7.3017   7.3860   7.4539   7.5463
     7.6508   7.7631   7.8110   7.9222   7.9526   8.0332   8.1652   8.2174
     8.3602   8.4502  10.0528  10.1282  10.1839  10.2393  10.4021  10.4243
    11.5090  11.5534  11.8498  11.8929  13.5753  13.7074  14.0455  14.0755
    14.1100  14.1301  14.1412  14.1645  14.2002  14.2065  14.2349  14.2464
    14.2637  14.2896  14.3273  14.3582  14.9963  15.2256  15.3732  15.4935
    15.8596  16.0504  16.3722  16.4505  16.6670  16.9425  17.3080  17.5548
    17.8031  17.9250  18.2047  18.4044  18.4635  18.7254  19.1934  19.4041
    19.7581  19.9865  20.2181  20.5357  20.6540  21.1492  21.2513  21.5478
    22.2942  22.4162  22.6904  22.8939  23.1926  23.3686  23.7304  23.9131
    24.0438  24.4727  24.6326  25.0138  25.1556  25.4890  25.6122  25.9057
    26.2376  26.3837  26.7836  27.0570  27.2885  27.4477  27.6577  27.8969
    28.2434  28.5154  28.7218  29.0239  29.3536  29.5184  29.7918  29.9245
    30.1871  30.4907  30.6720  31.0356  31.3526  31.5554  31.8406  32.0864
    32.2492  32.4187  32.7626  32.8831  33.0219  33.2349  33.4071  33.5953
    34.0173  34.1241  34.2780  34.6895  34.7618  34.8527  35.0115  35.1521
    35.4527  35.5598  35.8374  35.9150  36.2166  36.3134  36.6067  36.7681
    36.9058  37.0763  37.4156  37.5865  37.7675  37.9449  38.1320  38.3408
    38.5666  38.8650  38.9205  39.0963  39.2741  39.3945  39.6154  39.8004
    39.9455  40.1624  40.2909  40.3868  40.6575  40.7201  40.8924  41.0748
    41.2525  41.4381  41.5324  41.6583  41.7035  41.7845  41.8973  42.1339
    42.3018  42.3994  42.5185  42.8137  42.8732  42.9991  43.1659  43.2624
    43.3872  43.6232  43.8174  43.8935  44.0444  44.2893  44.3518  44.5294
    44.6796  44.7709  44.9835  45.1052  45.3038  45.3993  45.5567  45.7995
    45.9049  46.1378  46.2450  46.3943  46.5686  46.7861  46.9188  47.0519

     occupation numbers 
     1.0000   1.0000   1.0000   1.0000   1.0000   1.0000   1.0000   1.0000
     1.0000   1.0000   1.0000   1.0000   1.0000   1.0000   1.0000   1.0000
     1.0000   1.0000   1.0000   1.0000   1.0000   1.0000   1.0000   1.0000
     1.0000   1.0000   1.0000   1.0000   1.0000   1.0000   1.0000   1.0000
     1.0000   1.0000   1.0000   1.0000   1.0000   1.0000   1.0000   1.0000
     1.0000   1.0000   1.0000   1.0000   1.0000   1.0000   1.0000   1.0000
     1.0000   1.0000   1.0000   1.0000   1.0000   1.0000   1.0000   1.0000
     1.0000   1.0000   1.0000   1.0000   1.0000   1.0000   1.0000   1.0000
     1.0000   1.0000   1.0000   1.0000   1.0000   1.0000   1.0000   1.0000
     1.0000   1.0000   1.0000   1.0000   1.0000   1.0000   1.0000   1.0000
     0.0000   0.0000   0.0000   0.0000   0.0000   0.0000   0.0000   0.0000
     0.0000   0.0000   0.0000   0.0000   0.0000   0.0000   0.0000   0.0000
     0.0000   0.0000   0.0000   0.0000   0.0000   0.0000   0.0000   0.0000
     0.0000   0.0000   0.0000   0.0000   0.0000   0.0000   0.0000   0.0000
     0.0000   0.0000   0.0000   0.0000   0.0000   0.0000   0.0000   0.0000
     0.0000   0.0000   0.0000   0.0000   0.0000   0.0000   0.0000   0.0000
     0.0000   0.0000   0.0000   0.0000   0.0000   0.0000   0.0000   0.0000
     0.0000   0.0000   0.0000   0.0000   0.0000   0.0000   0.0000   0.0000
     0.0000   0.0000   0.0000   0.0000   0.0000   0.0000   0.0000   0.0000
     0.0000   0.0000   0.0000   0.0000   0.0000   0.0000   0.0000   0.0000
     0.0000   0.0000   0.0000   0.0000   0.0000   0.0000   0.0000   0.0000
     0.0000   0.0000   0.0000   0.0000   0.0000   0.0000   0.0000   0.0000
     0.0000   0.0000   0.0000   0.0000   0.0000   0.0000   0.0000   0.0000
     0.0000   0.0000   0.0000   0.0000   0.0000   0.0000   0.0000   0.0000
     0.0000   0.0000   0.0000   0.0000   0.0000   0.0000   0.0000   0.0000
     0.0000   0.0000   0.0000   0.0000   0.0000   0.0000   0.0000   0.0000
     0.0000   0.0000   0.0000   0.0000   0.0000   0.0000   0.0000   0.0000
     0.0000   0.0000   0.0000   0.0000   0.0000   0.0000   0.0000   0.0000
     0.0000   0.0000   0.0000   0.0000   0.0000   0.0000   0.0000   0.0000
     0.0000   0.0000   0.0000   0.0000   0.0000   0.0000   0.0000   0.0000
     0.0000   0.0000   0.0000   0.0000   0.0000   0.0000   0.0000   0.0000
     0.0000   0.0000   0.0000   0.0000   0.0000   0.0000   0.0000   0.0000

          k = 0.3333 0.3470-0.0001 (  4644 PWs)   bands (ev):

   -76.0789 -76.0785 -41.7421 -41.7358 -41.6532 -41.6508 -41.6247 -41.6191
   -20.9021 -20.8999 -19.6426 -19.6406 -19.6331 -19.6302 -19.4826 -19.4807
   -19.4746 -19.4728 -19.4637 -19.4624  -9.4255  -9.3334  -8.4841  -8.3552
    -8.2929  -8.1139  -7.9402  -7.9013  -7.5195  -7.3988  -7.2421  -7.1977
    -4.4419  -4.3121  -4.2139  -4.1976  -4.0592  -4.0102   1.2219   1.3412
     4.2069   4.2990   4.4946   4.5544   4.7852   4.9189   5.3052   5.3461
     5.7731   6.0851   6.2686   6.3137   6.4788   6.5705   6.7151   6.8652
     6.9012   6.9899   7.1262   7.2641   7.3766   7.4450   7.4856   7.6112
     7.6620   7.7088   7.8281   7.8728   7.9093   7.9793   8.1507   8.2622
     8.3491   8.4309  10.0845  10.1164  10.1641  10.2134  10.4124  10.4397
    11.4248  11.4911  11.9525  12.0031  13.5098  13.8147  14.0598  14.0745
    14.1186  14.1310  14.1391  14.1621  14.1954  14.1978  14.2258  14.2321
    14.2657  14.2973  14.3339  14.3664  15.1916  15.2412  15.3313  15.5382
    15.7246  15.8324  16.5012  16.5886  16.6829  16.8985  17.3587  17.4944
    17.6393  17.9433  18.0943  18.3973  18.6411  18.7749  18.9396  19.2903
    19.7393  19.9615  20.1972  20.4852  20.8340  21.0760  21.3204  21.5126
    22.3882  22.6853  22.9616  23.0391  23.3525  23.4833  23.6950  23.7167
    23.9965  24.4526  24.7401  24.9027  25.0459  25.3182  25.5538  25.9718
    26.1395  26.1849  26.5593  26.8636  27.1904  27.5249  27.6889  28.0207
    28.3741  28.5453  28.7266  28.9110  29.3032  29.4006  29.9457  30.1590
    30.3380  30.4974  30.7564  31.0455  31.2151  31.5275  31.7715  32.0020
    32.1062  32.2909  32.6156  32.7326  33.1640  33.3554  33.4670  33.6487
    33.9023  34.0244  34.2497  34.5530  34.7250  34.8507  35.1857  35.2004
    35.4951  35.8029  36.0450  36.2321  36.4202  36.5191  36.6529  36.8977
    37.0368  37.1874  37.2782  37.5382  37.5822  37.8842  38.1763  38.4634
    38.6544  38.7145  38.8281  38.9459  39.2985  39.4562  39.6684  39.7811
    40.0088  40.1609  40.4201  40.4945  40.6077  40.6821  40.9260  41.1159
    41.1613  41.3421  41.4976  41.6377  41.6766  41.7431  41.9056  42.0439
    42.1599  42.3625  42.4633  42.7206  42.7963  42.9014  43.1034  43.2391
    43.4612  43.5294  43.6579  43.8774  44.0759  44.1382  44.3587  44.6044
    44.7238  44.8329  44.9635  45.1071  45.3635  45.4175  45.6762  45.7828
    45.9379  46.0478  46.1232  46.3461  46.4604  46.6680  46.9221  47.0343

     occupation numbers 
     1.0000   1.0000   1.0000   1.0000   1.0000   1.0000   1.0000   1.0000
     1.0000   1.0000   1.0000   1.0000   1.0000   1.0000   1.0000   1.0000
     1.0000   1.0000   1.0000   1.0000   1.0000   1.0000   1.0000   1.0000
     1.0000   1.0000   1.0000   1.0000   1.0000   1.0000   1.0000   1.0000
     1.0000   1.0000   1.0000   1.0000   1.0000   1.0000   1.0000   1.0000
     1.0000   1.0000   1.0000   1.0000   1.0000   1.0000   1.0000   1.0000
     1.0000   1.0000   1.0000   1.0000   1.0000   1.0000   1.0000   1.0000
     1.0000   1.0000   1.0000   1.0000   1.0000   1.0000   1.0000   1.0000
     1.0000   1.0000   1.0000   1.0000   1.0000   1.0000   1.0000   1.0000
     1.0000   1.0000   1.0000   1.0000   1.0000   1.0000   1.0000   1.0000
     0.0000   0.0000   0.0000   0.0000   0.0000   0.0000   0.0000   0.0000
     0.0000   0.0000   0.0000   0.0000   0.0000   0.0000   0.0000   0.0000
     0.0000   0.0000   0.0000   0.0000   0.0000   0.0000   0.0000   0.0000
     0.0000   0.0000   0.0000   0.0000   0.0000   0.0000   0.0000   0.0000
     0.0000   0.0000   0.0000   0.0000   0.0000   0.0000   0.0000   0.0000
     0.0000   0.0000   0.0000   0.0000   0.0000   0.0000   0.0000   0.0000
     0.0000   0.0000   0.0000   0.0000   0.0000   0.0000   0.0000   0.0000
     0.0000   0.0000   0.0000   0.0000   0.0000   0.0000   0.0000   0.0000
     0.0000   0.0000   0.0000   0.0000   0.0000   0.0000   0.0000   0.0000
     0.0000   0.0000   0.0000   0.0000   0.0000   0.0000   0.0000   0.0000
     0.0000   0.0000   0.0000   0.0000   0.0000   0.0000   0.0000   0.0000
     0.0000   0.0000   0.0000   0.0000   0.0000   0.0000   0.0000   0.0000
     0.0000   0.0000   0.0000   0.0000   0.0000   0.0000   0.0000   0.0000
     0.0000   0.0000   0.0000   0.0000   0.0000   0.0000   0.0000   0.0000
     0.0000   0.0000   0.0000   0.0000   0.0000   0.0000   0.0000   0.0000
     0.0000   0.0000   0.0000   0.0000   0.0000   0.0000   0.0000   0.0000
     0.0000   0.0000   0.0000   0.0000   0.0000   0.0000   0.0000   0.0000
     0.0000   0.0000   0.0000   0.0000   0.0000   0.0000   0.0000   0.0000
     0.0000   0.0000   0.0000   0.0000   0.0000   0.0000   0.0000   0.0000
     0.0000   0.0000   0.0000   0.0000   0.0000   0.0000   0.0000   0.0000
     0.0000   0.0000   0.0000   0.0000   0.0000   0.0000   0.0000   0.0000
     0.0000   0.0000   0.0000   0.0000   0.0000   0.0000   0.0000   0.0000

          k = 0.3333 0.3470-0.4652 (  4650 PWs)   bands (ev):

   -76.0796 -76.0785 -41.7373 -41.7345 -41.6570 -41.6544 -41.6274 -41.6230
   -20.9021 -20.8999 -19.6434 -19.6411 -19.6313 -19.6307 -19.4827 -19.4817
   -19.4753 -19.4740 -19.4650 -19.4625  -9.3966  -9.3482  -8.5312  -8.4223
    -8.2265  -8.1333  -7.9337  -7.8832  -7.4518  -7.3712  -7.3026  -7.1911
    -4.4409  -4.3858  -4.1892  -4.1514  -4.1153  -3.9656   1.2752   1.3203
     4.0953   4.1599   4.5100   4.5948   4.7368   4.8507   5.3836   5.5299
     5.9369   6.0070   6.2532   6.3651   6.4641   6.5490   6.7166   6.7915
     6.8669   7.0396   7.1437   7.2407   7.3948   7.3993   7.5288   7.5743
     7.6453   7.6936   7.7909   7.8645   7.9544   8.0380   8.1880   8.2303
     8.3225   8.4657  10.0681  10.1110  10.2062  10.2223  10.3979  10.4320
    11.5143  11.5963  11.8308  11.8702  13.5394  13.7204  14.0465  14.0688
    14.1085  14.1346  14.1529  14.1740  14.1856  14.2007  14.2249  14.2313
    14.2746  14.2943  14.3355  14.3451  14.9879  15.2505  15.3996  15.5236
    15.9087  15.9784  16.2899  16.5209  16.6908  16.9582  17.1817  17.5175
    17.8393  17.8868  18.2030  18.2848  18.5808  18.7841  19.1435  19.5934
    19.7504  20.0777  20.1856  20.4415  20.6774  21.0277  21.4489  21.6951
    22.1468  22.3907  22.5856  22.9952  23.1340  23.2972  23.7583  23.9975
    24.1507  24.2850  24.6611  24.8733  25.0593  25.4344  25.6515  25.8414
    26.2045  26.4449  26.8046  26.9575  27.1725  27.6312  27.7906  28.0453
    28.3493  28.4444  28.5902  29.0187  29.3991  29.6989  29.8258  30.1080
    30.3330  30.4304  30.8231  31.0565  31.1955  31.4590  31.8008  32.0027
    32.1047  32.3210  32.5559  32.8151  33.0178  33.3503  33.5321  33.6953
    33.8679  34.0035  34.1478  34.4017  34.5950  34.8171  35.1307  35.2538
    35.4018  35.6222  35.9201  36.0719  36.3224  36.5216  36.7102  36.8238
    36.9154  37.1391  37.4257  37.6045  37.8507  38.0297  38.2258  38.3139
    38.6012  38.6836  38.8961  39.1553  39.2306  39.3951  39.5160  39.6821
    39.8847  39.9861  40.1969  40.4601  40.6166  40.6924  40.9753  41.1575
    41.2985  41.5014  41.6315  41.6577  41.6951  41.8477  41.9390  42.1185
    42.1774  42.3886  42.4990  42.6757  42.8411  42.9564  43.0915  43.3414
    43.4485  43.6253  43.7660  43.9044  44.1389  44.1906  44.3371  44.4666
    44.6546  44.8883  45.0030  45.2300  45.3104  45.4247  45.6258  45.7957
    45.8587  46.0374  46.1879  46.3256  46.4796  46.6496  46.9305  47.1270

     occupation numbers 
     1.0000   1.0000   1.0000   1.0000   1.0000   1.0000   1.0000   1.0000
     1.0000   1.0000   1.0000   1.0000   1.0000   1.0000   1.0000   1.0000
     1.0000   1.0000   1.0000   1.0000   1.0000   1.0000   1.0000   1.0000
     1.0000   1.0000   1.0000   1.0000   1.0000   1.0000   1.0000   1.0000
     1.0000   1.0000   1.0000   1.0000   1.0000   1.0000   1.0000   1.0000
     1.0000   1.0000   1.0000   1.0000   1.0000   1.0000   1.0000   1.0000
     1.0000   1.0000   1.0000   1.0000   1.0000   1.0000   1.0000   1.0000
     1.0000   1.0000   1.0000   1.0000   1.0000   1.0000   1.0000   1.0000
     1.0000   1.0000   1.0000   1.0000   1.0000   1.0000   1.0000   1.0000
     1.0000   1.0000   1.0000   1.0000   1.0000   1.0000   1.0000   1.0000
     0.0000   0.0000   0.0000   0.0000   0.0000   0.0000   0.0000   0.0000
     0.0000   0.0000   0.0000   0.0000   0.0000   0.0000   0.0000   0.0000
     0.0000   0.0000   0.0000   0.0000   0.0000   0.0000   0.0000   0.0000
     0.0000   0.0000   0.0000   0.0000   0.0000   0.0000   0.0000   0.0000
     0.0000   0.0000   0.0000   0.0000   0.0000   0.0000   0.0000   0.0000
     0.0000   0.0000   0.0000   0.0000   0.0000   0.0000   0.0000   0.0000
     0.0000   0.0000   0.0000   0.0000   0.0000   0.0000   0.0000   0.0000
     0.0000   0.0000   0.0000   0.0000   0.0000   0.0000   0.0000   0.0000
     0.0000   0.0000   0.0000   0.0000   0.0000   0.0000   0.0000   0.0000
     0.0000   0.0000   0.0000   0.0000   0.0000   0.0000   0.0000   0.0000
     0.0000   0.0000   0.0000   0.0000   0.0000   0.0000   0.0000   0.0000
     0.0000   0.0000   0.0000   0.0000   0.0000   0.0000   0.0000   0.0000
     0.0000   0.0000   0.0000   0.0000   0.0000   0.0000   0.0000   0.0000
     0.0000   0.0000   0.0000   0.0000   0.0000   0.0000   0.0000   0.0000
     0.0000   0.0000   0.0000   0.0000   0.0000   0.0000   0.0000   0.0000
     0.0000   0.0000   0.0000   0.0000   0.0000   0.0000   0.0000   0.0000
     0.0000   0.0000   0.0000   0.0000   0.0000   0.0000   0.0000   0.0000
     0.0000   0.0000   0.0000   0.0000   0.0000   0.0000   0.0000   0.0000
     0.0000   0.0000   0.0000   0.0000   0.0000   0.0000   0.0000   0.0000
     0.0000   0.0000   0.0000   0.0000   0.0000   0.0000   0.0000   0.0000
     0.0000   0.0000   0.0000   0.0000   0.0000   0.0000   0.0000   0.0000
     0.0000   0.0000   0.0000   0.0000   0.0000   0.0000   0.0000   0.0000

     highest occupied, lowest unoccupied level (ev):    10.4397   11.3046

!    total energy              =   -2511.90078843 Ry
     estimated scf accuracy    <       0.00000025 Ry

     The total energy is the sum of the following terms:
     one-electron contribution =    -638.62800106 Ry
     hartree contribution      =     423.92465420 Ry
     xc contribution           =    -277.46025452 Ry
     ewald contribution        =    -903.56079481 Ry
     one-center paw contrib.   =   -1116.17639225 Ry
      -> PAW hartree energy AE =      70.15406312 Ry
      -> PAW hartree energy PS =     -70.15694738 Ry
      -> PAW xc energy AE      =    -843.18075275 Ry
      -> PAW xc energy PS      =      24.68331321 Ry
      -> total E_H with PAW    =     423.92176994 Ry
      -> total E_XC with PAW   =   -1095.95769405 Ry

     convergence has been achieved in  13 iterations

     Writing all to output data dir bands_nm/myprefix.save/
 
     init_run     :      8.47s CPU      2.35s WALL (       1 calls)
     electrons    :    264.73s CPU     69.79s WALL (       1 calls)

     Called by init_run:
     wfcinit      :      3.79s CPU      0.97s WALL (       1 calls)
     wfcinit:atom :      0.02s CPU      0.01s WALL (       5 calls)
     wfcinit:wfcr :      3.67s CPU      0.94s WALL (       5 calls)
     potinit      :      1.79s CPU      0.47s WALL (       1 calls)
     hinit0       :      2.40s CPU      0.76s WALL (       1 calls)

     Called by electrons:
     c_bands      :    222.54s CPU     58.41s WALL (      13 calls)
     sum_band     :     21.50s CPU      5.91s WALL (      13 calls)
     v_of_rho     :      0.74s CPU      0.20s WALL (      14 calls)
     v_h          :      0.05s CPU      0.01s WALL (      14 calls)
     v_xc         :      0.68s CPU      0.18s WALL (      14 calls)
     newd         :      4.55s CPU      1.25s WALL (      14 calls)
     PAW_pot      :     16.19s CPU      4.20s WALL (      14 calls)
     mix_rho      :      0.22s CPU      0.06s WALL (      13 calls)

     Called by c_bands:
     init_us_2    :      0.41s CPU      0.11s WALL (     135 calls)
     init_us_2:cp :      0.40s CPU      0.11s WALL (     135 calls)
     cegterg      :    211.59s CPU     54.36s WALL (      65 calls)

     Called by sum_band:
     sum_band:wei :      0.00s CPU      0.00s WALL (      13 calls)
     sum_band:loo :     16.68s CPU      4.28s WALL (      13 calls)
     sum_band:buf :      0.25s CPU      0.06s WALL (      65 calls)
     sum_band:ini :      0.19s CPU      0.05s WALL (      65 calls)
     sum_band:cal :      4.23s CPU      1.07s WALL (      65 calls)
     sum_band:bec :      0.12s CPU      0.04s WALL (      65 calls)
     addusdens    :      4.15s CPU      1.45s WALL (      13 calls)
     addusd:skk   :      0.00s CPU      0.00s WALL (      65 calls)
     addusd:dgemm :      1.26s CPU      0.72s WALL (      65 calls)
     addusd:qvan2 :      2.64s CPU      0.68s WALL (      65 calls)

     Called by *egterg:
     cdiaghg      :     67.24s CPU     17.58s WALL (     290 calls)
     cegterg:over :     23.32s CPU      5.91s WALL (     225 calls)
     cegterg:upda :     11.83s CPU      3.02s WALL (     225 calls)
     cegterg:last :     29.85s CPU      7.57s WALL (     122 calls)
     cdiaghg:chol :      4.18s CPU      1.10s WALL (     290 calls)
     cdiaghg:inve :      1.40s CPU      0.37s WALL (     290 calls)
     cdiaghg:para :     15.65s CPU      4.17s WALL (     580 calls)
     h_psi        :     65.22s CPU     16.72s WALL (     295 calls)
     s_psi        :      8.62s CPU      2.17s WALL (     295 calls)
     g_psi        :      0.07s CPU      0.02s WALL (     225 calls)

     Called by h_psi:
     h_psi:calbec :     10.05s CPU      2.54s WALL (     295 calls)
     vloc_psi     :     46.32s CPU     11.90s WALL (     295 calls)
     add_vuspsi   :      8.65s CPU      2.21s WALL (     295 calls)

     General routines
     calbec       :     14.28s CPU      3.61s WALL (     360 calls)
     fft          :      0.54s CPU      0.15s WALL (     180 calls)
     ffts         :      0.04s CPU      0.01s WALL (      27 calls)
     fftw         :     55.40s CPU     12.56s WALL (   92240 calls)
     interpolate  :      0.08s CPU      0.02s WALL (      14 calls)
 
     Parallel routines

     PAW routines
     PAW_pot      :     16.19s CPU      4.20s WALL (      14 calls)
     PAW_symme    :      0.04s CPU      0.01s WALL (      27 calls)
 
     PWSCF        :   4m35.04s CPU   1m13.52s WALL

 
   This run was terminated on:  19: 4:23  15Jul2023            

=------------------------------------------------------------------------------=
   JOB DONE.
=------------------------------------------------------------------------------=
