
     Program PWSCF v.7.1 starts on 13Jul2023 at  5:39:32 

     This program is part of the open-source Quantum ESPRESSO suite
     for quantum simulation of materials; please cite
         "P. Giannozzi et al., J. Phys.:Condens. Matter 21 395502 (2009);
         "P. Giannozzi et al., J. Phys.:Condens. Matter 29 465901 (2017);
         "P. Giannozzi et al., J. Chem. Phys. 152 154105 (2020);
          URL http://www.quantum-espresso.org", 
     in publications or presentations arising from this work. More details at
     http://www.quantum-espresso.org/quote

     Parallel version (MPI & OpenMP), running on      64 processor cores
     Number of MPI processes:                16
     Threads/MPI process:                     4

     MPI processes distributed on     2 nodes
     173388 MiB available memory on the printing compute node when the environment starts
 
     Reading input from espresso_25300.pwi
Warning: card &CELL ignored
Warning: card / ignored

     Current dimensions of program PWSCF are:
     Max number of different atomic species (ntypx) = 10
     Max number of k-points (npk) =  40000
     Max angular momentum in pseudopotentials (lmaxx) =  4
     Message from routine setup:
     using ibrav=0 with symmetry is DISCOURAGED, use correct ibrav instead
 
     K-points division:     npool     =       2
     R & G space division:  proc/nbgrp/npool/nimage =       8
     Subspace diagonalization in iterative solution of the eigenvalue problem:
     a serial algorithm will be used

 
     Parallelization info
     --------------------
     sticks:   dense  smooth     PW     G-vecs:    dense   smooth      PW
     Min         282     141     41                 9137     3222     501
     Max         284     142     42                 9141     3223     504
     Sum        2267    1131    329                73115    25781    4019
 
     Using Slab Decomposition
 


     bravais-lattice index     =            0
     lattice parameter (alat)  =      12.0276  a.u.
     unit-cell volume          =    1164.3398 (a.u.)^3
     number of atoms/cell      =           10
     number of atomic types    =            3
     number of electrons       =        88.00
     number of Kohn-Sham states=           64
     kinetic-energy cutoff     =      30.0000  Ry
     charge density cutoff     =     240.0000  Ry
     scf convergence threshold =      1.0E-06
     mixing beta               =       0.7000
     number of iterations used =            8  plain     mixing
     Exchange-correlation= PBE
                           (   1   4   3   4   0   0   0)

     celldm(1)=  12.027646  celldm(2)=   0.000000  celldm(3)=   0.000000
     celldm(4)=   0.000000  celldm(5)=   0.000000  celldm(6)=   0.000000

     crystal axes: (cart. coord. in units of alat)
               a(1) = (   1.000000   0.000000   0.000000 )  
               a(2) = (  -0.430094   0.821710   0.000000 )  
               a(3) = (   0.000000   0.000000   0.814365 )  

     reciprocal axes: (cart. coord. in units 2 pi/alat)
               b(1) = (  1.000000  0.523414  0.000000 )  
               b(2) = (  0.000000  1.216974  0.000000 )  
               b(3) = (  0.000000  0.000000  1.227950 )  


     PseudoPot. # 1 for Ge read from file:
     /lustre07/scratch/pragov/crystal_structure_design/utils/SSSP/ge_pbe_v1.4.uspp.F.UPF
     MD5 check sum: 9c9eaa91e581c3f09632fb3098b2c6b2
     Pseudo is Ultrasoft + core correction, Zval = 14.0
     Generated by new atomic code, or converted to UPF format
     Using radial grid of  873 points,  6 beta functions with: 
                l(1) =   0
                l(2) =   0
                l(3) =   1
                l(4) =   1
                l(5) =   2
                l(6) =   2
     Q(r) pseudized with  8 coefficients,  rinner =    1.400   1.400   1.400
                                                       1.400   1.400

     PseudoPot. # 2 for Se read from file:
     /lustre07/scratch/pragov/crystal_structure_design/utils/SSSP/Se_pbe_v1.uspp.F.UPF
     MD5 check sum: 1b3568f3a8ae88f9a2a0ad0698632c85
     Pseudo is Ultrasoft + core correction, Zval =  6.0
     Generated by new atomic code, or converted to UPF format
     Using radial grid of  877 points,  6 beta functions with: 
                l(1) =   0
                l(2) =   0
                l(3) =   1
                l(4) =   1
                l(5) =   2
                l(6) =   2
     Q(r) pseudized with  8 coefficients,  rinner =    1.300   1.300   1.300
                                                       1.300   1.300

     PseudoPot. # 3 for N  read from file:
     /lustre07/scratch/pragov/crystal_structure_design/utils/SSSP/N.pbe-n-radius_5.UPF
     MD5 check sum: 16739722b17309cd8fe442a2ace49922
     Pseudo is Ultrasoft + core correction, Zval =  5.0
     Generated using "atomic" code by A. Dal Corso  v.5.1
     Using radial grid of 1085 points,  4 beta functions with: 
                l(1) =   0
                l(2) =   0
                l(3) =   1
                l(4) =   1
     Q(r) pseudized with 0 coefficients 


     atomic species   valence    mass     pseudopotential
        Ge            14.00    72.63000     Ge( 1.00)
        Se             6.00    78.97100     Se( 1.00)
        N              5.00    14.00700     N ( 1.00)

      2 Sym. Ops. (no inversion) found ( 1 have fractional translation)


                                    s                        frac. trans.

      isym =  1     identity                                     

 cryst.   s( 1) = (     1          0          0      )
                  (     0          1          0      )
                  (     0          0          1      )

 cart.    s( 1) = (  1.0000000  0.0000000  0.0000000 )
                  (  0.0000000  1.0000000  0.0000000 )
                  (  0.0000000  0.0000000  1.0000000 )


      isym =  2     180 deg rotation - cart. axis [0,0,1]        

 cryst.   s( 2) = (    -1          0          0      )    f =( -0.0000000 )
                  (     0         -1          0      )       ( -0.0000000 )
                  (     0          0          1      )       (  0.5000000 )

 cart.    s( 2) = ( -1.0000000 -0.0000000  0.0000000 )    f =(  0.0000000 )
                  (  0.0000000 -1.0000000  0.0000000 )       ( -0.0000000 )
                  (  0.0000000  0.0000000  1.0000000 )       (  0.4071827 )


   Cartesian axes

     site n.     atom                  positions (alat units)
         1           Ge  tau(   1) = (   0.3532129   0.0279628   0.6789527  )
         2           Ge  tau(   2) = (   0.3456304   0.5474075   0.6789527  )
         3           Ge  tau(   3) = (   0.2166929   0.7937471   0.2717700  )
         4           Ge  tau(   4) = (   0.2242754   0.2743024   0.2717700  )
         5           Se  tau(   5) = (  -0.3054520   0.5835767   0.5489042  )
         6           Se  tau(   6) = (  -0.1246422   0.2381332   0.1417216  )
         7           N   tau(   7) = (   0.3983441   0.0744132   0.1476176  )
         8           N   tau(   8) = (   0.2817407   0.5367960   0.1476176  )
         9           N   tau(   9) = (   0.1715617   0.7472967   0.5548002  )
        10           N   tau(  10) = (   0.2881652   0.2849139   0.5548002  )

   Crystallographic axes

     site n.     atom                  positions (cryst. coord.)
         1           Ge  tau(   1) = (  0.3678490  0.0340300  0.8337200  )
         2           Ge  tau(   2) = (  0.6321510  0.6661810  0.8337200  )
         3           Ge  tau(   3) = (  0.6321510  0.9659700  0.3337200  )
         4           Ge  tau(   4) = (  0.3678490  0.3338190  0.3337200  )
         5           Se  tau(   5) = (  0.0000000  0.7101980  0.6740270  )
         6           Se  tau(   6) = (  0.0000000  0.2898020  0.1740270  )
         7           N   tau(   7) = (  0.4372930  0.0905590  0.1812670  )
         8           N   tau(   8) = (  0.5627070  0.6532670  0.1812670  )
         9           N   tau(   9) = (  0.5627070  0.9094410  0.6812670  )
        10           N   tau(  10) = (  0.4372930  0.3467330  0.6812670  )

     number of k points=    10
                       cart. coord. in units 2pi/alat
        k(    1) = (   0.0000000   0.0000000   0.0000000), wk =   0.0740741
        k(    2) = (   0.0000000   0.0000000   0.4093167), wk =   0.1481481
        k(    3) = (   0.0000000   0.4056582   0.0000000), wk =   0.1481481
        k(    4) = (   0.0000000   0.4056582   0.4093167), wk =   0.2962963
        k(    5) = (   0.3333333   0.1744712   0.0000000), wk =   0.1481481
        k(    6) = (   0.3333333   0.1744712   0.4093167), wk =   0.2962963
        k(    7) = (   0.3333333   0.5801294   0.0000000), wk =   0.1481481
        k(    8) = (   0.3333333   0.5801294   0.4093167), wk =   0.2962963
        k(    9) = (   0.3333333  -0.2311869   0.0000000), wk =   0.1481481
        k(   10) = (   0.3333333  -0.2311869   0.4093167), wk =   0.2962963

                       cryst. coord.
        k(    1) = (   0.0000000   0.0000000   0.0000000), wk =   0.0740741
        k(    2) = (   0.0000000   0.0000000   0.3333333), wk =   0.1481481
        k(    3) = (   0.0000000   0.3333333   0.0000000), wk =   0.1481481
        k(    4) = (   0.0000000   0.3333333   0.3333333), wk =   0.2962963
        k(    5) = (   0.3333333   0.0000000   0.0000000), wk =   0.1481481
        k(    6) = (   0.3333333   0.0000000   0.3333333), wk =   0.2962963
        k(    7) = (   0.3333333   0.3333333   0.0000000), wk =   0.1481481
        k(    8) = (   0.3333333   0.3333333   0.3333333), wk =   0.2962963
        k(    9) = (   0.3333333  -0.3333333   0.0000000), wk =   0.1481481
        k(   10) = (   0.3333333  -0.3333333   0.3333333), wk =   0.2962963

     Dense  grid:    73115 G-vectors     FFT dimensions: (  60,  60,  50)

     Smooth grid:    25781 G-vectors     FFT dimensions: (  45,  40,  36)

     Dynamical RAM for                 wfc:       0.39 MB

     Dynamical RAM for     wfc (w. buffer):       2.36 MB

     Dynamical RAM for           str. fact:       0.42 MB

     Dynamical RAM for           local pot:       0.00 MB

     Dynamical RAM for          nlocal pot:       0.86 MB

     Dynamical RAM for                qrad:       3.73 MB

     Dynamical RAM for          rho,v,vnew:       1.00 MB

     Dynamical RAM for               rhoin:       0.33 MB

     Dynamical RAM for            rho*nmix:       2.23 MB

     Dynamical RAM for           G-vectors:       0.55 MB

     Dynamical RAM for          h,s,v(r/c):       0.75 MB

     Dynamical RAM for          <psi|beta>:       0.14 MB

     Dynamical RAM for                 psi:       0.79 MB

     Dynamical RAM for                hpsi:       0.79 MB

     Dynamical RAM for                spsi:       0.79 MB

     Dynamical RAM for      wfcinit/wfcrot:       0.88 MB

     Dynamical RAM for           addusdens:      13.32 MB

     Estimated static dynamical RAM per process >      10.77 MB

     Estimated max dynamical RAM per process >      26.31 MB

     Estimated total dynamical RAM >     403.17 MB

     Check: negative core charge=   -0.000002

     Initial potential from superposition of free atoms

     starting charge      87.9963, renormalised to      88.0000
     Starting wfcs are   60 randomized atomic wfcs +    4 random wfcs

     total cpu time spent up to now is        1.4 secs

     Self-consistent Calculation

     iteration #  1     ecut=    30.00 Ry     beta= 0.70
     Davidson diagonalization with overlap

---- Real-time Memory Report at c_bands before calling an iterative solver
           222 MiB given to the printing process from OS
             0 MiB allocation reported by mallinfo(arena+hblkhd)
        172439 MiB available memory on the node where the printing process lives
------------------
     ethr =  1.00E-02,  avg # of iterations =  5.5

     total cpu time spent up to now is        2.7 secs

     total energy              =   -1021.37558778 Ry
     estimated scf accuracy    <       2.29898086 Ry

     iteration #  2     ecut=    30.00 Ry     beta= 0.70
     Davidson diagonalization with overlap

---- Real-time Memory Report at c_bands before calling an iterative solver
           236 MiB given to the printing process from OS
             0 MiB allocation reported by mallinfo(arena+hblkhd)
        172398 MiB available memory on the node where the printing process lives
------------------
     ethr =  2.61E-03,  avg # of iterations =  3.0

     total cpu time spent up to now is        3.9 secs

     total energy              =   -1021.58388683 Ry
     estimated scf accuracy    <       4.29698804 Ry

     iteration #  3     ecut=    30.00 Ry     beta= 0.70
     Davidson diagonalization with overlap

---- Real-time Memory Report at c_bands before calling an iterative solver
           238 MiB given to the printing process from OS
             0 MiB allocation reported by mallinfo(arena+hblkhd)
        174069 MiB available memory on the node where the printing process lives
------------------
     ethr =  2.61E-03,  avg # of iterations =  2.0

     total cpu time spent up to now is        4.8 secs

     total energy              =   -1022.45228288 Ry
     estimated scf accuracy    <       0.13230882 Ry

     iteration #  4     ecut=    30.00 Ry     beta= 0.70
     Davidson diagonalization with overlap

---- Real-time Memory Report at c_bands before calling an iterative solver
           238 MiB given to the printing process from OS
             0 MiB allocation reported by mallinfo(arena+hblkhd)
        174693 MiB available memory on the node where the printing process lives
------------------
     ethr =  1.50E-04,  avg # of iterations =  2.0

     total cpu time spent up to now is        5.7 secs

     total energy              =   -1022.47493452 Ry
     estimated scf accuracy    <       0.00850611 Ry

     iteration #  5     ecut=    30.00 Ry     beta= 0.70
     Davidson diagonalization with overlap

---- Real-time Memory Report at c_bands before calling an iterative solver
           239 MiB given to the printing process from OS
             0 MiB allocation reported by mallinfo(arena+hblkhd)
        174013 MiB available memory on the node where the printing process lives
------------------
     ethr =  9.67E-06,  avg # of iterations =  5.6

     total cpu time spent up to now is        7.0 secs

     total energy              =   -1022.47612343 Ry
     estimated scf accuracy    <       0.00089123 Ry

     iteration #  6     ecut=    30.00 Ry     beta= 0.70
     Davidson diagonalization with overlap

---- Real-time Memory Report at c_bands before calling an iterative solver
           239 MiB given to the printing process from OS
             0 MiB allocation reported by mallinfo(arena+hblkhd)
        173967 MiB available memory on the node where the printing process lives
------------------
     ethr =  1.01E-06,  avg # of iterations =  4.1

     total cpu time spent up to now is        8.1 secs

     total energy              =   -1022.47635024 Ry
     estimated scf accuracy    <       0.00010369 Ry

     iteration #  7     ecut=    30.00 Ry     beta= 0.70
     Davidson diagonalization with overlap

---- Real-time Memory Report at c_bands before calling an iterative solver
           239 MiB given to the printing process from OS
             0 MiB allocation reported by mallinfo(arena+hblkhd)
        174245 MiB available memory on the node where the printing process lives
------------------
     ethr =  1.18E-07,  avg # of iterations =  2.0

     total cpu time spent up to now is        9.0 secs

     total energy              =   -1022.47635870 Ry
     estimated scf accuracy    <       0.00000772 Ry

     iteration #  8     ecut=    30.00 Ry     beta= 0.70
     Davidson diagonalization with overlap

---- Real-time Memory Report at c_bands before calling an iterative solver
           239 MiB given to the printing process from OS
             0 MiB allocation reported by mallinfo(arena+hblkhd)
        173696 MiB available memory on the node where the printing process lives
------------------
     ethr =  8.77E-09,  avg # of iterations =  2.0

     total cpu time spent up to now is       10.0 secs

     End of self-consistent calculation

          k = 0.0000 0.0000 0.0000 (  3239 PWs)   bands (ev):

   -18.3925 -18.3893 -18.3829 -18.3125 -18.3124 -18.2763 -18.2751 -18.2668
   -18.2607 -18.2584 -18.2444 -18.2345 -18.2189 -18.2156 -18.2138 -18.2080
   -18.2019 -18.1996 -18.1898 -18.1841 -10.6410  -8.2516  -8.0604  -8.0458
    -5.8118  -5.6311  -2.6972  -2.6758  -2.5430   0.5678   0.7736   1.0223
     1.7391   2.9962   3.1601   3.4301   3.9734   4.0054   4.8946   5.1996
     5.2663   5.8623   5.9952   6.0812   7.8963   9.2638   9.2988  10.6421
    10.8589  11.8365  12.0433  12.5796  12.9742  13.2080  13.5984  14.1495
    14.2368  15.0473  15.0542  15.4401  15.7905  16.1527  16.5958  17.1901

     occupation numbers 
     1.0000   1.0000   1.0000   1.0000   1.0000   1.0000   1.0000   1.0000
     1.0000   1.0000   1.0000   1.0000   1.0000   1.0000   1.0000   1.0000
     1.0000   1.0000   1.0000   1.0000   1.0000   1.0000   1.0000   1.0000
     1.0000   1.0000   1.0000   1.0000   1.0000   1.0000   1.0000   1.0000
     1.0000   1.0000   1.0000   1.0000   1.0000   1.0000   1.0000   1.0000
     1.0000   1.0000   1.0000   1.0000   0.0000   0.0000   0.0000   0.0000
     0.0000   0.0000   0.0000   0.0000   0.0000   0.0000   0.0000   0.0000
     0.0000   0.0000   0.0000   0.0000   0.0000   0.0000   0.0000   0.0000

          k = 0.0000 0.0000 0.4093 (  3217 PWs)   bands (ev):

   -18.3869 -18.3828 -18.3722 -18.3382 -18.2984 -18.2745 -18.2735 -18.2686
   -18.2573 -18.2530 -18.2477 -18.2428 -18.2103 -18.2102 -18.2089 -18.2030
   -18.2023 -18.1963 -18.1926 -18.1923 -10.1918  -8.9944  -8.1307  -8.0297
    -5.7272  -5.6081  -3.1901  -3.1719  -1.1621   0.9306   1.2555   1.6488
     1.8726   2.5174   2.6567   2.7087   3.7555   4.0911   4.8776   5.3058
     5.3686   5.6887   5.7251   5.9584   8.8581   9.3034   9.5537   9.6550
    11.7577  11.8298  12.1320  12.4772  12.7986  13.0208  13.8570  14.3894
    14.4407  14.4602  14.9458  15.0273  16.1011  16.4127  17.4428  17.6081

     occupation numbers 
     1.0000   1.0000   1.0000   1.0000   1.0000   1.0000   1.0000   1.0000
     1.0000   1.0000   1.0000   1.0000   1.0000   1.0000   1.0000   1.0000
     1.0000   1.0000   1.0000   1.0000   1.0000   1.0000   1.0000   1.0000
     1.0000   1.0000   1.0000   1.0000   1.0000   1.0000   1.0000   1.0000
     1.0000   1.0000   1.0000   1.0000   1.0000   1.0000   1.0000   1.0000
     1.0000   1.0000   1.0000   1.0000   0.0000   0.0000   0.0000   0.0000
     0.0000   0.0000   0.0000   0.0000   0.0000   0.0000   0.0000   0.0000
     0.0000   0.0000   0.0000   0.0000   0.0000   0.0000   0.0000   0.0000

          k = 0.0000 0.4057 0.0000 (  3237 PWs)   bands (ev):

   -18.3982 -18.3946 -18.3628 -18.3328 -18.3005 -18.2874 -18.2698 -18.2649
   -18.2612 -18.2576 -18.2397 -18.2345 -18.2239 -18.2213 -18.2111 -18.2094
   -18.1975 -18.1942 -18.1881 -18.1871 -10.2887  -9.3325  -7.8373  -7.5794
    -5.9824  -5.7103  -2.9430  -2.5530  -0.9046  -0.0627   0.5057   1.2395
     1.8184   2.7154   2.7808   2.9780   4.1416   4.2634   4.6592   5.0118
     5.1031   5.1406   5.8611   6.1120   8.9811   9.4753   9.8555  10.7309
    11.3505  11.9726  12.2222  12.5835  12.9960  13.1563  13.5736  13.9713
    14.3455  14.9442  15.1107  15.5096  15.9419  16.1928  16.4569  16.9320

     occupation numbers 
     1.0000   1.0000   1.0000   1.0000   1.0000   1.0000   1.0000   1.0000
     1.0000   1.0000   1.0000   1.0000   1.0000   1.0000   1.0000   1.0000
     1.0000   1.0000   1.0000   1.0000   1.0000   1.0000   1.0000   1.0000
     1.0000   1.0000   1.0000   1.0000   1.0000   1.0000   1.0000   1.0000
     1.0000   1.0000   1.0000   1.0000   1.0000   1.0000   1.0000   1.0000
     1.0000   1.0000   1.0000   1.0000   0.0000   0.0000   0.0000   0.0000
     0.0000   0.0000   0.0000   0.0000   0.0000   0.0000   0.0000   0.0000
     0.0000   0.0000   0.0000   0.0000   0.0000   0.0000   0.0000   0.0000

          k = 0.0000 0.4057 0.4093 (  3229 PWs)   bands (ev):

   -18.3895 -18.3793 -18.3711 -18.3495 -18.2911 -18.2802 -18.2696 -18.2676
   -18.2608 -18.2576 -18.2471 -18.2428 -18.2152 -18.2132 -18.2083 -18.2065
   -18.1961 -18.1949 -18.1932 -18.1920  -9.8551  -8.9734  -8.7119  -8.1095
    -5.8673  -5.7250  -2.7284  -1.8788  -1.3098   0.3254   1.0143   1.2578
     1.8854   2.4975   2.7701   3.0758   3.5104   3.7706   4.5548   4.8456
     5.2258   5.5265   6.0968   6.2056   9.1491   9.2665   9.7616  10.3540
    11.7168  11.8626  12.2271  12.5499  12.7767  13.2389  13.6968  13.9627
    14.3919  14.5635  15.2138  15.5842  15.8296  15.9904  16.9143  17.0991

     occupation numbers 
     1.0000   1.0000   1.0000   1.0000   1.0000   1.0000   1.0000   1.0000
     1.0000   1.0000   1.0000   1.0000   1.0000   1.0000   1.0000   1.0000
     1.0000   1.0000   1.0000   1.0000   1.0000   1.0000   1.0000   1.0000
     1.0000   1.0000   1.0000   1.0000   1.0000   1.0000   1.0000   1.0000
     1.0000   1.0000   1.0000   1.0000   1.0000   1.0000   1.0000   1.0000
     1.0000   1.0000   1.0000   1.0000   0.0000   0.0000   0.0000   0.0000
     0.0000   0.0000   0.0000   0.0000   0.0000   0.0000   0.0000   0.0000
     0.0000   0.0000   0.0000   0.0000   0.0000   0.0000   0.0000   0.0000

          k = 0.3333 0.1745 0.0000 (  3222 PWs)   bands (ev):

   -18.3915 -18.3886 -18.3812 -18.3111 -18.3101 -18.2760 -18.2704 -18.2682
   -18.2598 -18.2574 -18.2463 -18.2304 -18.2189 -18.2167 -18.2127 -18.2087
   -18.2029 -18.1996 -18.1888 -18.1852 -10.5783  -8.2936  -8.1139  -7.9897
    -6.2005  -5.6704  -2.9549  -1.9453  -1.8872   0.6394   0.7722   1.2496
     1.5986   1.8532   3.2251   3.4494   3.6486   3.9732   4.6792   4.7619
     5.4958   5.6998   6.0974   6.1741   8.8154   9.5201  10.2441  10.7780
    11.0961  11.4772  11.9460  12.1304  12.5232  12.6965  13.4170  14.0388
    14.0574  14.3650  14.9565  15.3913  16.2679  16.6116  17.0143  17.4569

     occupation numbers 
     1.0000   1.0000   1.0000   1.0000   1.0000   1.0000   1.0000   1.0000
     1.0000   1.0000   1.0000   1.0000   1.0000   1.0000   1.0000   1.0000
     1.0000   1.0000   1.0000   1.0000   1.0000   1.0000   1.0000   1.0000
     1.0000   1.0000   1.0000   1.0000   1.0000   1.0000   1.0000   1.0000
     1.0000   1.0000   1.0000   1.0000   1.0000   1.0000   1.0000   1.0000
     1.0000   1.0000   1.0000   1.0000   0.0000   0.0000   0.0000   0.0000
     0.0000   0.0000   0.0000   0.0000   0.0000   0.0000   0.0000   0.0000
     0.0000   0.0000   0.0000   0.0000   0.0000   0.0000   0.0000   0.0000

          k = 0.3333 0.1745 0.4093 (  3236 PWs)   bands (ev):

   -18.3889 -18.3832 -18.3728 -18.3368 -18.3019 -18.2769 -18.2746 -18.2706
   -18.2585 -18.2521 -18.2504 -18.2384 -18.2138 -18.2125 -18.2096 -18.2054
   -18.2030 -18.1988 -18.1951 -18.1930 -10.1297  -8.9353  -8.1561  -8.0581
    -6.1397  -5.8786  -2.5780  -2.4879  -1.3678   0.7254   1.5745   1.7320
     1.8780   2.2104   2.7814   2.8446   3.5161   3.6856   4.7036   4.8529
     5.0288   5.4456   5.9251   5.9985   9.4485   9.4564  10.2525  10.3001
    11.1186  11.3972  12.0325  12.3331  12.6738  12.9933  13.5551  13.8219
    14.3484  15.1259  15.1738  15.4903  15.8385  16.1392  17.2977  17.4107

     occupation numbers 
     1.0000   1.0000   1.0000   1.0000   1.0000   1.0000   1.0000   1.0000
     1.0000   1.0000   1.0000   1.0000   1.0000   1.0000   1.0000   1.0000
     1.0000   1.0000   1.0000   1.0000   1.0000   1.0000   1.0000   1.0000
     1.0000   1.0000   1.0000   1.0000   1.0000   1.0000   1.0000   1.0000
     1.0000   1.0000   1.0000   1.0000   1.0000   1.0000   1.0000   1.0000
     1.0000   1.0000   1.0000   1.0000   0.0000   0.0000   0.0000   0.0000
     0.0000   0.0000   0.0000   0.0000   0.0000   0.0000   0.0000   0.0000
     0.0000   0.0000   0.0000   0.0000   0.0000   0.0000   0.0000   0.0000

          k = 0.3333 0.5801 0.0000 (  3250 PWs)   bands (ev):

   -18.3985 -18.3933 -18.3642 -18.3329 -18.3015 -18.2879 -18.2687 -18.2650
   -18.2618 -18.2603 -18.2437 -18.2309 -18.2242 -18.2208 -18.2138 -18.2111
   -18.1974 -18.1962 -18.1907 -18.1876 -10.2248  -9.3931  -7.7984  -7.5860
    -6.2928  -5.6107  -2.9597  -2.2459  -0.1279   0.0166   0.1381   0.6772
     1.7917   2.3824   3.0680   3.4456   3.5526   4.1286   4.3227   5.0122
     5.1795   5.4346   5.8062   5.9931   9.6211   9.7365  10.1424  10.7090
    10.8148  11.8575  12.2710  12.7166  12.9295  13.1904  13.4755  13.8513
    14.1897  14.6751  15.3417  15.3656  15.7217  16.2523  16.7867  16.9107

     occupation numbers 
     1.0000   1.0000   1.0000   1.0000   1.0000   1.0000   1.0000   1.0000
     1.0000   1.0000   1.0000   1.0000   1.0000   1.0000   1.0000   1.0000
     1.0000   1.0000   1.0000   1.0000   1.0000   1.0000   1.0000   1.0000
     1.0000   1.0000   1.0000   1.0000   1.0000   1.0000   1.0000   1.0000
     1.0000   1.0000   1.0000   1.0000   1.0000   1.0000   1.0000   1.0000
     1.0000   1.0000   1.0000   1.0000   0.0000   0.0000   0.0000   0.0000
     0.0000   0.0000   0.0000   0.0000   0.0000   0.0000   0.0000   0.0000
     0.0000   0.0000   0.0000   0.0000   0.0000   0.0000   0.0000   0.0000

          k = 0.3333 0.5801 0.4093 (  3223 PWs)   bands (ev):

   -18.3883 -18.3796 -18.3708 -18.3475 -18.2913 -18.2818 -18.2681 -18.2679
   -18.2600 -18.2556 -18.2488 -18.2395 -18.2159 -18.2129 -18.2098 -18.2061
   -18.1970 -18.1964 -18.1917 -18.1913  -9.7920  -9.0271  -8.6573  -8.1437
    -6.1156  -5.7730  -2.0629  -1.8806  -1.1202  -0.2450   1.0089   1.2116
     2.2236   2.4956   2.9535   3.0992   3.1596   3.5199   4.8222   4.8492
     5.1259   5.1839   5.8549   6.2302   9.4624   9.4668  10.1805  10.1814
    11.5085  11.7226  12.2661  12.4104  12.7906  13.4818  13.5626  13.7546
    14.5133  14.7705  15.1050  15.2142  15.3607  16.3068  16.9478  17.1587

     occupation numbers 
     1.0000   1.0000   1.0000   1.0000   1.0000   1.0000   1.0000   1.0000
     1.0000   1.0000   1.0000   1.0000   1.0000   1.0000   1.0000   1.0000
     1.0000   1.0000   1.0000   1.0000   1.0000   1.0000   1.0000   1.0000
     1.0000   1.0000   1.0000   1.0000   1.0000   1.0000   1.0000   1.0000
     1.0000   1.0000   1.0000   1.0000   1.0000   1.0000   1.0000   1.0000
     1.0000   1.0000   1.0000   1.0000   0.0000   0.0000   0.0000   0.0000
     0.0000   0.0000   0.0000   0.0000   0.0000   0.0000   0.0000   0.0000
     0.0000   0.0000   0.0000   0.0000   0.0000   0.0000   0.0000   0.0000

          k = 0.3333-0.2312 0.0000 (  3237 PWs)   bands (ev):

   -18.3982 -18.3946 -18.3628 -18.3328 -18.3005 -18.2874 -18.2697 -18.2650
   -18.2612 -18.2576 -18.2396 -18.2345 -18.2238 -18.2214 -18.2111 -18.2094
   -18.1974 -18.1942 -18.1881 -18.1871 -10.2887  -9.3325  -7.8374  -7.5794
    -5.9823  -5.7103  -2.9431  -2.5527  -0.9046  -0.0627   0.5054   1.2393
     1.8185   2.7157   2.7810   2.9779   4.1418   4.2633   4.6592   5.0118
     5.1031   5.1401   5.8613   6.1122   8.9811   9.4753   9.8556  10.7310
    11.3505  11.9725  12.2221  12.5837  12.9960  13.1561  13.5735  13.9711
    14.3454  14.9442  15.1105  15.5098  15.9418  16.1927  16.4570  16.9320

     occupation numbers 
     1.0000   1.0000   1.0000   1.0000   1.0000   1.0000   1.0000   1.0000
     1.0000   1.0000   1.0000   1.0000   1.0000   1.0000   1.0000   1.0000
     1.0000   1.0000   1.0000   1.0000   1.0000   1.0000   1.0000   1.0000
     1.0000   1.0000   1.0000   1.0000   1.0000   1.0000   1.0000   1.0000
     1.0000   1.0000   1.0000   1.0000   1.0000   1.0000   1.0000   1.0000
     1.0000   1.0000   1.0000   1.0000   0.0000   0.0000   0.0000   0.0000
     0.0000   0.0000   0.0000   0.0000   0.0000   0.0000   0.0000   0.0000
     0.0000   0.0000   0.0000   0.0000   0.0000   0.0000   0.0000   0.0000

          k = 0.3333-0.2312 0.4093 (  3229 PWs)   bands (ev):

   -18.3895 -18.3793 -18.3711 -18.3495 -18.2911 -18.2802 -18.2696 -18.2676
   -18.2608 -18.2577 -18.2470 -18.2428 -18.2152 -18.2132 -18.2083 -18.2065
   -18.1961 -18.1949 -18.1932 -18.1920  -9.8551  -8.9734  -8.7120  -8.1095
    -5.8672  -5.7250  -2.7284  -1.8786  -1.3100   0.3253   1.0141   1.2578
     1.8853   2.4977   2.7702   3.0758   3.5106   3.7706   4.5546   4.8452
     5.2260   5.5268   6.0968   6.2058   9.1491   9.2664   9.7616  10.3539
    11.7168  11.8625  12.2270  12.5499  12.7767  13.2390  13.6969  13.9628
    14.3918  14.5635  15.2137  15.5843  15.8296  15.9904  16.9142  17.0992

     occupation numbers 
     1.0000   1.0000   1.0000   1.0000   1.0000   1.0000   1.0000   1.0000
     1.0000   1.0000   1.0000   1.0000   1.0000   1.0000   1.0000   1.0000
     1.0000   1.0000   1.0000   1.0000   1.0000   1.0000   1.0000   1.0000
     1.0000   1.0000   1.0000   1.0000   1.0000   1.0000   1.0000   1.0000
     1.0000   1.0000   1.0000   1.0000   1.0000   1.0000   1.0000   1.0000
     1.0000   1.0000   1.0000   1.0000   0.0000   0.0000   0.0000   0.0000
     0.0000   0.0000   0.0000   0.0000   0.0000   0.0000   0.0000   0.0000
     0.0000   0.0000   0.0000   0.0000   0.0000   0.0000   0.0000   0.0000

     highest occupied, lowest unoccupied level (ev):     6.2302    7.8963

!    total energy              =   -1022.47636007 Ry
     estimated scf accuracy    <       0.00000027 Ry

     The total energy is the sum of the following terms:
     one-electron contribution =    -737.14231615 Ry
     hartree contribution      =     435.65938721 Ry
     xc contribution           =    -314.72385404 Ry
     ewald contribution        =    -406.26957709 Ry

     convergence has been achieved in   8 iterations

     Writing all to output data dir bands_nm/myprefix.save/
 
     init_run     :      3.02s CPU      1.03s WALL (       1 calls)
     electrons    :     33.21s CPU      8.66s WALL (       1 calls)

     Called by init_run:
     wfcinit      :      0.93s CPU      0.24s WALL (       1 calls)
     wfcinit:atom :      0.00s CPU      0.00s WALL (       5 calls)
     wfcinit:wfcr :      0.91s CPU      0.24s WALL (       5 calls)
     potinit      :      0.95s CPU      0.34s WALL (       1 calls)
     hinit0       :      0.60s CPU      0.19s WALL (       1 calls)

     Called by electrons:
     c_bands      :     26.46s CPU      6.87s WALL (       8 calls)
     sum_band     :      4.84s CPU      1.26s WALL (       8 calls)
     v_of_rho     :      0.21s CPU      0.06s WALL (       9 calls)
     v_h          :      0.02s CPU      0.00s WALL (       9 calls)
     v_xc         :      0.20s CPU      0.05s WALL (       9 calls)
     newd         :      1.71s CPU      0.45s WALL (       9 calls)
     mix_rho      :      0.05s CPU      0.01s WALL (       8 calls)

     Called by c_bands:
     init_us_2    :      0.06s CPU      0.02s WALL (      85 calls)
     init_us_2:cp :      0.06s CPU      0.02s WALL (      85 calls)
     cegterg      :     11.27s CPU      2.92s WALL (      40 calls)

     Called by sum_band:
     sum_band:wei :      0.00s CPU      0.00s WALL (       8 calls)
     sum_band:loo :      1.44s CPU      0.37s WALL (       8 calls)
     sum_band:buf :      0.02s CPU      0.00s WALL (      40 calls)
     sum_band:ini :      0.03s CPU      0.01s WALL (      40 calls)
     sum_band:cal :      0.18s CPU      0.04s WALL (      40 calls)
     sum_band:bec :      0.01s CPU      0.01s WALL (      40 calls)
     addusdens    :      1.47s CPU      0.39s WALL (       8 calls)
     addusd:skk   :      0.00s CPU      0.00s WALL (      24 calls)
     addusd:dgemm :      0.05s CPU      0.02s WALL (      24 calls)
     addusd:qvan2 :      0.22s CPU      0.06s WALL (      24 calls)

     Called by *egterg:
     cdiaghg      :      2.44s CPU      0.63s WALL (     167 calls)
     cegterg:over :      0.83s CPU      0.19s WALL (     127 calls)
     cegterg:upda :      0.14s CPU      0.06s WALL (     127 calls)
     cegterg:last :      0.36s CPU      0.10s WALL (      80 calls)
     h_psi        :      7.15s CPU      1.88s WALL (     172 calls)
     s_psi        :      0.29s CPU      0.08s WALL (     172 calls)
     g_psi        :      0.01s CPU      0.00s WALL (     127 calls)

     Called by h_psi:
     h_psi:calbec :      0.51s CPU      0.13s WALL (     172 calls)
     vloc_psi     :      6.42s CPU      1.67s WALL (     172 calls)
     add_vuspsi   :      0.21s CPU      0.08s WALL (     172 calls)

     General routines
     calbec       :      0.69s CPU      0.18s WALL (     212 calls)
     fft          :      0.26s CPU      0.07s WALL (     115 calls)
     ffts         :      0.02s CPU      0.01s WALL (      17 calls)
     fftw         :      7.39s CPU      1.80s WALL (   15514 calls)
     interpolate  :      0.02s CPU      0.00s WALL (       9 calls)
 
     Parallel routines
 
     PWSCF        :     37.74s CPU     10.55s WALL

 
   This run was terminated on:   5:39:42  13Jul2023            

=------------------------------------------------------------------------------=
   JOB DONE.
=------------------------------------------------------------------------------=
