
     Program PWSCF v.7.0 starts on  4Jun2023 at 16:51:50 

     This program is part of the open-source Quantum ESPRESSO suite
     for quantum simulation of materials; please cite
         "P. Giannozzi et al., J. Phys.:Condens. Matter 21 395502 (2009);
         "P. Giannozzi et al., J. Phys.:Condens. Matter 29 465901 (2017);
         "P. Giannozzi et al., J. Chem. Phys. 152 154105 (2020);
          URL http://www.quantum-espresso.org", 
     in publications or presentations arising from this work. More details at
     http://www.quantum-espresso.org/quote

     Parallel version (MPI & OpenMP), running on      32 processor cores
     Number of MPI processes:                 8
     Threads/MPI process:                     4

     MPI processes distributed on     1 nodes
     K-points division:     npool     =       2
     R & G space division:  proc/nbgrp/npool/nimage =       4
     52251 MiB available memory on the printing compute node when the environment starts
 
     Reading input from espresso_2619.pwi
Warning: card &CELL ignored
Warning: card / ignored

     Current dimensions of program PWSCF are:
     Max number of different atomic species (ntypx) = 10
     Max number of k-points (npk) =  40000
     Max angular momentum in pseudopotentials (lmaxx) =  4
     file O.pbe-n-kjpaw_psl.0.1.UPF: wavefunction(s)  2P renormalized
     Message from routine setup:
     using ibrav=0 with symmetry is DISCOURAGED, use correct ibrav instead

     Subspace diagonalization in iterative solution of the eigenvalue problem:
     one sub-group per band group will be used
     scalapack distributed-memory algorithm (size of sub-group:  2*  2 procs)

 
     Parallelization info
     --------------------
     sticks:   dense  smooth     PW     G-vecs:    dense   smooth      PW
     Min         473     234     69                15518     5473     866
     Max         474     235     70                15519     5474     868
     Sum        1893     939    277                62073    21895    3467
 
     Using Slab Decomposition
 


     bravais-lattice index     =            0
     lattice parameter (alat)  =       9.1006  a.u.
     unit-cell volume          =     988.3216 (a.u.)^3
     number of atoms/cell      =           12
     number of atomic types    =            2
     number of electrons       =       104.00
     number of Kohn-Sham states=           64
     kinetic-energy cutoff     =      30.0000  Ry
     charge density cutoff     =     240.0000  Ry
     scf convergence threshold =      1.0E-06
     mixing beta               =       0.7000
     number of iterations used =            8  plain     mixing
     Exchange-correlation= SLA  PW   PBX  PBC
                           (   1   4   3   4   0   0   0)

     celldm(1)=   9.100649  celldm(2)=   0.000000  celldm(3)=   0.000000
     celldm(4)=   0.000000  celldm(5)=   0.000000  celldm(6)=   0.000000

     crystal axes: (cart. coord. in units of alat)
               a(1) = (   1.000000   0.000000   0.000000 )  
               a(2) = (   0.000000   1.195955   0.000000 )  
               a(3) = (   0.000000  -0.730610   1.096393 )  

     reciprocal axes: (cart. coord. in units 2 pi/alat)
               b(1) = (  1.000000  0.000000  0.000000 )  
               b(2) = (  0.000000  0.836152  0.557191 )  
               b(3) = (  0.000000  0.000000  0.912082 )  


     PseudoPot. # 1 for Mo read from file:
     /home/pragov/projects/rrg-bengioy-ad/pragov/crystal_structure_design/SSSP/Mo_ONCV_PBE-1.0.oncvpsp.upf
     MD5 check sum: 1b5d28e075c9ccadda658a603575cd1f
     Pseudo is Norm-conserving, Zval = 14.0
     Generated using ONCVPSP code by D. R. Hamann
     Using radial grid of 1526 points,  6 beta functions with: 
                l(1) =   0
                l(2) =   0
                l(3) =   1
                l(4) =   1
                l(5) =   2
                l(6) =   2

     PseudoPot. # 2 for O  read from file:
     /home/pragov/projects/rrg-bengioy-ad/pragov/crystal_structure_design/SSSP/O.pbe-n-kjpaw_psl.0.1.UPF
     MD5 check sum: 0234752ac141de4415c5fc33072bef88
     Pseudo is Projector augmented-wave + core cor, Zval =  6.0
     Generated using "atomic" code by A. Dal Corso  v.5.0.99 svn rev. 10869
     Shape of augmentation charge: BESSEL
     Using radial grid of 1095 points,  4 beta functions with: 
                l(1) =   0
                l(2) =   0
                l(3) =   1
                l(4) =   1
     Q(r) pseudized with 0 coefficients 


     atomic species   valence    mass     pseudopotential
        Mo            14.00    95.95000     Mo( 1.00)
        O              6.00    15.99900     O ( 1.00)

      2 Sym. Ops. (no inversion) found ( 1 have fractional translation)


                                    s                        frac. trans.

      isym =  1     identity                                     

 cryst.   s( 1) = (     1          0          0      )
                  (     0          1          0      )
                  (     0          0          1      )

 cart.    s( 1) = (  1.0000000  0.0000000  0.0000000 )
                  (  0.0000000  1.0000000 -0.0000000 )
                  (  0.0000000  0.0000000  1.0000000 )


      isym =  2     180 deg rotation - cart. axis [1,0,0]        

 cryst.   s( 2) = (     1          0          0      )    f =( -0.5000000 )
                  (     0         -1          0      )       ( -0.0000000 )
                  (     0          0         -1      )       (  0.0000000 )

 cart.    s( 2) = (  1.0000000  0.0000000  0.0000000 )    f =( -0.5000000 )
                  (  0.0000000 -1.0000000  0.0000000 )       ( -0.0000000 )
                  (  0.0000000  0.0000000 -1.0000000 )       (  0.0000000 )


   Cartesian axes

     site n.     atom                  positions (alat units)
         1           Mo  tau(   1) = (   0.0096280   0.8970267   0.0002127  )
         2           Mo  tau(   2) = (   0.5096280  -0.4316813   1.0961804  )
         3           Mo  tau(   3) = (   0.5103860  -0.0662931   0.5483972  )
         4           Mo  tau(   4) = (   0.0103860   0.5316385   0.5479959  )
         5           O   tau(   5) = (   0.7089460  -0.4218142   0.7105724  )
         6           O   tau(   6) = (   0.2089460   0.8871596   0.3858207  )
         7           O   tau(   7) = (   0.8110920   0.5415946   0.1624087  )
         8           O   tau(   8) = (   0.3110920  -0.0762492   0.9339844  )
         9           O   tau(   9) = (   0.7077520  -0.0566315   0.1620063  )
        10           O   tau(  10) = (   0.2077520   0.5219769   0.9343868  )
        11           O   tau(  11) = (   0.8121960   0.1759741   0.7101799  )
        12           O   tau(  12) = (   0.3121960   0.2893714   0.3862133  )

   Crystallographic axes

     site n.     atom                  positions (cryst. coord.)
         1           Mo  tau(   1) = (  0.0096280  0.7501690  0.0001940  )
         2           Mo  tau(   2) = (  0.5096280  0.2498310  0.9998060  )
         3           Mo  tau(   3) = (  0.5103860  0.2501310  0.5001830  )
         4           Mo  tau(   4) = (  0.0103860  0.7498690  0.4998170  )
         5           O   tau(   5) = (  0.7089460  0.0432240  0.6481000  )
         6           O   tau(   6) = (  0.2089460  0.9567760  0.3519000  )
         7           O   tau(   7) = (  0.8110920  0.5433480  0.1481300  )
         8           O   tau(   8) = (  0.3110920  0.4566520  0.8518700  )
         9           O   tau(   9) = (  0.7077520  0.0429160  0.1477630  )
        10           O   tau(  10) = (  0.2077520  0.9570840  0.8522370  )
        11           O   tau(  11) = (  0.8121960  0.5428470  0.6477420  )
        12           O   tau(  12) = (  0.3121960  0.4571530  0.3522580  )

     number of k points=    10
                       cart. coord. in units 2pi/alat
        k(    1) = (   0.0000000   0.0000000   0.0000000), wk =   0.0740741
        k(    2) = (   0.0000000   0.0000000   0.3040272), wk =   0.1481481
        k(    3) = (   0.0000000   0.2787173   0.1857304), wk =   0.1481481
        k(    4) = (   0.0000000   0.2787173   0.4897576), wk =   0.1481481
        k(    5) = (   0.0000000   0.2787173  -0.1182968), wk =   0.1481481
        k(    6) = (   0.3333333   0.0000000   0.0000000), wk =   0.1481481
        k(    7) = (   0.3333333   0.0000000   0.3040272), wk =   0.2962963
        k(    8) = (   0.3333333   0.2787173   0.1857304), wk =   0.2962963
        k(    9) = (   0.3333333   0.2787173   0.4897576), wk =   0.2962963
        k(   10) = (   0.3333333   0.2787173  -0.1182968), wk =   0.2962963

                       cryst. coord.
        k(    1) = (   0.0000000   0.0000000   0.0000000), wk =   0.0740741
        k(    2) = (   0.0000000   0.0000000   0.3333333), wk =   0.1481481
        k(    3) = (   0.0000000   0.3333333   0.0000000), wk =   0.1481481
        k(    4) = (   0.0000000   0.3333333   0.3333333), wk =   0.1481481
        k(    5) = (   0.0000000   0.3333333  -0.3333333), wk =   0.1481481
        k(    6) = (   0.3333333   0.0000000   0.0000000), wk =   0.1481481
        k(    7) = (   0.3333333   0.0000000   0.3333333), wk =   0.2962963
        k(    8) = (   0.3333333   0.3333333   0.0000000), wk =   0.2962963
        k(    9) = (   0.3333333   0.3333333   0.3333333), wk =   0.2962963
        k(   10) = (   0.3333333   0.3333333  -0.3333333), wk =   0.2962963

     Dense  grid:    62073 G-vectors     FFT dimensions: (  48,  54,  60)

     Smooth grid:    21895 G-vectors     FFT dimensions: (  32,  40,  45)

     Dynamical RAM for                 wfc:       0.67 MB

     Dynamical RAM for     wfc (w. buffer):       4.01 MB

     Dynamical RAM for           str. fact:       0.47 MB

     Dynamical RAM for           local pot:       0.00 MB

     Dynamical RAM for          nlocal pot:       1.42 MB

     Dynamical RAM for                qrad:       2.49 MB

     Dynamical RAM for          rho,v,vnew:       1.60 MB

     Dynamical RAM for               rhoin:       0.53 MB

     Dynamical RAM for            rho*nmix:       3.79 MB

     Dynamical RAM for           G-vectors:       0.93 MB

     Dynamical RAM for          h,s,v(r/c):       0.19 MB

     Dynamical RAM for          <psi|beta>:       0.13 MB

     Dynamical RAM for                 psi:       1.34 MB

     Dynamical RAM for                hpsi:       1.34 MB

     Dynamical RAM for                spsi:       1.34 MB

     Dynamical RAM for      wfcinit/wfcrot:       1.62 MB

     Dynamical RAM for           addusdens:       7.10 MB

     Estimated static dynamical RAM per process >      13.65 MB

     Estimated max dynamical RAM per process >      24.55 MB

     Estimated total dynamical RAM >     181.21 MB

     Check: negative core charge=   -0.000016

     Initial potential from superposition of free atoms

     starting charge     103.9960, renormalised to     104.0000
     Starting wfcs are   72 randomized atomic wfcs
     Checking if some PAW data can be deallocated... 
       PAW data deallocated on    2 nodes for type:  2

     total cpu time spent up to now is        1.6 secs

     Self-consistent Calculation

     iteration #  1     ecut=    30.00 Ry     beta= 0.70
     Davidson diagonalization with overlap

---- Real-time Memory Report at c_bands before calling an iterative solver
           137 MiB given to the printing process from OS
             0 MiB allocation reported by mallinfo(arena+hblkhd)
         52085 MiB available memory on the node where the printing process lives
------------------
     ethr =  1.00E-02,  avg # of iterations =  2.0

     total cpu time spent up to now is        2.2 secs

     total energy              =    -879.90737620 Ry
     estimated scf accuracy    <       3.18678270 Ry

     iteration #  2     ecut=    30.00 Ry     beta= 0.70
     Davidson diagonalization with overlap

---- Real-time Memory Report at c_bands before calling an iterative solver
           150 MiB given to the printing process from OS
             0 MiB allocation reported by mallinfo(arena+hblkhd)
         51992 MiB available memory on the node where the printing process lives
------------------
     ethr =  3.06E-03,  avg # of iterations =  5.0

     total cpu time spent up to now is        2.9 secs

     total energy              =    -877.28931965 Ry
     estimated scf accuracy    <      26.34282609 Ry

     iteration #  3     ecut=    30.00 Ry     beta= 0.70
     Davidson diagonalization with overlap

---- Real-time Memory Report at c_bands before calling an iterative solver
           156 MiB given to the printing process from OS
             0 MiB allocation reported by mallinfo(arena+hblkhd)
         51950 MiB available memory on the node where the printing process lives
------------------
     ethr =  3.06E-03,  avg # of iterations =  3.1

     total cpu time spent up to now is        3.5 secs

     total energy              =    -881.74759698 Ry
     estimated scf accuracy    <       0.29842884 Ry

     iteration #  4     ecut=    30.00 Ry     beta= 0.70
     Davidson diagonalization with overlap

---- Real-time Memory Report at c_bands before calling an iterative solver
           156 MiB given to the printing process from OS
             0 MiB allocation reported by mallinfo(arena+hblkhd)
         51953 MiB available memory on the node where the printing process lives
------------------
     ethr =  2.87E-04,  avg # of iterations =  1.7

     total cpu time spent up to now is        3.9 secs

     total energy              =    -881.72859603 Ry
     estimated scf accuracy    <       0.14889909 Ry

     iteration #  5     ecut=    30.00 Ry     beta= 0.70
     Davidson diagonalization with overlap

---- Real-time Memory Report at c_bands before calling an iterative solver
           156 MiB given to the printing process from OS
             0 MiB allocation reported by mallinfo(arena+hblkhd)
         51864 MiB available memory on the node where the printing process lives
------------------
     ethr =  1.43E-04,  avg # of iterations =  2.1

     total cpu time spent up to now is        4.4 secs

     total energy              =    -881.67609294 Ry
     estimated scf accuracy    <       1.79203001 Ry

     iteration #  6     ecut=    30.00 Ry     beta= 0.70
     Davidson diagonalization with overlap

---- Real-time Memory Report at c_bands before calling an iterative solver
           156 MiB given to the printing process from OS
             0 MiB allocation reported by mallinfo(arena+hblkhd)
         51765 MiB available memory on the node where the printing process lives
------------------
     ethr =  1.43E-04,  avg # of iterations =  1.5

     total cpu time spent up to now is        4.8 secs

     total energy              =    -881.73022066 Ry
     estimated scf accuracy    <       0.02198473 Ry

     iteration #  7     ecut=    30.00 Ry     beta= 0.70
     Davidson diagonalization with overlap

---- Real-time Memory Report at c_bands before calling an iterative solver
           156 MiB given to the printing process from OS
             0 MiB allocation reported by mallinfo(arena+hblkhd)
         51765 MiB available memory on the node where the printing process lives
------------------
     ethr =  2.11E-05,  avg # of iterations =  2.0

     total cpu time spent up to now is        5.3 secs

     total energy              =    -881.73117110 Ry
     estimated scf accuracy    <       0.00136359 Ry

     iteration #  8     ecut=    30.00 Ry     beta= 0.70
     Davidson diagonalization with overlap

---- Real-time Memory Report at c_bands before calling an iterative solver
           156 MiB given to the printing process from OS
             0 MiB allocation reported by mallinfo(arena+hblkhd)
         51391 MiB available memory on the node where the printing process lives
------------------
     ethr =  1.31E-06,  avg # of iterations =  6.7

     total cpu time spent up to now is        6.0 secs

     total energy              =    -881.73161595 Ry
     estimated scf accuracy    <       0.00374837 Ry

     iteration #  9     ecut=    30.00 Ry     beta= 0.70
     Davidson diagonalization with overlap

---- Real-time Memory Report at c_bands before calling an iterative solver
           159 MiB given to the printing process from OS
             0 MiB allocation reported by mallinfo(arena+hblkhd)
         51940 MiB available memory on the node where the printing process lives
------------------
     ethr =  1.31E-06,  avg # of iterations =  1.0

     total cpu time spent up to now is        6.4 secs

     total energy              =    -881.73164835 Ry
     estimated scf accuracy    <       0.00053657 Ry

     iteration # 10     ecut=    30.00 Ry     beta= 0.70
     Davidson diagonalization with overlap

---- Real-time Memory Report at c_bands before calling an iterative solver
           159 MiB given to the printing process from OS
             0 MiB allocation reported by mallinfo(arena+hblkhd)
         51939 MiB available memory on the node where the printing process lives
------------------
     ethr =  5.16E-07,  avg # of iterations =  1.0

     total cpu time spent up to now is        6.8 secs

     total energy              =    -881.73166778 Ry
     estimated scf accuracy    <       0.00010919 Ry

     iteration # 11     ecut=    30.00 Ry     beta= 0.70
     Davidson diagonalization with overlap

---- Real-time Memory Report at c_bands before calling an iterative solver
           159 MiB given to the printing process from OS
             0 MiB allocation reported by mallinfo(arena+hblkhd)
         51938 MiB available memory on the node where the printing process lives
------------------
     ethr =  1.05E-07,  avg # of iterations =  2.2

     total cpu time spent up to now is        7.3 secs

     total energy              =    -881.73167574 Ry
     estimated scf accuracy    <       0.00000940 Ry

     iteration # 12     ecut=    30.00 Ry     beta= 0.70
     Davidson diagonalization with overlap

---- Real-time Memory Report at c_bands before calling an iterative solver
           159 MiB given to the printing process from OS
             0 MiB allocation reported by mallinfo(arena+hblkhd)
         51939 MiB available memory on the node where the printing process lives
------------------
     ethr =  9.04E-09,  avg # of iterations =  4.0

     total cpu time spent up to now is        7.8 secs

     total energy              =    -881.73167708 Ry
     estimated scf accuracy    <       0.00000591 Ry

     iteration # 13     ecut=    30.00 Ry     beta= 0.70
     Davidson diagonalization with overlap

---- Real-time Memory Report at c_bands before calling an iterative solver
           159 MiB given to the printing process from OS
             0 MiB allocation reported by mallinfo(arena+hblkhd)
         51842 MiB available memory on the node where the printing process lives
------------------
     ethr =  5.68E-09,  avg # of iterations =  1.0

     total cpu time spent up to now is        8.2 secs

     End of self-consistent calculation

          k = 0.0000 0.0000 0.0000 (  2787 PWs)   bands (ev):

   -50.7311 -50.7219 -50.7057 -50.7055 -25.0682 -25.0661 -24.8967 -24.8908
   -24.8421 -24.8419 -24.7597 -24.7313 -24.6505 -24.6440 -24.5992 -24.5978
    -8.4332  -7.8104  -7.8037  -7.7336  -7.0100  -7.0071  -6.9509  -6.9463
     3.6984   3.7495   4.5217   4.5249   4.7576   4.9099   4.9301   5.4244
     5.4459   6.4236   6.4763   7.1134   7.1813   7.2795   7.2798   7.2835
     7.3486   7.3914   8.3893   8.3962   8.4404   8.6869   8.6870   9.3453
    10.7715  10.8268  10.9057  10.9146  11.3126  11.4185  11.4519  12.3354
    12.3503  13.0996  13.1682  13.9448  14.1489  14.3164  14.3860  15.7494

     occupation numbers 
     1.0000   1.0000   1.0000   1.0000   1.0000   1.0000   1.0000   1.0000
     1.0000   1.0000   1.0000   1.0000   1.0000   1.0000   1.0000   1.0000
     1.0000   1.0000   1.0000   1.0000   1.0000   1.0000   1.0000   1.0000
     1.0000   1.0000   1.0000   1.0000   1.0000   1.0000   1.0000   1.0000
     1.0000   1.0000   1.0000   1.0000   1.0000   1.0000   1.0000   1.0000
     1.0000   1.0000   1.0000   1.0000   1.0000   1.0000   1.0000   1.0000
     1.0000   1.0000   1.0000   1.0000   0.0000   0.0000   0.0000   0.0000
     0.0000   0.0000   0.0000   0.0000   0.0000   0.0000   0.0000   0.0000

          k = 0.0000 0.0000 0.3040 (  2741 PWs)   bands (ev):

   -50.7246 -50.7173 -50.7118 -50.7096 -24.9926 -24.9879 -24.8846 -24.8796
   -24.8507 -24.8490 -24.8322 -24.8131 -24.6408 -24.6366 -24.6144 -24.6142
    -8.1551  -7.7575  -7.6294  -7.5776  -7.2290  -7.1734  -7.1597  -7.1120
     4.1445   4.2817   4.7427   4.8039   5.0490   5.1061   5.3485   5.3644
     5.5448   5.7778   6.2129   6.4998   6.6409   7.1156   7.1687   7.2968
     7.3113   7.3748   7.6460   8.1432   8.1675   8.2221   8.5789   9.0689
    11.1133  11.2796  11.3673  11.4938  11.7266  11.7932  12.0592  12.1038
    12.2858  12.9220  13.0883  13.7045  14.5024  14.6372  14.6430  15.5078

     occupation numbers 
     1.0000   1.0000   1.0000   1.0000   1.0000   1.0000   1.0000   1.0000
     1.0000   1.0000   1.0000   1.0000   1.0000   1.0000   1.0000   1.0000
     1.0000   1.0000   1.0000   1.0000   1.0000   1.0000   1.0000   1.0000
     1.0000   1.0000   1.0000   1.0000   1.0000   1.0000   1.0000   1.0000
     1.0000   1.0000   1.0000   1.0000   1.0000   1.0000   1.0000   1.0000
     1.0000   1.0000   1.0000   1.0000   1.0000   1.0000   1.0000   1.0000
     1.0000   1.0000   1.0000   1.0000   0.0000   0.0000   0.0000   0.0000
     0.0000   0.0000   0.0000   0.0000   0.0000   0.0000   0.0000   0.0000

          k = 0.0000 0.2787 0.1857 (  2718 PWs)   bands (ev):

   -50.7283 -50.7238 -50.7054 -50.7053 -25.0587 -25.0575 -24.8839 -24.8802
   -24.8507 -24.8504 -24.7523 -24.7381 -24.6624 -24.6583 -24.5987 -24.5980
    -8.1114  -7.6231  -7.6198  -7.6154  -7.2940  -7.2235  -7.2192  -7.1447
     4.3378   4.4397   4.7649   4.7834   5.3384   5.3456   5.4354   5.5359
     5.5701   6.1527   6.1669   6.2833   6.3508   6.7229   6.7356   7.2641
     7.2765   7.2876   7.3437   7.8332   8.0540   8.0572   8.4971   9.0157
    11.2270  11.3927  11.9111  11.9304  11.9706  12.0764  12.1358  12.3159
    12.3254  12.9001  12.9516  13.4314  14.8234  14.8979  14.9390  15.7274

     occupation numbers 
     1.0000   1.0000   1.0000   1.0000   1.0000   1.0000   1.0000   1.0000
     1.0000   1.0000   1.0000   1.0000   1.0000   1.0000   1.0000   1.0000
     1.0000   1.0000   1.0000   1.0000   1.0000   1.0000   1.0000   1.0000
     1.0000   1.0000   1.0000   1.0000   1.0000   1.0000   1.0000   1.0000
     1.0000   1.0000   1.0000   1.0000   1.0000   1.0000   1.0000   1.0000
     1.0000   1.0000   1.0000   1.0000   1.0000   1.0000   1.0000   1.0000
     1.0000   1.0000   1.0000   1.0000   0.0000   0.0000   0.0000   0.0000
     0.0000   0.0000   0.0000   0.0000   0.0000   0.0000   0.0000   0.0000

          k = 0.0000 0.2787 0.4898 (  2738 PWs)   bands (ev):

   -50.7211 -50.7209 -50.7127 -50.7086 -24.9862 -24.9719 -24.8843 -24.8827
   -24.8647 -24.8620 -24.8132 -24.8127 -24.6495 -24.6478 -24.6128 -24.6097
    -7.7879  -7.6885  -7.6649  -7.4181  -7.3692  -7.3463  -7.2980  -7.2962
     4.5174   4.8337   5.0297   5.0524   5.1430   5.1599   5.4466   5.4952
     5.8191   5.8530   5.9909   6.0250   6.4431   6.5672   6.5736   7.0792
     7.0873   7.1314   7.1831   7.9903   8.0311   8.2383   8.7158   8.7217
    11.6074  11.6328  11.6397  11.6483  12.0958  12.1076  12.1955  12.4013
    12.4168  12.8503  12.8948  13.1905  14.9150  14.9612  15.1739  15.4275

     occupation numbers 
     1.0000   1.0000   1.0000   1.0000   1.0000   1.0000   1.0000   1.0000
     1.0000   1.0000   1.0000   1.0000   1.0000   1.0000   1.0000   1.0000
     1.0000   1.0000   1.0000   1.0000   1.0000   1.0000   1.0000   1.0000
     1.0000   1.0000   1.0000   1.0000   1.0000   1.0000   1.0000   1.0000
     1.0000   1.0000   1.0000   1.0000   1.0000   1.0000   1.0000   1.0000
     1.0000   1.0000   1.0000   1.0000   1.0000   1.0000   1.0000   1.0000
     1.0000   1.0000   1.0000   1.0000   0.0000   0.0000   0.0000   0.0000
     0.0000   0.0000   0.0000   0.0000   0.0000   0.0000   0.0000   0.0000

          k = 0.0000 0.2787-0.1183 (  2740 PWs)   bands (ev):

   -50.7247 -50.7173 -50.7119 -50.7094 -24.9955 -24.9863 -24.8881 -24.8810
   -24.8494 -24.8490 -24.8296 -24.8105 -24.6417 -24.6359 -24.6156 -24.6127
    -8.1657  -7.7829  -7.6339  -7.5883  -7.2039  -7.1650  -7.1468  -7.1001
     4.1223   4.2723   4.6851   4.8089   5.0246   5.0880   5.3352   5.3694
     5.5594   5.7962   6.2369   6.5122   6.6538   7.1329   7.1783   7.3119
     7.3304   7.3799   7.6914   8.1432   8.1915   8.2262   8.5840   9.0692
    11.1054  11.2656  11.3516  11.4743  11.6834  11.7743  12.0655  12.0804
    12.2690  12.8911  13.1656  13.7288  14.4512  14.6553  14.7025  15.5246

     occupation numbers 
     1.0000   1.0000   1.0000   1.0000   1.0000   1.0000   1.0000   1.0000
     1.0000   1.0000   1.0000   1.0000   1.0000   1.0000   1.0000   1.0000
     1.0000   1.0000   1.0000   1.0000   1.0000   1.0000   1.0000   1.0000
     1.0000   1.0000   1.0000   1.0000   1.0000   1.0000   1.0000   1.0000
     1.0000   1.0000   1.0000   1.0000   1.0000   1.0000   1.0000   1.0000
     1.0000   1.0000   1.0000   1.0000   1.0000   1.0000   1.0000   1.0000
     1.0000   1.0000   1.0000   1.0000   0.0000   0.0000   0.0000   0.0000
     0.0000   0.0000   0.0000   0.0000   0.0000   0.0000   0.0000   0.0000

          k = 0.3333 0.0000 0.0000 (  2764 PWs)   bands (ev):

   -50.7285 -50.7238 -50.7058 -50.7056 -25.0587 -25.0575 -24.8835 -24.8806
   -24.8521 -24.8518 -24.7524 -24.7382 -24.6619 -24.6590 -24.5999 -24.5991
    -8.1131  -7.6259  -7.6233  -7.6198  -7.2834  -7.2116  -7.2107  -7.1449
     4.3284   4.4461   4.8044   4.8066   5.0675   5.0677   5.4361   5.5490
     5.5726   5.8302   5.8406   6.3103   6.3290   6.6559   6.6816   7.2706
     7.3261   7.8147   7.8330   7.8680   8.4661   8.6192   8.6235   8.9772
    11.2226  11.3881  11.4913  11.5063  11.9889  12.0655  12.1162  12.3617
    12.3673  12.6060  12.6534  13.4274  14.8648  14.8850  14.9424  15.7467

     occupation numbers 
     1.0000   1.0000   1.0000   1.0000   1.0000   1.0000   1.0000   1.0000
     1.0000   1.0000   1.0000   1.0000   1.0000   1.0000   1.0000   1.0000
     1.0000   1.0000   1.0000   1.0000   1.0000   1.0000   1.0000   1.0000
     1.0000   1.0000   1.0000   1.0000   1.0000   1.0000   1.0000   1.0000
     1.0000   1.0000   1.0000   1.0000   1.0000   1.0000   1.0000   1.0000
     1.0000   1.0000   1.0000   1.0000   1.0000   1.0000   1.0000   1.0000
     1.0000   1.0000   1.0000   1.0000   0.0000   0.0000   0.0000   0.0000
     0.0000   0.0000   0.0000   0.0000   0.0000   0.0000   0.0000   0.0000

          k = 0.3333 0.0000 0.3040 (  2737 PWs)   bands (ev):

   -50.7226 -50.7192 -50.7111 -50.7101 -24.9904 -24.9793 -24.8863 -24.8834
   -24.8653 -24.8502 -24.8224 -24.8107 -24.6486 -24.6379 -24.6141 -24.6113
    -7.9550  -7.6958  -7.5403  -7.5088  -7.4248  -7.3491  -7.2008  -7.1475
     4.1870   4.6815   4.7574   5.0115   5.0518   5.1613   5.1647   5.1899
     5.7622   5.9679   6.3033   6.3080   6.6621   6.8130   6.9306   7.1252
     7.3245   7.3299   7.7956   7.8043   8.2175   8.2673   8.5944   8.7491
    11.2961  11.3429  11.4835  11.6996  11.8808  12.0592  12.2193  12.2915
    12.3311  12.5044  12.9569  13.2532  14.5516  14.8947  15.3006  15.3664

     occupation numbers 
     1.0000   1.0000   1.0000   1.0000   1.0000   1.0000   1.0000   1.0000
     1.0000   1.0000   1.0000   1.0000   1.0000   1.0000   1.0000   1.0000
     1.0000   1.0000   1.0000   1.0000   1.0000   1.0000   1.0000   1.0000
     1.0000   1.0000   1.0000   1.0000   1.0000   1.0000   1.0000   1.0000
     1.0000   1.0000   1.0000   1.0000   1.0000   1.0000   1.0000   1.0000
     1.0000   1.0000   1.0000   1.0000   1.0000   1.0000   1.0000   1.0000
     1.0000   1.0000   1.0000   1.0000   0.0000   0.0000   0.0000   0.0000
     0.0000   0.0000   0.0000   0.0000   0.0000   0.0000   0.0000   0.0000

          k = 0.3333 0.2787 0.1857 (  2742 PWs)   bands (ev):

   -50.7272 -50.7247 -50.7056 -50.7055 -25.0667 -25.0586 -24.8978 -24.8845
   -24.8513 -24.8422 -24.7485 -24.7416 -24.6591 -24.6448 -24.5990 -24.5983
    -8.0791  -7.8004  -7.7992  -7.6112  -7.2417  -7.2261  -7.0152  -7.0102
     3.7259   4.3788   4.5507   4.8303   4.9374   5.0901   5.4083   5.5232
     5.8213   5.9670   6.3913   6.5075   7.0112   7.0506   7.1700   7.4115
     7.5792   7.6084   7.8743   7.9245   8.0188   8.0267   8.2198   8.5329
    10.7424  11.1117  11.2838  11.4697  11.5541  12.0425  12.3388  12.3428
    12.6556  12.7030  13.2671  13.2728  14.2718  14.9254  14.9854  15.7459

     occupation numbers 
     1.0000   1.0000   1.0000   1.0000   1.0000   1.0000   1.0000   1.0000
     1.0000   1.0000   1.0000   1.0000   1.0000   1.0000   1.0000   1.0000
     1.0000   1.0000   1.0000   1.0000   1.0000   1.0000   1.0000   1.0000
     1.0000   1.0000   1.0000   1.0000   1.0000   1.0000   1.0000   1.0000
     1.0000   1.0000   1.0000   1.0000   1.0000   1.0000   1.0000   1.0000
     1.0000   1.0000   1.0000   1.0000   1.0000   1.0000   1.0000   1.0000
     1.0000   1.0000   1.0000   1.0000   0.0000   0.0000   0.0000   0.0000
     0.0000   0.0000   0.0000   0.0000   0.0000   0.0000   0.0000   0.0000

          k = 0.3333 0.2787 0.4898 (  2738 PWs)   bands (ev):

   -50.7209 -50.7208 -50.7118 -50.7095 -24.9939 -24.9870 -24.8881 -24.8857
   -24.8506 -24.8489 -24.8226 -24.8201 -24.6376 -24.6368 -24.6150 -24.6132
    -7.8262  -7.8147  -7.7630  -7.6214  -7.2265  -7.1922  -7.1795  -7.1760
     4.1803   4.1979   4.7281   4.7966   5.0433   5.1567   5.1702   5.3366
     5.8111   6.2335   6.5093   6.7547   6.7866   7.1628   7.1724   7.1796
     7.2987   7.5327   7.5632   7.6984   8.0236   8.0361   8.1127   8.5619
    11.0760  11.3532  11.3794  11.6883  11.7441  11.7806  12.0912  12.2910
    12.7947  12.8263  12.9005  13.1640  14.4936  14.6507  15.4420  15.5364

     occupation numbers 
     1.0000   1.0000   1.0000   1.0000   1.0000   1.0000   1.0000   1.0000
     1.0000   1.0000   1.0000   1.0000   1.0000   1.0000   1.0000   1.0000
     1.0000   1.0000   1.0000   1.0000   1.0000   1.0000   1.0000   1.0000
     1.0000   1.0000   1.0000   1.0000   1.0000   1.0000   1.0000   1.0000
     1.0000   1.0000   1.0000   1.0000   1.0000   1.0000   1.0000   1.0000
     1.0000   1.0000   1.0000   1.0000   1.0000   1.0000   1.0000   1.0000
     1.0000   1.0000   1.0000   1.0000   0.0000   0.0000   0.0000   0.0000
     0.0000   0.0000   0.0000   0.0000   0.0000   0.0000   0.0000   0.0000

          k = 0.3333 0.2787-0.1183 (  2740 PWs)   bands (ev):

   -50.7226 -50.7192 -50.7112 -50.7100 -24.9900 -24.9789 -24.8840 -24.8831
   -24.8652 -24.8509 -24.8248 -24.8111 -24.6488 -24.6377 -24.6144 -24.6112
    -7.9522  -7.6886  -7.5350  -7.4908  -7.4367  -7.3481  -7.2157  -7.1580
     4.2070   4.7072   4.7688   5.0086   5.0427   5.1581   5.1686   5.1990
     5.7499   5.9724   6.2815   6.2961   6.6436   6.7955   6.9224   7.0928
     7.2998   7.3387   7.8011   7.8051   8.2270   8.2876   8.6116   8.7535
    11.3068  11.3724  11.4879  11.7024  11.8802  12.0697  12.2154  12.2963
    12.3116  12.4759  12.9551  13.2514  14.5543  14.9294  15.1912  15.3675

     occupation numbers 
     1.0000   1.0000   1.0000   1.0000   1.0000   1.0000   1.0000   1.0000
     1.0000   1.0000   1.0000   1.0000   1.0000   1.0000   1.0000   1.0000
     1.0000   1.0000   1.0000   1.0000   1.0000   1.0000   1.0000   1.0000
     1.0000   1.0000   1.0000   1.0000   1.0000   1.0000   1.0000   1.0000
     1.0000   1.0000   1.0000   1.0000   1.0000   1.0000   1.0000   1.0000
     1.0000   1.0000   1.0000   1.0000   1.0000   1.0000   1.0000   1.0000
     1.0000   1.0000   1.0000   1.0000   0.0000   0.0000   0.0000   0.0000
     0.0000   0.0000   0.0000   0.0000   0.0000   0.0000   0.0000   0.0000

     highest occupied, lowest unoccupied level (ev):    11.9304   11.3126

!    total energy              =    -881.73167695 Ry
     estimated scf accuracy    <       0.00000056 Ry

     The total energy is the sum of the following terms:
     one-electron contribution =    -250.25505727 Ry
     hartree contribution      =     176.46371380 Ry
     xc contribution           =    -120.90982299 Ry
     ewald contribution        =    -610.83879321 Ry
     one-center paw contrib.   =     -76.19171728 Ry
      -> PAW hartree energy AE =       0.00000000 Ry
      -> PAW hartree energy PS =       0.00000000 Ry
      -> PAW xc energy AE      =       0.00000000 Ry
      -> PAW xc energy PS      =       0.00000000 Ry
      -> total E_H with PAW    =     176.46371380 Ry
      -> total E_XC with PAW   =    -120.90982299 Ry

     convergence has been achieved in  13 iterations

     Writing all to output data dir calculations_bands/myprefix.save/
 
     init_run     :      4.75s CPU      1.51s WALL (       1 calls)
     electrons    :     25.27s CPU      6.61s WALL (       1 calls)

     Called by init_run:
     wfcinit      :      0.90s CPU      0.24s WALL (       1 calls)
     wfcinit:atom :      0.01s CPU      0.00s WALL (       5 calls)
     wfcinit:wfcr :      0.84s CPU      0.22s WALL (       5 calls)
     potinit      :      1.29s CPU      0.34s WALL (       1 calls)
     hinit0       :      1.87s CPU      0.74s WALL (       1 calls)

     Called by electrons:
     c_bands      :     18.72s CPU      4.87s WALL (      13 calls)
     sum_band     :      3.55s CPU      0.94s WALL (      13 calls)
     v_of_rho     :      0.65s CPU      0.17s WALL (      14 calls)
     v_h          :      0.05s CPU      0.01s WALL (      14 calls)
     v_xc         :      0.60s CPU      0.16s WALL (      14 calls)
     newd         :      0.37s CPU      0.11s WALL (      14 calls)
     PAW_pot      :      1.76s CPU      0.46s WALL (      14 calls)
     mix_rho      :      0.18s CPU      0.05s WALL (      13 calls)

     Called by c_bands:
     init_us_2    :      0.13s CPU      0.04s WALL (     135 calls)
     init_us_2:cp :      0.13s CPU      0.04s WALL (     135 calls)
     cegterg      :     17.52s CPU      4.55s WALL (      65 calls)

     Called by sum_band:
     sum_band:wei :      0.03s CPU      0.01s WALL (      13 calls)
     sum_band:loo :      2.77s CPU      0.72s WALL (      13 calls)
     sum_band:buf :      0.05s CPU      0.01s WALL (      65 calls)
     sum_band:ini :      0.06s CPU      0.02s WALL (      65 calls)
     sum_band:cal :      0.15s CPU      0.04s WALL (      65 calls)
     sum_band:bec :      0.02s CPU      0.01s WALL (      65 calls)
     addusdens    :      0.18s CPU      0.06s WALL (      13 calls)
     addusd:skk   :      0.01s CPU      0.00s WALL (      13 calls)
     addusd:dgemm :      0.02s CPU      0.02s WALL (      13 calls)
     addusd:qvan2 :      0.08s CPU      0.02s WALL (      13 calls)

     Called by *egterg:
     cdiaghg      :      4.05s CPU      1.06s WALL (     234 calls)
     cegterg:over :      0.54s CPU      0.14s WALL (     169 calls)
     cegterg:upda :      0.30s CPU      0.08s WALL (     169 calls)
     cegterg:last :      0.56s CPU      0.15s WALL (     119 calls)
     cdiaghg:chol :      0.26s CPU      0.07s WALL (     234 calls)
     cdiaghg:inve :      0.06s CPU      0.02s WALL (     234 calls)
     cdiaghg:para :      0.62s CPU      0.16s WALL (     468 calls)
     h_psi        :     12.26s CPU      3.19s WALL (     239 calls)
     s_psi        :      0.23s CPU      0.06s WALL (     239 calls)
     g_psi        :      0.02s CPU      0.01s WALL (     169 calls)

     Called by h_psi:
     h_psi:calbec :      0.45s CPU      0.12s WALL (     239 calls)
     vloc_psi     :     11.46s CPU      2.97s WALL (     239 calls)
     add_vuspsi   :      0.31s CPU      0.08s WALL (     239 calls)

     General routines
     calbec       :      0.59s CPU      0.16s WALL (     304 calls)
     fft          :      1.61s CPU      0.44s WALL (     180 calls)
     ffts         :      0.76s CPU      0.20s WALL (      27 calls)
     fftw         :     11.68s CPU      3.04s WALL (   23904 calls)
     interpolate  :      0.79s CPU      0.21s WALL (      14 calls)
 
     Parallel routines

     PAW routines
     PAW_pot      :      1.76s CPU      0.46s WALL (      14 calls)
     PAW_symme    :      0.01s CPU      0.00s WALL (      27 calls)
 
     PWSCF        :     30.93s CPU      8.51s WALL

 
   This run was terminated on:  16:51:59   4Jun2023            

=------------------------------------------------------------------------------=
   JOB DONE.
=------------------------------------------------------------------------------=
