
     Program PWSCF v.7.1 starts on 14Jul2023 at 17:54:39 

     This program is part of the open-source Quantum ESPRESSO suite
     for quantum simulation of materials; please cite
         "P. Giannozzi et al., J. Phys.:Condens. Matter 21 395502 (2009);
         "P. Giannozzi et al., J. Phys.:Condens. Matter 29 465901 (2017);
         "P. Giannozzi et al., J. Chem. Phys. 152 154105 (2020);
          URL http://www.quantum-espresso.org", 
     in publications or presentations arising from this work. More details at
     http://www.quantum-espresso.org/quote

     Parallel version (MPI & OpenMP), running on      32 processor cores
     Number of MPI processes:                 8
     Threads/MPI process:                     4

     MPI processes distributed on     1 nodes
     215913 MiB available memory on the printing compute node when the environment starts
 
     Reading input from espresso_14632.pwi
Warning: card &CELL ignored
Warning: card / ignored

     Current dimensions of program PWSCF are:
     Max number of different atomic species (ntypx) = 10
     Max number of k-points (npk) =  40000
     Max angular momentum in pseudopotentials (lmaxx) =  4
     file Cu.paw.z_11.ld1.psl.v1.0.0-low.upf: wavefunction(s)  4S 3D renormalized
     file O.pbe-n-kjpaw_psl.0.1.UPF: wavefunction(s)  2P renormalized
     Message from routine setup:
     using ibrav=0 with symmetry is DISCOURAGED, use correct ibrav instead
 
     K-points division:     npool     =       2
     R & G space division:  proc/nbgrp/npool/nimage =       4
     Subspace diagonalization in iterative solution of the eigenvalue problem:
     a serial algorithm will be used

 
     Parallelization info
     --------------------
     sticks:   dense  smooth     PW     G-vecs:    dense   smooth      PW
     Min         156      78     24                11052     3912     688
     Max         157      79     25                11056     3923     690
     Sum         625     313     97                44219    15663    2755
 
     Using Slab Decomposition
 


     bravais-lattice index     =            0
     lattice parameter (alat)  =       6.1309  a.u.
     unit-cell volume          =     704.3087 (a.u.)^3
     number of atoms/cell      =            8
     number of atomic types    =            3
     number of electrons       =        68.00
     number of Kohn-Sham states=           64
     kinetic-energy cutoff     =      30.0000  Ry
     charge density cutoff     =     240.0000  Ry
     scf convergence threshold =      1.0E-06
     mixing beta               =       0.7000
     number of iterations used =            8  plain     mixing
     Exchange-correlation= SLA  PW   PBX  PBC
                           (   1   4   3   4   0   0   0)

     celldm(1)=   6.130917  celldm(2)=   0.000000  celldm(3)=   0.000000
     celldm(4)=   0.000000  celldm(5)=   0.000000  celldm(6)=   0.000000

     crystal axes: (cart. coord. in units of alat)
               a(1) = (   1.000000   0.000000   0.000000 )  
               a(2) = (  -0.500000   0.866025   0.000000 )  
               a(3) = (   0.000000   0.000000   3.529036 )  

     reciprocal axes: (cart. coord. in units 2 pi/alat)
               b(1) = (  1.000000  0.577350  0.000000 )  
               b(2) = (  0.000000  1.154700  0.000000 )  
               b(3) = (  0.000000  0.000000  0.283363 )  


     PseudoPot. # 1 for Sc read from file:
     /lustre07/scratch/pragov/crystal_structure_design/utils/SSSP/Sc_ONCV_PBE-1.0.oncvpsp.upf
     MD5 check sum: e21af8023abb52e52cb7cd3133e4a229
     Pseudo is Norm-conserving, Zval = 11.0
     Generated using ONCVPSP code by D. R. Hamann
     Using radial grid of 1662 points,  6 beta functions with: 
                l(1) =   0
                l(2) =   0
                l(3) =   1
                l(4) =   1
                l(5) =   2
                l(6) =   2

     PseudoPot. # 2 for Cu read from file:
     /lustre07/scratch/pragov/crystal_structure_design/utils/SSSP/Cu.paw.z_11.ld1.psl.v1.0.0-low.upf
     MD5 check sum: 619f40885d92a09a85a8b37550532d0c
     Pseudo is Projector augmented-wave + core cor, Zval = 11.0
     Generated using &quot;atomic&quot; code by A. Dal Corso  v.6.3MaX
     Shape of augmentation charge: PSQ
     Using radial grid of 1199 points,  6 beta functions with: 
                l(1) =   0
                l(2) =   0
                l(3) =   1
                l(4) =   1
                l(5) =   2
                l(6) =   2
     Q(r) pseudized with 0 coefficients 


     PseudoPot. # 3 for O  read from file:
     /lustre07/scratch/pragov/crystal_structure_design/utils/SSSP/O.pbe-n-kjpaw_psl.0.1.UPF
     MD5 check sum: 0234752ac141de4415c5fc33072bef88
     Pseudo is Projector augmented-wave + core cor, Zval =  6.0
     Generated using "atomic" code by A. Dal Corso  v.5.0.99 svn rev. 10869
     Shape of augmentation charge: BESSEL
     Using radial grid of 1095 points,  4 beta functions with: 
                l(1) =   0
                l(2) =   0
                l(3) =   1
                l(4) =   1
     Q(r) pseudized with 0 coefficients 


     atomic species   valence    mass     pseudopotential
        Sc            11.00    44.95591     Sc( 1.00)
        Cu            11.00    63.54600     Cu( 1.00)
        O              6.00    15.99900     O ( 1.00)

     24 Sym. Ops., with inversion, found (12 have fractional translation)


                                    s                        frac. trans.

      isym =  1     identity                                     

 cryst.   s( 1) = (     1          0          0      )
                  (     0          1          0      )
                  (     0          0          1      )

 cart.    s( 1) = (  1.0000000  0.0000000  0.0000000 )
                  (  0.0000000  1.0000000  0.0000000 )
                  (  0.0000000  0.0000000  1.0000000 )


      isym =  2     180 deg rotation - cart. axis [0,0,1]        

 cryst.   s( 2) = (    -1          0          0      )    f =(  0.0000000 )
                  (     0         -1          0      )       (  0.0000000 )
                  (     0          0          1      )       ( -0.5000000 )

 cart.    s( 2) = ( -1.0000000  0.0000000  0.0000000 )    f =(  0.0000000 )
                  (  0.0000000 -1.0000000  0.0000000 )       (  0.0000000 )
                  (  0.0000000  0.0000000  1.0000000 )       ( -1.7645180 )


      isym =  3     180 deg rotation - cart. axis [0,1,0]        

 cryst.   s( 3) = (    -1          0          0      )    f =(  0.0000000 )
                  (     1          1          0      )       (  0.0000000 )
                  (     0          0         -1      )       (  0.5000000 )

 cart.    s( 3) = ( -1.0000000  0.0000004  0.0000000 )    f =(  0.0000000 )
                  (  0.0000000  1.0000000  0.0000000 )       (  0.0000000 )
                  (  0.0000000  0.0000000 -1.0000000 )       (  1.7645180 )


      isym =  4     180 deg rotation - cart. axis [1,0,0]        

 cryst.   s( 4) = (     1          0          0      )
                  (    -1         -1          0      )
                  (     0          0         -1      )

 cart.    s( 4) = (  1.0000000 -0.0000004  0.0000000 )
                  (  0.0000000 -1.0000000  0.0000000 )
                  (  0.0000000  0.0000000 -1.0000000 )


      isym =  5      60 deg rotation - cryst. axis [0,0,1]       

 cryst.   s( 5) = (     1          1          0      )    f =(  0.0000000 )
                  (    -1          0          0      )       (  0.0000000 )
                  (     0          0          1      )       ( -0.5000000 )

 cart.    s( 5) = (  0.5000002 -0.8660253  0.0000000 )    f =(  0.0000000 )
                  (  0.8660255  0.4999998  0.0000000 )       (  0.0000000 )
                  (  0.0000000  0.0000000  1.0000000 )       ( -1.7645180 )


      isym =  6      60 deg rotation - cryst. axis [0,0,-1]      

 cryst.   s( 6) = (     0         -1          0      )    f =(  0.0000000 )
                  (     1          1          0      )       (  0.0000000 )
                  (     0          0          1      )       ( -0.5000000 )

 cart.    s( 6) = (  0.4999998  0.8660253  0.0000000 )    f =(  0.0000000 )
                  ( -0.8660255  0.5000002  0.0000000 )       (  0.0000000 )
                  (  0.0000000  0.0000000  1.0000000 )       ( -1.7645180 )


      isym =  7     120 deg rotation - cryst. axis [0,0,1]       

 cryst.   s( 7) = (     0          1          0      )
                  (    -1         -1          0      )
                  (     0          0          1      )

 cart.    s( 7) = ( -0.4999998 -0.8660253  0.0000000 )
                  (  0.8660255 -0.5000002  0.0000000 )
                  (  0.0000000  0.0000000  1.0000000 )


      isym =  8     120 deg rotation - cryst. axis [0,0,-1]      

 cryst.   s( 8) = (    -1         -1          0      )
                  (     1          0          0      )
                  (     0          0          1      )

 cart.    s( 8) = ( -0.5000002  0.8660253  0.0000000 )
                  ( -0.8660255 -0.4999998  0.0000000 )
                  (  0.0000000  0.0000000  1.0000000 )


      isym =  9     180 deg rotation - cryst. axis [1,-1,0]      

 cryst.   s( 9) = (     0         -1          0      )    f =(  0.0000000 )
                  (    -1          0          0      )       (  0.0000000 )
                  (     0          0         -1      )       (  0.5000000 )

 cart.    s( 9) = (  0.4999998 -0.8660255  0.0000000 )    f =(  0.0000000 )
                  ( -0.8660255 -0.4999998  0.0000000 )       (  0.0000000 )
                  (  0.0000000  0.0000000 -1.0000000 )       (  1.7645180 )


      isym = 10     180 deg rotation - cryst. axis [2,1,0]       

 cryst.   s(10) = (     1          1          0      )    f =(  0.0000000 )
                  (     0         -1          0      )       (  0.0000000 )
                  (     0          0         -1      )       (  0.5000000 )

 cart.    s(10) = (  0.5000002  0.8660251  0.0000000 )    f =(  0.0000000 )
                  (  0.8660255 -0.5000002  0.0000000 )       (  0.0000000 )
                  (  0.0000000  0.0000000 -1.0000000 )       (  1.7645180 )


      isym = 11     180 deg rotation - cryst. axis [0,1,0]       

 cryst.   s(11) = (    -1         -1          0      )
                  (     0          1          0      )
                  (     0          0         -1      )

 cart.    s(11) = ( -0.5000002 -0.8660251  0.0000000 )
                  ( -0.8660255  0.5000002  0.0000000 )
                  (  0.0000000  0.0000000 -1.0000000 )


      isym = 12     180 deg rotation - cryst. axis [1,1,0]       

 cryst.   s(12) = (     0          1          0      )
                  (     1          0          0      )
                  (     0          0         -1      )

 cart.    s(12) = ( -0.4999998  0.8660255  0.0000000 )
                  (  0.8660255  0.4999998  0.0000000 )
                  (  0.0000000  0.0000000 -1.0000000 )


      isym = 13     inversion                                    

 cryst.   s(13) = (    -1          0          0      )
                  (     0         -1          0      )
                  (     0          0         -1      )

 cart.    s(13) = ( -1.0000000  0.0000000  0.0000000 )
                  (  0.0000000 -1.0000000  0.0000000 )
                  (  0.0000000  0.0000000 -1.0000000 )


      isym = 14     inv. 180 deg rotation - cart. axis [0,0,1]   

 cryst.   s(14) = (     1          0          0      )    f =(  0.0000000 )
                  (     0          1          0      )       (  0.0000000 )
                  (     0          0         -1      )       (  0.5000000 )

 cart.    s(14) = (  1.0000000  0.0000000  0.0000000 )    f =(  0.0000000 )
                  (  0.0000000  1.0000000  0.0000000 )       (  0.0000000 )
                  (  0.0000000  0.0000000 -1.0000000 )       (  1.7645180 )


      isym = 15     inv. 180 deg rotation - cart. axis [0,1,0]   

 cryst.   s(15) = (     1          0          0      )    f =(  0.0000000 )
                  (    -1         -1          0      )       (  0.0000000 )
                  (     0          0          1      )       ( -0.5000000 )

 cart.    s(15) = (  1.0000000 -0.0000004  0.0000000 )    f =(  0.0000000 )
                  (  0.0000000 -1.0000000  0.0000000 )       (  0.0000000 )
                  (  0.0000000  0.0000000  1.0000000 )       ( -1.7645180 )


      isym = 16     inv. 180 deg rotation - cart. axis [1,0,0]   

 cryst.   s(16) = (    -1          0          0      )
                  (     1          1          0      )
                  (     0          0          1      )

 cart.    s(16) = ( -1.0000000  0.0000004  0.0000000 )
                  (  0.0000000  1.0000000  0.0000000 )
                  (  0.0000000  0.0000000  1.0000000 )


      isym = 17     inv.  60 deg rotation - cryst. axis [0,0,1]  

 cryst.   s(17) = (    -1         -1          0      )    f =(  0.0000000 )
                  (     1          0          0      )       (  0.0000000 )
                  (     0          0         -1      )       (  0.5000000 )

 cart.    s(17) = ( -0.5000002  0.8660253  0.0000000 )    f =(  0.0000000 )
                  ( -0.8660255 -0.4999998  0.0000000 )       (  0.0000000 )
                  (  0.0000000  0.0000000 -1.0000000 )       (  1.7645180 )


      isym = 18     inv.  60 deg rotation - cryst. axis [0,0,-1] 

 cryst.   s(18) = (     0          1          0      )    f =(  0.0000000 )
                  (    -1         -1          0      )       (  0.0000000 )
                  (     0          0         -1      )       (  0.5000000 )

 cart.    s(18) = ( -0.4999998 -0.8660253  0.0000000 )    f =(  0.0000000 )
                  (  0.8660255 -0.5000002  0.0000000 )       (  0.0000000 )
                  (  0.0000000  0.0000000 -1.0000000 )       (  1.7645180 )


      isym = 19     inv. 120 deg rotation - cryst. axis [0,0,1]  

 cryst.   s(19) = (     0         -1          0      )
                  (     1          1          0      )
                  (     0          0         -1      )

 cart.    s(19) = (  0.4999998  0.8660253  0.0000000 )
                  ( -0.8660255  0.5000002  0.0000000 )
                  (  0.0000000  0.0000000 -1.0000000 )


      isym = 20     inv. 120 deg rotation - cryst. axis [0,0,-1] 

 cryst.   s(20) = (     1          1          0      )
                  (    -1          0          0      )
                  (     0          0         -1      )

 cart.    s(20) = (  0.5000002 -0.8660253  0.0000000 )
                  (  0.8660255  0.4999998  0.0000000 )
                  (  0.0000000  0.0000000 -1.0000000 )


      isym = 21     inv. 180 deg rotation - cryst. axis [1,-1,0] 

 cryst.   s(21) = (     0          1          0      )    f =(  0.0000000 )
                  (     1          0          0      )       (  0.0000000 )
                  (     0          0          1      )       ( -0.5000000 )

 cart.    s(21) = ( -0.4999998  0.8660255  0.0000000 )    f =(  0.0000000 )
                  (  0.8660255  0.4999998  0.0000000 )       (  0.0000000 )
                  (  0.0000000  0.0000000  1.0000000 )       ( -1.7645180 )


      isym = 22     inv. 180 deg rotation - cryst. axis [2,1,0]  

 cryst.   s(22) = (    -1         -1          0      )    f =(  0.0000000 )
                  (     0          1          0      )       (  0.0000000 )
                  (     0          0          1      )       ( -0.5000000 )

 cart.    s(22) = ( -0.5000002 -0.8660251  0.0000000 )    f =(  0.0000000 )
                  ( -0.8660255  0.5000002  0.0000000 )       (  0.0000000 )
                  (  0.0000000  0.0000000  1.0000000 )       ( -1.7645180 )


      isym = 23     inv. 180 deg rotation - cryst. axis [0,1,0]  

 cryst.   s(23) = (     1          1          0      )
                  (     0         -1          0      )
                  (     0          0          1      )

 cart.    s(23) = (  0.5000002  0.8660251  0.0000000 )
                  (  0.8660255 -0.5000002  0.0000000 )
                  (  0.0000000  0.0000000  1.0000000 )


      isym = 24     inv. 180 deg rotation - cryst. axis [1,1,0]  

 cryst.   s(24) = (     0         -1          0      )
                  (    -1          0          0      )
                  (     0          0          1      )

 cart.    s(24) = (  0.4999998 -0.8660255  0.0000000 )
                  ( -0.8660255 -0.4999998  0.0000000 )
                  (  0.0000000  0.0000000  1.0000000 )


   Cartesian axes

     site n.     atom                  positions (alat units)
         1           Sc  tau(   1) = (   0.0000000   0.0000000   0.0000000  )
         2           Sc  tau(   2) = (   0.0000000   0.0000000   1.7645180  )
         3           Cu  tau(   3) = (   0.5000006   0.2886749   2.6467770  )
         4           Cu  tau(   4) = (  -0.0000004   0.5773506   0.8822590  )
         5           O   tau(   5) = (  -0.0000004   0.5773506   1.4496362  )
         6           O   tau(   6) = (   0.5000006   0.2886749   3.2141543  )
         7           O   tau(   7) = (  -0.0000004   0.5773506   0.3148818  )
         8           O   tau(   8) = (   0.5000006   0.2886749   2.0793998  )

   Crystallographic axes

     site n.     atom                  positions (cryst. coord.)
         1           Sc  tau(   1) = (  0.0000000  0.0000000  0.0000000  )
         2           Sc  tau(   2) = (  0.0000000  0.0000000  0.5000000  )
         3           Cu  tau(   3) = (  0.6666670  0.3333330  0.7500000  )
         4           Cu  tau(   4) = (  0.3333330  0.6666670  0.2500000  )
         5           O   tau(   5) = (  0.3333330  0.6666670  0.4107740  )
         6           O   tau(   6) = (  0.6666670  0.3333330  0.9107740  )
         7           O   tau(   7) = (  0.3333330  0.6666670  0.0892260  )
         8           O   tau(   8) = (  0.6666670  0.3333330  0.5892260  )

     number of k points=     6
                       cart. coord. in units 2pi/alat
        k(    1) = (   0.0000000   0.0000000   0.0000000), wk =   0.0740741
        k(    2) = (   0.0000000   0.0000000   0.0944545), wk =   0.1481481
        k(    3) = (   0.0000000   0.3849001   0.0000000), wk =   0.4444444
        k(    4) = (   0.0000000   0.3849001   0.0944545), wk =   0.8888889
        k(    5) = (   0.3333333   0.5773501   0.0000000), wk =   0.1481481
        k(    6) = (   0.3333333   0.5773501   0.0944545), wk =   0.2962963

                       cryst. coord.
        k(    1) = (   0.0000000   0.0000000   0.0000000), wk =   0.0740741
        k(    2) = (   0.0000000   0.0000000   0.3333333), wk =   0.1481481
        k(    3) = (   0.0000000   0.3333333   0.0000000), wk =   0.4444444
        k(    4) = (   0.0000000   0.3333333   0.3333333), wk =   0.8888889
        k(    5) = (   0.3333333   0.3333333   0.0000000), wk =   0.1481481
        k(    6) = (   0.3333333   0.3333333   0.3333333), wk =   0.2962963

     Dense  grid:    44219 G-vectors     FFT dimensions: (  32,  32, 108)

     Smooth grid:    15663 G-vectors     FFT dimensions: (  24,  24,  80)

     Dynamical RAM for                 wfc:       0.48 MB

     Dynamical RAM for     wfc (w. buffer):       1.91 MB

     Dynamical RAM for           str. fact:       0.51 MB

     Dynamical RAM for           local pot:       0.00 MB

     Dynamical RAM for          nlocal pot:       0.77 MB

     Dynamical RAM for                qrad:       3.73 MB

     Dynamical RAM for          rho,v,vnew:       1.14 MB

     Dynamical RAM for               rhoin:       0.38 MB

     Dynamical RAM for            rho*nmix:       2.70 MB

     Dynamical RAM for           G-vectors:       0.66 MB

     Dynamical RAM for          h,s,v(r/c):       0.75 MB

     Dynamical RAM for          <psi|beta>:       0.10 MB

     Dynamical RAM for                 psi:       0.95 MB

     Dynamical RAM for                hpsi:       0.95 MB

     Dynamical RAM for                spsi:       0.95 MB

     Dynamical RAM for      wfcinit/wfcrot:       1.05 MB

     Dynamical RAM for           addusdens:      16.11 MB

     Estimated static dynamical RAM per process >      10.83 MB

     Estimated max dynamical RAM per process >      29.64 MB

     Estimated total dynamical RAM >     226.32 MB

     Check: negative core charge=   -0.000011

     Initial potential from superposition of free atoms

     starting charge      67.9943, renormalised to      68.0000
     Starting wfcs are   54 randomized atomic wfcs +   10 random wfcs
     Checking if some PAW data can be deallocated... 
       PAW data deallocated on    6 nodes for type:  2
       PAW data deallocated on    4 nodes for type:  3

     total cpu time spent up to now is        0.8 secs

     Self-consistent Calculation

     iteration #  1     ecut=    30.00 Ry     beta= 0.70
     Davidson diagonalization with overlap

---- Real-time Memory Report at c_bands before calling an iterative solver
           204 MiB given to the printing process from OS
             0 MiB allocation reported by mallinfo(arena+hblkhd)
        215602 MiB available memory on the node where the printing process lives
------------------
     ethr =  1.00E-02,  avg # of iterations =  6.5

     total cpu time spent up to now is        1.2 secs

     total energy              =    -776.00529505 Ry
     estimated scf accuracy    <       2.07111118 Ry

     iteration #  2     ecut=    30.00 Ry     beta= 0.70
     Davidson diagonalization with overlap

---- Real-time Memory Report at c_bands before calling an iterative solver
           219 MiB given to the printing process from OS
             0 MiB allocation reported by mallinfo(arena+hblkhd)
        215503 MiB available memory on the node where the printing process lives
------------------
     ethr =  3.05E-03,  avg # of iterations =  2.0

     total cpu time spent up to now is        1.4 secs

     total energy              =    -775.92929907 Ry
     estimated scf accuracy    <       5.91867433 Ry

     iteration #  3     ecut=    30.00 Ry     beta= 0.70
     Davidson diagonalization with overlap

---- Real-time Memory Report at c_bands before calling an iterative solver
           223 MiB given to the printing process from OS
             0 MiB allocation reported by mallinfo(arena+hblkhd)
        215475 MiB available memory on the node where the printing process lives
------------------
     ethr =  3.05E-03,  avg # of iterations =  2.0

     total cpu time spent up to now is        1.6 secs

     total energy              =    -777.08531732 Ry
     estimated scf accuracy    <       0.12944540 Ry

     iteration #  4     ecut=    30.00 Ry     beta= 0.70
     Davidson diagonalization with overlap

---- Real-time Memory Report at c_bands before calling an iterative solver
           224 MiB given to the printing process from OS
             0 MiB allocation reported by mallinfo(arena+hblkhd)
        215458 MiB available memory on the node where the printing process lives
------------------
     ethr =  1.90E-04,  avg # of iterations =  2.0

     total cpu time spent up to now is        1.9 secs

     total energy              =    -777.10058733 Ry
     estimated scf accuracy    <       0.05779087 Ry

     iteration #  5     ecut=    30.00 Ry     beta= 0.70
     Davidson diagonalization with overlap

---- Real-time Memory Report at c_bands before calling an iterative solver
           224 MiB given to the printing process from OS
             0 MiB allocation reported by mallinfo(arena+hblkhd)
        215441 MiB available memory on the node where the printing process lives
------------------
     ethr =  8.50E-05,  avg # of iterations =  1.8

     total cpu time spent up to now is        2.1 secs

     total energy              =    -777.11135596 Ry
     estimated scf accuracy    <       0.00257778 Ry

     iteration #  6     ecut=    30.00 Ry     beta= 0.70
     Davidson diagonalization with overlap

---- Real-time Memory Report at c_bands before calling an iterative solver
           224 MiB given to the printing process from OS
             0 MiB allocation reported by mallinfo(arena+hblkhd)
        215419 MiB available memory on the node where the printing process lives
------------------
     ethr =  3.79E-06,  avg # of iterations =  2.5

     total cpu time spent up to now is        2.3 secs

     total energy              =    -777.11166482 Ry
     estimated scf accuracy    <       0.00036428 Ry

     iteration #  7     ecut=    30.00 Ry     beta= 0.70
     Davidson diagonalization with overlap

---- Real-time Memory Report at c_bands before calling an iterative solver
           224 MiB given to the printing process from OS
             0 MiB allocation reported by mallinfo(arena+hblkhd)
        215421 MiB available memory on the node where the printing process lives
------------------
     ethr =  5.36E-07,  avg # of iterations =  2.0

     total cpu time spent up to now is        2.5 secs

     total energy              =    -777.11172976 Ry
     estimated scf accuracy    <       0.00000400 Ry

     iteration #  8     ecut=    30.00 Ry     beta= 0.70
     Davidson diagonalization with overlap

---- Real-time Memory Report at c_bands before calling an iterative solver
           224 MiB given to the printing process from OS
             0 MiB allocation reported by mallinfo(arena+hblkhd)
        215402 MiB available memory on the node where the printing process lives
------------------
     ethr =  5.88E-09,  avg # of iterations =  2.5

     total cpu time spent up to now is        2.8 secs

     End of self-consistent calculation

          k = 0.0000 0.0000 0.0000 (  1981 PWs)   bands (ev):

   -40.5927 -40.5926 -19.3544 -19.3522 -19.0026 -19.0026 -19.0025 -19.0025
   -10.3429 -10.1822  -9.3400  -9.1345   1.8671   3.1636   3.5158   3.9882
     3.9882   4.2525   4.2525   5.2751   5.5235   5.5235   5.5752   5.6502
     6.2725   6.2725   7.0205   7.0205   7.0303   7.0303   7.3836   7.3836
     8.0398   8.0398  10.7536  11.7755  11.7755  11.8228  11.8228  12.2168
    12.2449  12.6219  14.2103  14.7706  14.7706  14.9252  14.9252  15.2566
    17.4965  17.6548  21.7574  22.6795  23.7349  23.7349  23.8049  23.8049
    24.2431  24.2431  24.7593  25.2895  25.2895  25.5644  25.9715  25.9716

     occupation numbers 
     1.0000   1.0000   1.0000   1.0000   1.0000   1.0000   1.0000   1.0000
     1.0000   1.0000   1.0000   1.0000   1.0000   1.0000   1.0000   1.0000
     1.0000   1.0000   1.0000   1.0000   1.0000   1.0000   1.0000   1.0000
     1.0000   1.0000   1.0000   1.0000   1.0000   1.0000   1.0000   1.0000
     1.0000   1.0000   0.0000   0.0000   0.0000   0.0000   0.0000   0.0000
     0.0000   0.0000   0.0000   0.0000   0.0000   0.0000   0.0000   0.0000
     0.0000   0.0000   0.0000   0.0000   0.0000   0.0000   0.0000   0.0000
     0.0000   0.0000   0.0000   0.0000   0.0000   0.0000   0.0000   0.0000

          k = 0.0000 0.0000 0.0945 (  1988 PWs)   bands (ev):

   -40.5927 -40.5926 -19.3537 -19.3528 -19.0028 -19.0028 -19.0025 -19.0025
   -10.3081 -10.2286  -9.2825  -9.1808   2.0544   2.5652   4.0377   4.0377
     4.1720   4.1720   4.2098   4.9479   5.6039   5.6348   5.6950   5.6950
     6.0445   6.0445   7.0215   7.0215   7.0282   7.0282   7.5914   7.5914
     7.9052   7.9052  11.0717  11.7794  11.7795  11.7830  11.8048  11.8048
    12.3205  12.5191  14.5882  14.7996  14.7996  14.8801  14.8801  15.0888
    17.5039  17.5914  21.9662  22.4239  23.7521  23.7521  23.7853  23.7854
    24.3916  24.3917  24.8158  24.8158  25.0481  25.4598  26.6881  26.6882

     occupation numbers 
     1.0000   1.0000   1.0000   1.0000   1.0000   1.0000   1.0000   1.0000
     1.0000   1.0000   1.0000   1.0000   1.0000   1.0000   1.0000   1.0000
     1.0000   1.0000   1.0000   1.0000   1.0000   1.0000   1.0000   1.0000
     1.0000   1.0000   1.0000   1.0000   1.0000   1.0000   1.0000   1.0000
     1.0000   1.0000   0.0000   0.0000   0.0000   0.0000   0.0000   0.0000
     0.0000   0.0000   0.0000   0.0000   0.0000   0.0000   0.0000   0.0000
     0.0000   0.0000   0.0000   0.0000   0.0000   0.0000   0.0000   0.0000
     0.0000   0.0000   0.0000   0.0000   0.0000   0.0000   0.0000   0.0000

          k = 0.0000 0.3849 0.0000 (  1947 PWs)   bands (ev):

   -40.5514 -40.5514 -19.4362 -19.4354 -19.2341 -19.2337 -19.0753 -19.0751
    -9.8000  -9.6314  -9.4720  -9.2922   2.5845   2.9537   3.2795   3.8038
     4.1298   4.3485   4.3729   4.6759   4.8930   5.0988   5.4443   5.6543
     6.5553   6.6166   7.3304   7.3344   7.4004   7.4988   7.5323   7.6450
     7.6862   7.8081  10.8077  11.5138  11.5803  12.1876  12.4731  12.4936
    12.6986  12.7237  14.1255  14.7671  14.8766  14.8780  16.1198  16.5887
    16.7585  18.1277  19.5928  20.2882  20.4865  20.9695  21.2292  22.0054
    22.4662  23.0093  23.6618  24.8284  25.7604  27.0769  27.1078  27.1550

     occupation numbers 
     1.0000   1.0000   1.0000   1.0000   1.0000   1.0000   1.0000   1.0000
     1.0000   1.0000   1.0000   1.0000   1.0000   1.0000   1.0000   1.0000
     1.0000   1.0000   1.0000   1.0000   1.0000   1.0000   1.0000   1.0000
     1.0000   1.0000   1.0000   1.0000   1.0000   1.0000   1.0000   1.0000
     1.0000   1.0000   0.0000   0.0000   0.0000   0.0000   0.0000   0.0000
     0.0000   0.0000   0.0000   0.0000   0.0000   0.0000   0.0000   0.0000
     0.0000   0.0000   0.0000   0.0000   0.0000   0.0000   0.0000   0.0000
     0.0000   0.0000   0.0000   0.0000   0.0000   0.0000   0.0000   0.0000

          k = 0.0000 0.3849 0.0945 (  1943 PWs)   bands (ev):

   -40.5514 -40.5514 -19.4360 -19.4356 -19.2339 -19.2337 -19.0753 -19.0751
    -9.7709  -9.6947  -9.4059  -9.3241   2.6460   2.8086   3.4814   3.7474
     4.0945   4.2156   4.4025   4.5463   5.1296   5.2806   5.3784   5.5366
     6.5755   6.6056   7.3308   7.3326   7.4069   7.4826   7.5885   7.6526
     7.6786   7.7418  10.9522  11.2516  11.8085  12.0569  12.4847  12.4976
    12.7094  12.7216  14.3187  14.6914  14.7978  14.8406  16.1102  16.2366
    17.3615  17.9495  19.7886  20.3382  20.4257  20.4389  21.5482  21.8188
    22.7335  22.9629  23.7354  24.4338  26.2702  26.7983  27.0947  27.1169

     occupation numbers 
     1.0000   1.0000   1.0000   1.0000   1.0000   1.0000   1.0000   1.0000
     1.0000   1.0000   1.0000   1.0000   1.0000   1.0000   1.0000   1.0000
     1.0000   1.0000   1.0000   1.0000   1.0000   1.0000   1.0000   1.0000
     1.0000   1.0000   1.0000   1.0000   1.0000   1.0000   1.0000   1.0000
     1.0000   1.0000   0.0000   0.0000   0.0000   0.0000   0.0000   0.0000
     0.0000   0.0000   0.0000   0.0000   0.0000   0.0000   0.0000   0.0000
     0.0000   0.0000   0.0000   0.0000   0.0000   0.0000   0.0000   0.0000
     0.0000   0.0000   0.0000   0.0000   0.0000   0.0000   0.0000   0.0000

          k = 0.3333 0.5774 0.0000 (  1950 PWs)   bands (ev):

   -40.5308 -40.5307 -19.3775 -19.3775 -19.3766 -19.3766 -19.1822 -19.1819
    -9.5306  -9.5306  -9.3602  -9.3602   3.1277   3.1277   3.7168   3.7168
     3.9081   4.1717   4.2184   4.2184   4.7613   4.7613   4.8619   5.3567
     7.0684   7.0967   7.0967   7.1274   7.5012   7.5012   7.5213   7.9476
     8.2203   8.2203  11.2759  11.8475  12.4231  12.4232  12.5133  12.5133
    13.3832  13.3832  13.4504  14.5437  14.5437  14.5665  14.5665  14.5870
    16.6809  16.6809  19.7603  20.0945  20.0945  21.0838  21.8334  21.8334
    22.8592  22.9746  22.9747  24.7967  25.3531  26.1674  26.1674  28.3084

     occupation numbers 
     1.0000   1.0000   1.0000   1.0000   1.0000   1.0000   1.0000   1.0000
     1.0000   1.0000   1.0000   1.0000   1.0000   1.0000   1.0000   1.0000
     1.0000   1.0000   1.0000   1.0000   1.0000   1.0000   1.0000   1.0000
     1.0000   1.0000   1.0000   1.0000   1.0000   1.0000   1.0000   1.0000
     1.0000   1.0000   0.0000   0.0000   0.0000   0.0000   0.0000   0.0000
     0.0000   0.0000   0.0000   0.0000   0.0000   0.0000   0.0000   0.0000
     0.0000   0.0000   0.0000   0.0000   0.0000   0.0000   0.0000   0.0000
     0.0000   0.0000   0.0000   0.0000   0.0000   0.0000   0.0000   0.0000

          k = 0.3333 0.5774 0.0945 (  1941 PWs)   bands (ev):

   -40.5307 -40.5307 -19.3770 -19.3770 -19.3764 -19.3764 -19.1823 -19.1821
    -9.5304  -9.5304  -9.3600  -9.3600   3.1027   3.1027   3.8222   3.8222
     3.9746   4.0682   4.0682   4.0893   4.8280   4.8280   5.0069   5.2518
     7.0795   7.1005   7.1005   7.1079   7.4766   7.4766   7.6440   7.8463
     8.2323   8.2323  11.3843  11.6503  12.4537  12.4537  12.5298  12.5298
    13.3844  13.3844  13.7509  14.3010  14.3610  14.3610  14.8000  14.8000
    16.6752  16.6752  20.1354  20.1622  20.1622  20.8031  21.4249  21.4249
    23.0329  23.6177  23.6177  23.6945  25.6380  25.6380  26.8990  28.7489

     occupation numbers 
     1.0000   1.0000   1.0000   1.0000   1.0000   1.0000   1.0000   1.0000
     1.0000   1.0000   1.0000   1.0000   1.0000   1.0000   1.0000   1.0000
     1.0000   1.0000   1.0000   1.0000   1.0000   1.0000   1.0000   1.0000
     1.0000   1.0000   1.0000   1.0000   1.0000   1.0000   1.0000   1.0000
     1.0000   1.0000   0.0000   0.0000   0.0000   0.0000   0.0000   0.0000
     0.0000   0.0000   0.0000   0.0000   0.0000   0.0000   0.0000   0.0000
     0.0000   0.0000   0.0000   0.0000   0.0000   0.0000   0.0000   0.0000
     0.0000   0.0000   0.0000   0.0000   0.0000   0.0000   0.0000   0.0000

     highest occupied, lowest unoccupied level (ev):     8.2323   10.7536

!    total energy              =    -777.11173057 Ry
     estimated scf accuracy    <       0.00000022 Ry

     The total energy is the sum of the following terms:
     one-electron contribution =    -204.69009817 Ry
     hartree contribution      =     154.02666181 Ry
     xc contribution           =    -142.95338265 Ry
     ewald contribution        =    -365.77386634 Ry
     one-center paw contrib.   =    -217.72104522 Ry
      -> PAW hartree energy AE =       0.00000000 Ry
      -> PAW hartree energy PS =       0.00000000 Ry
      -> PAW xc energy AE      =       0.00000000 Ry
      -> PAW xc energy PS      =       0.00000000 Ry
      -> total E_H with PAW    =     154.02666181 Ry
      -> total E_XC with PAW   =    -142.95338265 Ry

     convergence has been achieved in   8 iterations

     Writing all to output data dir bands_nm/myprefix.save/
 
     init_run     :      1.58s CPU      0.42s WALL (       1 calls)
     electrons    :      8.04s CPU      5.44s WALL (       1 calls)

     Called by init_run:
     wfcinit      :      0.19s CPU      0.05s WALL (       1 calls)
     wfcinit:atom :      0.00s CPU      0.00s WALL (       3 calls)
     wfcinit:wfcr :      0.17s CPU      0.04s WALL (       3 calls)
     potinit      :      0.27s CPU      0.07s WALL (       1 calls)
     hinit0       :      0.79s CPU      0.21s WALL (       1 calls)

     Called by electrons:
     c_bands      :      4.77s CPU      1.23s WALL (       8 calls)
     sum_band     :      0.88s CPU      0.25s WALL (       8 calls)
     v_of_rho     :      0.20s CPU      0.05s WALL (       9 calls)
     v_h          :      0.02s CPU      0.00s WALL (       9 calls)
     v_xc         :      0.18s CPU      0.05s WALL (       9 calls)
     newd         :      0.27s CPU      0.07s WALL (       9 calls)
     PAW_pot      :      1.50s CPU      0.40s WALL (       9 calls)
     mix_rho      :      0.04s CPU      0.01s WALL (       8 calls)

     Called by c_bands:
     init_us_2    :      0.03s CPU      0.01s WALL (      51 calls)
     init_us_2:cp :      0.03s CPU      0.01s WALL (      51 calls)
     cegterg      :      4.56s CPU      1.18s WALL (      24 calls)

     Called by sum_band:
     sum_band:wei :      0.00s CPU      0.00s WALL (       8 calls)
     sum_band:loo :      0.58s CPU      0.15s WALL (       8 calls)
     sum_band:buf :      0.01s CPU      0.00s WALL (      24 calls)
     sum_band:ini :      0.01s CPU      0.00s WALL (      24 calls)
     sum_band:cal :      0.09s CPU      0.02s WALL (      24 calls)
     sum_band:bec :      0.00s CPU      0.00s WALL (      24 calls)
     addusdens    :      0.22s CPU      0.08s WALL (       8 calls)
     addusd:skk   :      0.00s CPU      0.00s WALL (      16 calls)
     addusd:dgemm :      0.04s CPU      0.03s WALL (      16 calls)
     addusd:qvan2 :      0.13s CPU      0.04s WALL (      16 calls)

     Called by *egterg:
     cdiaghg      :      1.26s CPU      0.33s WALL (      91 calls)
     cegterg:over :      0.31s CPU      0.07s WALL (      67 calls)
     cegterg:upda :      0.08s CPU      0.03s WALL (      67 calls)
     cegterg:last :      0.28s CPU      0.08s WALL (      49 calls)
     h_psi        :      2.36s CPU      0.62s WALL (      94 calls)
     s_psi        :      0.14s CPU      0.04s WALL (      94 calls)
     g_psi        :      0.01s CPU      0.00s WALL (      67 calls)

     Called by h_psi:
     h_psi:calbec :      0.22s CPU      0.06s WALL (      94 calls)
     vloc_psi     :      2.03s CPU      0.52s WALL (      94 calls)
     add_vuspsi   :      0.10s CPU      0.04s WALL (      94 calls)

     General routines
     calbec       :      0.31s CPU      0.08s WALL (     118 calls)
     fft          :      0.19s CPU      0.05s WALL (     115 calls)
     ffts         :      0.01s CPU      0.00s WALL (      17 calls)
     fftw         :      2.41s CPU      0.55s WALL (    9054 calls)
     interpolate  :      0.02s CPU      0.01s WALL (       9 calls)
 
     Parallel routines

     PAW routines
     PAW_pot      :      1.50s CPU      0.40s WALL (       9 calls)
     PAW_symme    :      0.02s CPU      0.01s WALL (      17 calls)
 
     PWSCF        :     11.08s CPU      8.21s WALL

 
   This run was terminated on:  17:54:48  14Jul2023            

=------------------------------------------------------------------------------=
   JOB DONE.
=------------------------------------------------------------------------------=
