
     Program PWSCF v.7.1 starts on 16Jul2023 at 13:18:29 

     This program is part of the open-source Quantum ESPRESSO suite
     for quantum simulation of materials; please cite
         "P. Giannozzi et al., J. Phys.:Condens. Matter 21 395502 (2009);
         "P. Giannozzi et al., J. Phys.:Condens. Matter 29 465901 (2017);
         "P. Giannozzi et al., J. Chem. Phys. 152 154105 (2020);
          URL http://www.quantum-espresso.org", 
     in publications or presentations arising from this work. More details at
     http://www.quantum-espresso.org/quote

     Parallel version (MPI & OpenMP), running on      32 processor cores
     Number of MPI processes:                 8
     Threads/MPI process:                     4

     MPI processes distributed on     1 nodes
     166318 MiB available memory on the printing compute node when the environment starts
 
     Reading input from espresso_3815.pwi
Warning: card &CELL ignored
Warning: card / ignored

     Current dimensions of program PWSCF are:
     Max number of different atomic species (ntypx) = 10
     Max number of k-points (npk) =  40000
     Max angular momentum in pseudopotentials (lmaxx) =  4
     Message from routine setup:
     using ibrav=0 with symmetry is DISCOURAGED, use correct ibrav instead
 
     K-points division:     npool     =       2
     R & G space division:  proc/nbgrp/npool/nimage =       4
     Subspace diagonalization in iterative solution of the eigenvalue problem:
     a serial algorithm will be used

 
     Parallelization info
     --------------------
     sticks:   dense  smooth     PW     G-vecs:    dense   smooth      PW
     Min         880     441    127                23006     8118    1267
     Max         881     442    128                23007     8119    1268
     Sum        3523    1767    511                92025    32473    5069
 
     Using Slab Decomposition
 


     bravais-lattice index     =            0
     lattice parameter (alat)  =      14.0847  a.u.
     unit-cell volume          =    1464.5689 (a.u.)^3
     number of atoms/cell      =            8
     number of atomic types    =            3
     number of electrons       =        72.00
     number of Kohn-Sham states=           64
     kinetic-energy cutoff     =      30.0000  Ry
     charge density cutoff     =     240.0000  Ry
     scf convergence threshold =      1.0E-06
     mixing beta               =       0.7000
     number of iterations used =            8  plain     mixing
     Exchange-correlation= SLA  PW   PBE  PBE
                           (   1   4   3   4   0   0   0)

     celldm(1)=  14.084660  celldm(2)=   0.000000  celldm(3)=   0.000000
     celldm(4)=   0.000000  celldm(5)=   0.000000  celldm(6)=   0.000000

     crystal axes: (cart. coord. in units of alat)
               a(1) = (   1.000000   0.000000   0.000000 )  
               a(2) = (   0.365675   0.930743   0.000000 )  
               a(3) = (  -0.682837  -0.465371   0.563172 )  

     reciprocal axes: (cart. coord. in units 2 pi/alat)
               b(1) = (  1.000000 -0.392885  0.887828 )  
               b(2) = (  0.000000  1.074411  0.887828 )  
               b(3) = (  0.000000  0.000000  1.775656 )  


     PseudoPot. # 1 for Na read from file:
     /lustre07/scratch/pragov/crystal_structure_design/utils/SSSP/na_pbe_v1.5.uspp.F.UPF
     MD5 check sum: 44600605ef58000f06b90626533354dc
     Pseudo is Ultrasoft, Zval =  9.0
     Generated by new atomic code, or converted to UPF format
     Using radial grid of  819 points,  5 beta functions with: 
                l(1) =   0
                l(2) =   0
                l(3) =   1
                l(4) =   1
                l(5) =   2
     Q(r) pseudized with  8 coefficients,  rinner =    1.250   1.250   1.250
                                                       1.250   1.250

     PseudoPot. # 2 for Bi read from file:
     /lustre07/scratch/pragov/crystal_structure_design/utils/SSSP/Bi_pbe_v1.uspp.F.UPF
     MD5 check sum: cceb9f28ec65b6d7ff33140f5b0b1758
     Pseudo is Ultrasoft + core correction, Zval = 15.0
     Generated by new atomic code, or converted to UPF format
     Using radial grid of  899 points,  6 beta functions with: 
                l(1) =   0
                l(2) =   0
                l(3) =   1
                l(4) =   1
                l(5) =   2
                l(6) =   2
     Q(r) pseudized with  6 coefficients,  rinner =    1.000   1.000   1.000
                                                       1.000   1.000

     PseudoPot. # 3 for Se read from file:
     /lustre07/scratch/pragov/crystal_structure_design/utils/SSSP/Se_pbe_v1.uspp.F.UPF
     MD5 check sum: 1b3568f3a8ae88f9a2a0ad0698632c85
     Pseudo is Ultrasoft + core correction, Zval =  6.0
     Generated by new atomic code, or converted to UPF format
     Using radial grid of  877 points,  6 beta functions with: 
                l(1) =   0
                l(2) =   0
                l(3) =   1
                l(4) =   1
                l(5) =   2
                l(6) =   2
     Q(r) pseudized with  8 coefficients,  rinner =    1.300   1.300   1.300
                                                       1.300   1.300

     atomic species   valence    mass     pseudopotential
        Na             9.00    22.98977     Na( 1.00)
        Bi            15.00   208.98040     Bi( 1.00)
        Se             6.00    78.97100     Se( 1.00)

      4 Sym. Ops., with inversion, found ( 2 have fractional translation)


                                    s                        frac. trans.

      isym =  1     identity                                     

 cryst.   s( 1) = (     1          0          0      )
                  (     0          1          0      )
                  (     0          0          1      )

 cart.    s( 1) = (  1.0000000  0.0000000  0.0000000 )
                  (  0.0000000  1.0000000  0.0000000 )
                  (  0.0000000  0.0000000  1.0000000 )


      isym =  2     180 deg rotation - cart. axis [0,0,1]        

 cryst.   s( 2) = (    -1          0          0      )
                  (     0         -1          0      )
                  (     1          1          1      )

 cart.    s( 2) = ( -1.0000000  0.0000000 -0.0000000 )
                  (  0.0000000 -1.0000000 -0.0000000 )
                  (  0.0000000  0.0000000  1.0000000 )


      isym =  3     inversion                                    

 cryst.   s( 3) = (    -1          0          0      )    f =(  0.2500000 )
                  (     0         -1          0      )       ( -0.2500000 )
                  (     0          0         -1      )       (  0.5000000 )

 cart.    s( 3) = ( -1.0000000  0.0000000  0.0000000 )    f =( -0.1828373 )
                  (  0.0000000 -1.0000000  0.0000000 )       ( -0.4653714 )
                  (  0.0000000  0.0000000 -1.0000000 )       (  0.2815860 )


      isym =  4     inv. 180 deg rotation - cart. axis [0,0,1]   

 cryst.   s( 4) = (     1          0          0      )    f =(  0.2500000 )
                  (     0          1          0      )       ( -0.2500000 )
                  (    -1         -1         -1      )       (  0.5000000 )

 cart.    s( 4) = (  1.0000000  0.0000000  0.0000000 )    f =( -0.1828373 )
                  (  0.0000000  1.0000000  0.0000000 )       ( -0.4653714 )
                  (  0.0000000  0.0000000 -1.0000000 )       (  0.2815860 )


   Cartesian axes

     site n.     atom                  positions (alat units)
         1           Na  tau(   1) = (   0.0000000   0.0000000   0.0000000  )
         2           Na  tau(   2) = (   0.5000000   0.0000000   0.2815860  )
         3           Bi  tau(   3) = (   0.6828373   0.4653714   0.0000000  )
         4           Bi  tau(   4) = (   0.1828373   0.4653714   0.2815860  )
         5           Se  tau(   5) = (   1.0107672   0.6888641   0.0000000  )
         6           Se  tau(   6) = (   0.5107672   0.6888641   0.2815860  )
         7           Se  tau(   7) = (   0.3549074   0.2418786   0.0000000  )
         8           Se  tau(   8) = (  -0.1450926   0.2418786   0.2815860  )

   Crystallographic axes

     site n.     atom                  positions (cryst. coord.)
         1           Na  tau(   1) = (  0.0000000  0.0000000  0.0000000  )
         2           Na  tau(   2) = (  0.7500000  0.2500000  0.5000000  )
         3           Bi  tau(   3) = (  0.5000000  0.5000000  0.0000000  )
         4           Bi  tau(   4) = (  0.2500000  0.7500000  0.5000000  )
         5           Se  tau(   5) = (  0.7401230  0.7401230  0.0000000  )
         6           Se  tau(   6) = (  0.4901230  0.9901230  0.5000000  )
         7           Se  tau(   7) = (  0.2598770  0.2598770  0.0000000  )
         8           Se  tau(   8) = (  0.0098770  0.5098770  0.5000000  )

     number of k points=    10
                       cart. coord. in units 2pi/alat
        k(    1) = (   0.0000000   0.0000000   0.0000000), wk =   0.0740741
        k(    2) = (   0.0000000   0.0000000   0.5918855), wk =   0.1481481
        k(    3) = (   0.0000000   0.3581369   0.2959427), wk =   0.2962963
        k(    4) = (   0.0000000   0.3581369   0.8878282), wk =   0.1481481
        k(    5) = (   0.3333333  -0.1309616   0.2959427), wk =   0.2962963
        k(    6) = (   0.3333333  -0.1309616   0.8878282), wk =   0.1481481
        k(    7) = (   0.3333333   0.2271753   0.5918855), wk =   0.2962963
        k(    8) = (   0.3333333   0.2271753   0.0000000), wk =   0.1481481
        k(    9) = (   0.3333333  -0.4890985   0.0000000), wk =   0.1481481
        k(   10) = (   0.3333333  -0.4890985   0.5918855), wk =   0.2962963

                       cryst. coord.
        k(    1) = (   0.0000000   0.0000000   0.0000000), wk =   0.0740741
        k(    2) = (   0.0000000   0.0000000   0.3333333), wk =   0.1481481
        k(    3) = (   0.0000000   0.3333333   0.0000000), wk =   0.2962963
        k(    4) = (   0.0000000   0.3333333   0.3333333), wk =   0.1481481
        k(    5) = (   0.3333333  -0.0000000   0.0000000), wk =   0.2962963
        k(    6) = (   0.3333333  -0.0000000   0.3333333), wk =   0.1481481
        k(    7) = (   0.3333333   0.3333333   0.0000000), wk =   0.2962963
        k(    8) = (   0.3333333   0.3333333  -0.3333333), wk =   0.1481481
        k(    9) = (   0.3333333  -0.3333333   0.0000000), wk =   0.1481481
        k(   10) = (   0.3333333  -0.3333333   0.3333333), wk =   0.2962963

     Dense  grid:    92025 G-vectors     FFT dimensions: (  72,  72,  72)

     Smooth grid:    32473 G-vectors     FFT dimensions: (  60,  60,  50)

     Dynamical RAM for                 wfc:       0.99 MB

     Dynamical RAM for     wfc (w. buffer):       5.95 MB

     Dynamical RAM for           str. fact:       1.05 MB

     Dynamical RAM for           local pot:       0.00 MB

     Dynamical RAM for          nlocal pot:       2.08 MB

     Dynamical RAM for                qrad:       3.73 MB

     Dynamical RAM for          rho,v,vnew:       3.19 MB

     Dynamical RAM for               rhoin:       1.06 MB

     Dynamical RAM for            rho*nmix:       5.62 MB

     Dynamical RAM for           G-vectors:       1.38 MB

     Dynamical RAM for          h,s,v(r/c):       0.75 MB

     Dynamical RAM for          <psi|beta>:       0.13 MB

     Dynamical RAM for                 psi:       1.98 MB

     Dynamical RAM for                hpsi:       1.98 MB

     Dynamical RAM for                spsi:       1.98 MB

     Dynamical RAM for      wfcinit/wfcrot:       2.08 MB

     Dynamical RAM for           addusdens:      33.52 MB

     Estimated static dynamical RAM per process >      23.41 MB

     Estimated max dynamical RAM per process >      62.55 MB

     Estimated total dynamical RAM >     477.95 MB

     Check: negative core charge=   -0.000002

     Initial potential from superposition of free atoms

     starting charge      69.9871, renormalised to      72.0000

     negative rho (up, down):  8.502E-02 0.000E+00
     Starting wfcs are   44 randomized atomic wfcs +   20 random wfcs

     total cpu time spent up to now is        1.1 secs

     Self-consistent Calculation

     iteration #  1     ecut=    30.00 Ry     beta= 0.70
     Davidson diagonalization with overlap

---- Real-time Memory Report at c_bands before calling an iterative solver
           236 MiB given to the printing process from OS
             0 MiB allocation reported by mallinfo(arena+hblkhd)
        165942 MiB available memory on the node where the printing process lives
------------------
     ethr =  1.00E-02,  avg # of iterations =  8.1

     negative rho (up, down):  7.855E-02 0.000E+00

     total cpu time spent up to now is        3.4 secs

     total energy              =    -735.68990423 Ry
     estimated scf accuracy    <       0.94375025 Ry

     iteration #  2     ecut=    30.00 Ry     beta= 0.70
     Davidson diagonalization with overlap

---- Real-time Memory Report at c_bands before calling an iterative solver
           266 MiB given to the printing process from OS
             0 MiB allocation reported by mallinfo(arena+hblkhd)
        165583 MiB available memory on the node where the printing process lives
------------------
     ethr =  1.31E-03,  avg # of iterations =  2.0

     negative rho (up, down):  8.232E-02 0.000E+00

     total cpu time spent up to now is        4.8 secs

     total energy              =    -735.92615775 Ry
     estimated scf accuracy    <       0.53223107 Ry

     iteration #  3     ecut=    30.00 Ry     beta= 0.70
     Davidson diagonalization with overlap

---- Real-time Memory Report at c_bands before calling an iterative solver
           273 MiB given to the printing process from OS
             0 MiB allocation reported by mallinfo(arena+hblkhd)
        165533 MiB available memory on the node where the printing process lives
------------------
     ethr =  7.39E-04,  avg # of iterations =  2.0

     negative rho (up, down):  8.199E-02 0.000E+00

     total cpu time spent up to now is        5.9 secs

     total energy              =    -736.05589599 Ry
     estimated scf accuracy    <       0.03083418 Ry

     iteration #  4     ecut=    30.00 Ry     beta= 0.70
     Davidson diagonalization with overlap

---- Real-time Memory Report at c_bands before calling an iterative solver
           273 MiB given to the printing process from OS
             0 MiB allocation reported by mallinfo(arena+hblkhd)
        165522 MiB available memory on the node where the printing process lives
------------------
     ethr =  4.28E-05,  avg # of iterations =  5.4

     negative rho (up, down):  8.219E-02 0.000E+00

     total cpu time spent up to now is        6.8 secs

     total energy              =    -736.06186935 Ry
     estimated scf accuracy    <       0.00069017 Ry

     iteration #  5     ecut=    30.00 Ry     beta= 0.70
     Davidson diagonalization with overlap

---- Real-time Memory Report at c_bands before calling an iterative solver
           273 MiB given to the printing process from OS
             0 MiB allocation reported by mallinfo(arena+hblkhd)
        165521 MiB available memory on the node where the printing process lives
------------------
     ethr =  9.59E-07,  avg # of iterations = 12.0

     negative rho (up, down):  8.229E-02 0.000E+00

     total cpu time spent up to now is        9.0 secs

     total energy              =    -736.06206781 Ry
     estimated scf accuracy    <       0.00003097 Ry

     iteration #  6     ecut=    30.00 Ry     beta= 0.70
     Davidson diagonalization with overlap

---- Real-time Memory Report at c_bands before calling an iterative solver
           274 MiB given to the printing process from OS
             0 MiB allocation reported by mallinfo(arena+hblkhd)
        165522 MiB available memory on the node where the printing process lives
------------------
     ethr =  4.30E-08,  avg # of iterations =  5.5

     negative rho (up, down):  8.238E-02 0.000E+00

     total cpu time spent up to now is       10.8 secs

     total energy              =    -736.06209799 Ry
     estimated scf accuracy    <       0.00000253 Ry

     iteration #  7     ecut=    30.00 Ry     beta= 0.70
     Davidson diagonalization with overlap

---- Real-time Memory Report at c_bands before calling an iterative solver
           275 MiB given to the printing process from OS
             0 MiB allocation reported by mallinfo(arena+hblkhd)
        165521 MiB available memory on the node where the printing process lives
------------------
     ethr =  3.52E-09,  avg # of iterations =  3.5

     negative rho (up, down):  8.243E-02 0.000E+00

     total cpu time spent up to now is       12.0 secs

     End of self-consistent calculation

          k = 0.0000 0.0000 0.0000 (  4077 PWs)   bands (ev):

   -45.1995 -45.1991 -17.1299 -17.1224 -17.1121 -17.1070 -17.1068 -17.1068
   -17.1033 -17.1033 -17.0983 -17.0958 -17.0921 -17.0918 -17.0918 -17.0826
   -17.0808 -17.0808  -7.6224  -6.0598  -5.8206  -5.7659  -4.1357  -2.6965
     1.5073   1.5838   1.5838   2.0464   2.0464   4.4851   4.4851   4.5364
     4.7834   5.0684   5.0996   5.0996   8.0940   9.6048   9.7466  10.2160
    10.5700  10.5700  10.9135  11.3133  11.3133  12.2776  12.2776  12.8752
    13.0750  13.0750  13.6260  13.6260  14.2820  15.2103  15.2829  15.4967
    15.8476  16.9563  17.5705  18.0429  18.0429  18.1080  18.1080  18.4057

     occupation numbers 
     1.0000   1.0000   1.0000   1.0000   1.0000   1.0000   1.0000   1.0000
     1.0000   1.0000   1.0000   1.0000   1.0000   1.0000   1.0000   1.0000
     1.0000   1.0000   1.0000   1.0000   1.0000   1.0000   1.0000   1.0000
     1.0000   1.0000   1.0000   1.0000   1.0000   1.0000   1.0000   1.0000
     1.0000   1.0000   1.0000   1.0000   0.0000   0.0000   0.0000   0.0000
     0.0000   0.0000   0.0000   0.0000   0.0000   0.0000   0.0000   0.0000
     0.0000   0.0000   0.0000   0.0000   0.0000   0.0000   0.0000   0.0000
     0.0000   0.0000   0.0000   0.0000   0.0000   0.0000   0.0000   0.0000

          k = 0.0000 0.0000 0.5919 (  4054 PWs)   bands (ev):

   -45.1992 -45.1989 -17.1270 -17.1223 -17.1100 -17.1094 -17.1090 -17.1055
   -17.1039 -17.1021 -17.0962 -17.0920 -17.0910 -17.0883 -17.0880 -17.0863
   -17.0830 -17.0816  -7.0383  -6.0230  -5.9998  -5.8758  -4.9110  -3.8415
     2.1056   3.1590   3.1795   3.3037   3.5261   3.6431   3.7534   4.4081
     5.0143   5.1753   5.1888   5.3577   7.5421   7.6031   7.9675   8.3372
     8.5382   8.8793  11.3109  11.6666  11.8811  12.5575  12.9983  13.2083
    13.2518  13.6380  13.6872  14.7465  14.9238  14.9979  15.9600  16.1068
    16.1555  16.5747  17.0300  17.5330  17.6808  17.7674  18.0502  18.7212

     occupation numbers 
     1.0000   1.0000   1.0000   1.0000   1.0000   1.0000   1.0000   1.0000
     1.0000   1.0000   1.0000   1.0000   1.0000   1.0000   1.0000   1.0000
     1.0000   1.0000   1.0000   1.0000   1.0000   1.0000   1.0000   1.0000
     1.0000   1.0000   1.0000   1.0000   1.0000   1.0000   1.0000   1.0000
     1.0000   1.0000   1.0000   1.0000   0.0000   0.0000   0.0000   0.0000
     0.0000   0.0000   0.0000   0.0000   0.0000   0.0000   0.0000   0.0000
     0.0000   0.0000   0.0000   0.0000   0.0000   0.0000   0.0000   0.0000
     0.0000   0.0000   0.0000   0.0000   0.0000   0.0000   0.0000   0.0000

          k = 0.0000 0.3581 0.2959 (  4067 PWs)   bands (ev):

   -45.1994 -45.1991 -17.1274 -17.1228 -17.1139 -17.1110 -17.1097 -17.1066
   -17.1047 -17.1027 -17.0928 -17.0927 -17.0918 -17.0900 -17.0874 -17.0860
   -17.0812 -17.0802  -7.2873  -6.2342  -5.9527  -5.8030  -4.3737  -3.2574
     1.5237   1.9447   2.3545   2.9715   3.4109   3.9300   4.2742   4.3005
     4.7660   4.7910   5.0366   5.3093   7.8151   8.0024   8.5804   9.2561
    10.2079  10.8566  11.2007  11.6070  11.7725  11.9860  12.1822  12.7295
    13.2977  13.4717  13.7293  14.2891  14.6770  15.2428  15.6075  16.1743
    16.2371  16.3502  16.7739  17.1384  17.8095  17.9229  18.3016  18.3753

     occupation numbers 
     1.0000   1.0000   1.0000   1.0000   1.0000   1.0000   1.0000   1.0000
     1.0000   1.0000   1.0000   1.0000   1.0000   1.0000   1.0000   1.0000
     1.0000   1.0000   1.0000   1.0000   1.0000   1.0000   1.0000   1.0000
     1.0000   1.0000   1.0000   1.0000   1.0000   1.0000   1.0000   1.0000
     1.0000   1.0000   1.0000   1.0000   0.0000   0.0000   0.0000   0.0000
     0.0000   0.0000   0.0000   0.0000   0.0000   0.0000   0.0000   0.0000
     0.0000   0.0000   0.0000   0.0000   0.0000   0.0000   0.0000   0.0000
     0.0000   0.0000   0.0000   0.0000   0.0000   0.0000   0.0000   0.0000

          k = 0.0000 0.3581 0.8878 (  4071 PWs)   bands (ev):

   -45.1994 -45.1992 -17.1259 -17.1238 -17.1119 -17.1116 -17.1077 -17.1063
   -17.1036 -17.1035 -17.0940 -17.0924 -17.0917 -17.0905 -17.0864 -17.0861
   -17.0827 -17.0817  -6.8448  -6.3752  -6.0044  -5.9401  -4.5141  -4.0039
     2.3935   2.7449   3.0438   3.0865   3.8012   3.9101   4.1579   4.4822
     4.7064   4.9679   5.1928   5.2314   7.3423   7.4213   8.2243   8.4129
     8.4256   9.1246  11.4561  11.5688  11.9152  12.0269  12.9171  12.9974
    13.3112  13.4373  14.2523  14.3681  15.1448  15.4931  15.7141  16.2962
    16.5922  16.8340  17.4157  17.6474  17.8862  17.9372  18.6118  18.6517

     occupation numbers 
     1.0000   1.0000   1.0000   1.0000   1.0000   1.0000   1.0000   1.0000
     1.0000   1.0000   1.0000   1.0000   1.0000   1.0000   1.0000   1.0000
     1.0000   1.0000   1.0000   1.0000   1.0000   1.0000   1.0000   1.0000
     1.0000   1.0000   1.0000   1.0000   1.0000   1.0000   1.0000   1.0000
     1.0000   1.0000   1.0000   1.0000   0.0000   0.0000   0.0000   0.0000
     0.0000   0.0000   0.0000   0.0000   0.0000   0.0000   0.0000   0.0000
     0.0000   0.0000   0.0000   0.0000   0.0000   0.0000   0.0000   0.0000
     0.0000   0.0000   0.0000   0.0000   0.0000   0.0000   0.0000   0.0000

          k = 0.3333-0.1310 0.2959 (  4067 PWs)   bands (ev):

   -45.1994 -45.1991 -17.1274 -17.1228 -17.1139 -17.1110 -17.1097 -17.1066
   -17.1047 -17.1027 -17.0928 -17.0927 -17.0918 -17.0900 -17.0874 -17.0860
   -17.0812 -17.0802  -7.2873  -6.2342  -5.9527  -5.8030  -4.3737  -3.2574
     1.5237   1.9447   2.3545   2.9715   3.4109   3.9300   4.2742   4.3005
     4.7660   4.7910   5.0366   5.3093   7.8151   8.0024   8.5804   9.2561
    10.2079  10.8566  11.2007  11.6070  11.7725  11.9860  12.1822  12.7295
    13.2977  13.4717  13.7293  14.2891  14.6770  15.2428  15.6075  16.1743
    16.2371  16.3502  16.7739  17.1384  17.8095  17.9229  18.3016  18.3753

     occupation numbers 
     1.0000   1.0000   1.0000   1.0000   1.0000   1.0000   1.0000   1.0000
     1.0000   1.0000   1.0000   1.0000   1.0000   1.0000   1.0000   1.0000
     1.0000   1.0000   1.0000   1.0000   1.0000   1.0000   1.0000   1.0000
     1.0000   1.0000   1.0000   1.0000   1.0000   1.0000   1.0000   1.0000
     1.0000   1.0000   1.0000   1.0000   0.0000   0.0000   0.0000   0.0000
     0.0000   0.0000   0.0000   0.0000   0.0000   0.0000   0.0000   0.0000
     0.0000   0.0000   0.0000   0.0000   0.0000   0.0000   0.0000   0.0000
     0.0000   0.0000   0.0000   0.0000   0.0000   0.0000   0.0000   0.0000

          k = 0.3333-0.1310 0.8878 (  4071 PWs)   bands (ev):

   -45.1994 -45.1992 -17.1259 -17.1238 -17.1119 -17.1116 -17.1077 -17.1063
   -17.1036 -17.1035 -17.0940 -17.0924 -17.0917 -17.0905 -17.0864 -17.0861
   -17.0827 -17.0818  -6.8448  -6.3752  -6.0044  -5.9401  -4.5141  -4.0039
     2.3935   2.7449   3.0438   3.0865   3.8012   3.9101   4.1579   4.4822
     4.7064   4.9679   5.1928   5.2314   7.3423   7.4213   8.2243   8.4129
     8.4256   9.1246  11.4561  11.5688  11.9152  12.0269  12.9171  12.9974
    13.3112  13.4373  14.2523  14.3681  15.1448  15.4931  15.7141  16.2962
    16.5921  16.8340  17.4157  17.6474  17.8862  17.9372  18.6117  18.6516

     occupation numbers 
     1.0000   1.0000   1.0000   1.0000   1.0000   1.0000   1.0000   1.0000
     1.0000   1.0000   1.0000   1.0000   1.0000   1.0000   1.0000   1.0000
     1.0000   1.0000   1.0000   1.0000   1.0000   1.0000   1.0000   1.0000
     1.0000   1.0000   1.0000   1.0000   1.0000   1.0000   1.0000   1.0000
     1.0000   1.0000   1.0000   1.0000   0.0000   0.0000   0.0000   0.0000
     0.0000   0.0000   0.0000   0.0000   0.0000   0.0000   0.0000   0.0000
     0.0000   0.0000   0.0000   0.0000   0.0000   0.0000   0.0000   0.0000
     0.0000   0.0000   0.0000   0.0000   0.0000   0.0000   0.0000   0.0000

          k = 0.3333 0.2272 0.5919 (  4071 PWs)   bands (ev):

   -45.1994 -45.1992 -17.1259 -17.1238 -17.1119 -17.1116 -17.1077 -17.1063
   -17.1036 -17.1035 -17.0940 -17.0924 -17.0917 -17.0905 -17.0864 -17.0861
   -17.0827 -17.0818  -6.8448  -6.3752  -6.0044  -5.9401  -4.5141  -4.0039
     2.3935   2.7449   3.0438   3.0865   3.8012   3.9101   4.1579   4.4822
     4.7064   4.9679   5.1928   5.2314   7.3423   7.4213   8.2243   8.4129
     8.4256   9.1246  11.4561  11.5688  11.9152  12.0269  12.9171  12.9974
    13.3112  13.4373  14.2523  14.3681  15.1448  15.4931  15.7141  16.2962
    16.5922  16.8340  17.4157  17.6474  17.8862  17.9372  18.6116  18.6514

     occupation numbers 
     1.0000   1.0000   1.0000   1.0000   1.0000   1.0000   1.0000   1.0000
     1.0000   1.0000   1.0000   1.0000   1.0000   1.0000   1.0000   1.0000
     1.0000   1.0000   1.0000   1.0000   1.0000   1.0000   1.0000   1.0000
     1.0000   1.0000   1.0000   1.0000   1.0000   1.0000   1.0000   1.0000
     1.0000   1.0000   1.0000   1.0000   0.0000   0.0000   0.0000   0.0000
     0.0000   0.0000   0.0000   0.0000   0.0000   0.0000   0.0000   0.0000
     0.0000   0.0000   0.0000   0.0000   0.0000   0.0000   0.0000   0.0000
     0.0000   0.0000   0.0000   0.0000   0.0000   0.0000   0.0000   0.0000

          k = 0.3333 0.2272 0.0000 (  4052 PWs)   bands (ev):

   -45.1994 -45.1990 -17.1255 -17.1226 -17.1149 -17.1117 -17.1063 -17.1063
   -17.1032 -17.1032 -17.0949 -17.0934 -17.0934 -17.0930 -17.0913 -17.0840
   -17.0795 -17.0795  -7.3624  -6.6840  -5.7576  -5.7146  -3.6370  -2.9285
     1.2661   1.2661   2.2390   2.5069   2.5069   3.4217   4.6214   4.6214
     4.6482   4.9123   4.9123   4.9572   8.2305   9.3692  10.2465  10.2465
    10.6030  10.6907  10.6907  10.7768  11.1119  11.4781  11.4781  11.7198
    14.2670  14.3403  14.3403  14.3671  15.5884  15.5884  15.8086  16.4635
    17.0389  17.0389  17.0522  17.1723  17.7345  18.5130  18.5130  18.5380

     occupation numbers 
     1.0000   1.0000   1.0000   1.0000   1.0000   1.0000   1.0000   1.0000
     1.0000   1.0000   1.0000   1.0000   1.0000   1.0000   1.0000   1.0000
     1.0000   1.0000   1.0000   1.0000   1.0000   1.0000   1.0000   1.0000
     1.0000   1.0000   1.0000   1.0000   1.0000   1.0000   1.0000   1.0000
     1.0000   1.0000   1.0000   1.0000   0.0000   0.0000   0.0000   0.0000
     0.0000   0.0000   0.0000   0.0000   0.0000   0.0000   0.0000   0.0000
     0.0000   0.0000   0.0000   0.0000   0.0000   0.0000   0.0000   0.0000
     0.0000   0.0000   0.0000   0.0000   0.0000   0.0000   0.0000   0.0000

          k = 0.3333-0.4891 0.0000 (  4054 PWs)   bands (ev):

   -45.1992 -45.1989 -17.1270 -17.1223 -17.1100 -17.1094 -17.1090 -17.1055
   -17.1039 -17.1021 -17.0961 -17.0920 -17.0910 -17.0883 -17.0880 -17.0863
   -17.0830 -17.0816  -7.0383  -6.0230  -5.9998  -5.8758  -4.9110  -3.8415
     2.1056   3.1590   3.1795   3.3037   3.5261   3.6431   3.7534   4.4081
     5.0143   5.1753   5.1888   5.3577   7.5421   7.6031   7.9675   8.3372
     8.5382   8.8793  11.3109  11.6666  11.8811  12.5575  12.9983  13.2083
    13.2518  13.6380  13.6872  14.7465  14.9238  14.9979  15.9600  16.1068
    16.1555  16.5747  17.0300  17.5330  17.6808  17.7674  18.0502  18.7212

     occupation numbers 
     1.0000   1.0000   1.0000   1.0000   1.0000   1.0000   1.0000   1.0000
     1.0000   1.0000   1.0000   1.0000   1.0000   1.0000   1.0000   1.0000
     1.0000   1.0000   1.0000   1.0000   1.0000   1.0000   1.0000   1.0000
     1.0000   1.0000   1.0000   1.0000   1.0000   1.0000   1.0000   1.0000
     1.0000   1.0000   1.0000   1.0000   0.0000   0.0000   0.0000   0.0000
     0.0000   0.0000   0.0000   0.0000   0.0000   0.0000   0.0000   0.0000
     0.0000   0.0000   0.0000   0.0000   0.0000   0.0000   0.0000   0.0000
     0.0000   0.0000   0.0000   0.0000   0.0000   0.0000   0.0000   0.0000

          k = 0.3333-0.4891 0.5919 (  4080 PWs)   bands (ev):

   -45.1995 -45.1992 -17.1255 -17.1238 -17.1159 -17.1126 -17.1094 -17.1077
   -17.1069 -17.1018 -17.0936 -17.0920 -17.0913 -17.0906 -17.0871 -17.0847
   -17.0822 -17.0795  -6.9822  -6.7260  -6.0222  -5.7351  -3.9587  -3.4759
     1.3793   2.5227   2.5869   2.6451   3.2403   3.9856   4.3405   4.3744
     4.6189   4.6626   4.9912   5.0078   7.4850   8.5419   8.9234   9.1626
    10.2147  10.3421  11.0973  11.1829  11.4459  11.5204  12.3870  12.5359
    13.4927  14.3740  14.3932  14.7785  14.9157  15.3491  15.3854  16.3883
    16.7118  16.8054  17.0480  17.2810  17.4428  17.7465  18.3927  18.3953

     occupation numbers 
     1.0000   1.0000   1.0000   1.0000   1.0000   1.0000   1.0000   1.0000
     1.0000   1.0000   1.0000   1.0000   1.0000   1.0000   1.0000   1.0000
     1.0000   1.0000   1.0000   1.0000   1.0000   1.0000   1.0000   1.0000
     1.0000   1.0000   1.0000   1.0000   1.0000   1.0000   1.0000   1.0000
     1.0000   1.0000   1.0000   1.0000   0.0000   0.0000   0.0000   0.0000
     0.0000   0.0000   0.0000   0.0000   0.0000   0.0000   0.0000   0.0000
     0.0000   0.0000   0.0000   0.0000   0.0000   0.0000   0.0000   0.0000
     0.0000   0.0000   0.0000   0.0000   0.0000   0.0000   0.0000   0.0000

     highest occupied, lowest unoccupied level (ev):     5.3577    7.3423

!    total energy              =    -736.06209884 Ry
     estimated scf accuracy    <       0.00000015 Ry

     The total energy is the sum of the following terms:
     one-electron contribution =    -277.46737022 Ry
     hartree contribution      =     170.21477772 Ry
     xc contribution           =    -276.82398852 Ry
     ewald contribution        =    -351.98551782 Ry

     convergence has been achieved in   7 iterations

     Writing all to output data dir bands_nm/myprefix.save/
