
     Program PWSCF v.7.1 starts on 14Jul2023 at  2:16:24 

     This program is part of the open-source Quantum ESPRESSO suite
     for quantum simulation of materials; please cite
         "P. Giannozzi et al., J. Phys.:Condens. Matter 21 395502 (2009);
         "P. Giannozzi et al., J. Phys.:Condens. Matter 29 465901 (2017);
         "P. Giannozzi et al., J. Chem. Phys. 152 154105 (2020);
          URL http://www.quantum-espresso.org", 
     in publications or presentations arising from this work. More details at
     http://www.quantum-espresso.org/quote

     Parallel version (MPI & OpenMP), running on      32 processor cores
     Number of MPI processes:                 8
     Threads/MPI process:                     4

     MPI processes distributed on     1 nodes
     209843 MiB available memory on the printing compute node when the environment starts
 
     Reading input from espresso_7197.pwi
Warning: card &CELL ignored
Warning: card / ignored

     Current dimensions of program PWSCF are:
     Max number of different atomic species (ntypx) = 10
     Max number of k-points (npk) =  40000
     Max angular momentum in pseudopotentials (lmaxx) =  4
     file Cu.paw.z_11.ld1.psl.v1.0.0-low.upf: wavefunction(s)  4S 3D renormalized
     file O.pbe-n-kjpaw_psl.0.1.UPF: wavefunction(s)  2P renormalized
     Message from routine setup:
     using ibrav=0 with symmetry is DISCOURAGED, use correct ibrav instead
 
     K-points division:     npool     =       2
     R & G space division:  proc/nbgrp/npool/nimage =       4
     Subspace diagonalization in iterative solution of the eigenvalue problem:
     a serial algorithm will be used

 
     Parallelization info
     --------------------
     sticks:   dense  smooth     PW     G-vecs:    dense   smooth      PW
     Min         978     486    141                26885     9497    1471
     Max         979     487    142                26886     9498    1473
     Sum        3915    1945    565               107543    37989    5887
 
     Using Slab Decomposition
 


     bravais-lattice index     =            0
     lattice parameter (alat)  =      14.3221  a.u.
     unit-cell volume          =    1711.9219 (a.u.)^3
     number of atoms/cell      =           20
     number of atomic types    =            4
     number of electrons       =       120.00
     number of Kohn-Sham states=           64
     kinetic-energy cutoff     =      30.0000  Ry
     charge density cutoff     =     240.0000  Ry
     scf convergence threshold =      1.0E-06
     mixing beta               =       0.7000
     number of iterations used =            8  plain     mixing
     Exchange-correlation= SLA  PW   PBX  PBC
                           (   1   4   3   4   0   0   0)

     celldm(1)=  14.322126  celldm(2)=   0.000000  celldm(3)=   0.000000
     celldm(4)=   0.000000  celldm(5)=   0.000000  celldm(6)=   0.000000

     crystal axes: (cart. coord. in units of alat)
               a(1) = (   1.000000   0.000000   0.000000 )  
               a(2) = (  -0.030745   0.999527   0.000000 )  
               a(3) = (   0.168731   0.174001   0.582998 )  

     reciprocal axes: (cart. coord. in units 2 pi/alat)
               b(1) = (  1.000000  0.030760 -0.298600 )  
               b(2) = (  0.000000  1.000473 -0.298600 )  
               b(3) = (  0.000000  0.000000  1.715273 )  


     PseudoPot. # 1 for Li read from file:
     /lustre07/scratch/pragov/crystal_structure_design/utils/SSSP/li_pbe_v1.4.uspp.F.UPF
     MD5 check sum: e912e257baa3777c20ea3d68f190483c
     Pseudo is Ultrasoft, Zval =  3.0
     Generated by new atomic code, or converted to UPF format
     Using radial grid of  751 points,  5 beta functions with: 
                l(1) =   0
                l(2) =   0
                l(3) =   0
                l(4) =   1
                l(5) =   1
     Q(r) pseudized with 10 coefficients,  rinner =    1.150   1.150   1.150


     PseudoPot. # 2 for Cu read from file:
     /lustre07/scratch/pragov/crystal_structure_design/utils/SSSP/Cu.paw.z_11.ld1.psl.v1.0.0-low.upf
     MD5 check sum: 619f40885d92a09a85a8b37550532d0c
     Pseudo is Projector augmented-wave + core cor, Zval = 11.0
     Generated using &quot;atomic&quot; code by A. Dal Corso  v.6.3MaX
     Shape of augmentation charge: PSQ
     Using radial grid of 1199 points,  6 beta functions with: 
                l(1) =   0
                l(2) =   0
                l(3) =   1
                l(4) =   1
                l(5) =   2
                l(6) =   2
     Q(r) pseudized with 0 coefficients 


     PseudoPot. # 3 for P  read from file:
     /lustre07/scratch/pragov/crystal_structure_design/utils/SSSP/P.pbe-n-rrkjus_psl.1.0.0.UPF
     MD5 check sum: 8b930f418f0a4573dca56cd030ffe088
     Pseudo is Ultrasoft + core correction, Zval =  5.0
     Generated using "atomic" code by A. Dal Corso  v.5.1
     Using radial grid of 1147 points,  6 beta functions with: 
                l(1) =   0
                l(2) =   0
                l(3) =   1
                l(4) =   1
                l(5) =   2
                l(6) =   2
     Q(r) pseudized with 0 coefficients 


     PseudoPot. # 4 for O  read from file:
     /lustre07/scratch/pragov/crystal_structure_design/utils/SSSP/O.pbe-n-kjpaw_psl.0.1.UPF
     MD5 check sum: 0234752ac141de4415c5fc33072bef88
     Pseudo is Projector augmented-wave + core cor, Zval =  6.0
     Generated using "atomic" code by A. Dal Corso  v.5.0.99 svn rev. 10869
     Shape of augmentation charge: BESSEL
     Using radial grid of 1095 points,  4 beta functions with: 
                l(1) =   0
                l(2) =   0
                l(3) =   1
                l(4) =   1
     Q(r) pseudized with 0 coefficients 


     atomic species   valence    mass     pseudopotential
        Li             3.00     6.94000     Li( 1.00)
        Cu            11.00    63.54600     Cu( 1.00)
        P              5.00    30.97376     P ( 1.00)
        O              6.00    15.99900     O ( 1.00)

      2 Sym. Ops., with inversion, found


                                    s                        frac. trans.

      isym =  1     identity                                     

 cryst.   s( 1) = (     1          0          0      )
                  (     0          1          0      )
                  (     0          0          1      )

 cart.    s( 1) = (  1.0000000  0.0000000 -0.0000000 )
                  (  0.0000000  1.0000000 -0.0000000 )
                  (  0.0000000  0.0000000  1.0000000 )


      isym =  2     inversion                                    

 cryst.   s( 2) = (    -1          0          0      )
                  (     0         -1          0      )
                  (     0          0         -1      )

 cart.    s( 2) = ( -1.0000000  0.0000000  0.0000000 )
                  (  0.0000000 -1.0000000  0.0000000 )
                  (  0.0000000  0.0000000 -1.0000000 )


   Cartesian axes

     site n.     atom                  positions (alat units)
         1           Li  tau(   1) = (   0.8068791   0.2716773   0.1457494  )
         2           Li  tau(   2) = (   0.3311067   0.9018509   0.4372482  )
         3           Cu  tau(   3) = (   1.0246055   0.2293559   0.4372482  )
         4           Cu  tau(   4) = (   0.1133803   0.9441722   0.1457494  )
         5           P   tau(   5) = (   0.9085916   0.7618063   0.4448074  )
         6           P   tau(   6) = (   0.2293942   0.4117219   0.1381903  )
         7           P   tau(   7) = (   0.6491458   0.8445835   0.1533086  )
         8           P   tau(   8) = (   0.4888400   0.3289447   0.4296891  )
         9           O   tau(   9) = (   0.3483187   0.2934854   0.0050610  )
        10           O   tau(  10) = (   0.6626128   0.2910684   0.3491660  )
        11           O   tau(  11) = (   0.9517926   0.5892800   0.5253304  )
        12           O   tau(  12) = (   1.0613004   0.8761255   0.3790750  )
        13           O   tau(  13) = (   0.3792699   0.1727932   0.4954215  )
        14           O   tau(  14) = (   0.0766853   0.2974027   0.2039227  )
        15           O   tau(  15) = (   0.1861931   0.5842481   0.0576672  )
        16           O   tau(  16) = (   0.7709827   0.7293504   0.2864378  )
        17           O   tau(  17) = (   0.7587159   1.0007349   0.0875762  )
        18           O   tau(  18) = (   0.3670030   0.4441777   0.2965598  )
        19           O   tau(  19) = (   0.7896671   0.8800427   0.5779367  )
        20           O   tau(  20) = (   0.4753729   0.8824598   0.2338316  )

   Crystallographic axes

     site n.     atom                  positions (cryst. coord.)
         1           Li  tau(   1) = (  0.7717150  0.2282850  0.2500000  )
         2           Li  tau(   2) = (  0.2282850  0.7717150  0.7500000  )
         3           Cu  tau(   3) = (  0.9010980  0.0989020  0.7500000  )
         4           Cu  tau(   4) = (  0.0989020  0.9010980  0.2500000  )
         5           P   tau(   5) = (  0.7992050  0.6293470  0.7629660  )
         6           P   tau(   6) = (  0.2007950  0.3706530  0.2370340  )
         7           P   tau(   7) = (  0.6293470  0.7992050  0.2629660  )
         8           P   tau(   8) = (  0.3706530  0.2007950  0.7370340  )
         9           O   tau(   9) = (  0.3558350  0.2921130  0.0086810  )
        10           O   tau(  10) = (  0.5673050  0.1869450  0.5989150  )
        11           O   tau(  11) = (  0.8130550  0.4326950  0.9010850  )
        12           O   tau(  12) = (  0.9750580  0.7633480  0.6502170  )
        13           O   tau(  13) = (  0.2366520  0.0249420  0.8497830  )
        14           O   tau(  14) = (  0.0249420  0.2366520  0.3497830  )
        15           O   tau(  15) = (  0.1869450  0.5673050  0.0989150  )
        16           O   tau(  16) = (  0.7078870  0.6441650  0.4913190  )
        17           O   tau(  17) = (  0.7633480  0.9750580  0.1502170  )
        18           O   tau(  18) = (  0.2921130  0.3558350  0.5086810  )
        19           O   tau(  19) = (  0.6441650  0.7078870  0.9913190  )
        20           O   tau(  20) = (  0.4326950  0.8130550  0.4010850  )

     number of k points=    14
                       cart. coord. in units 2pi/alat
        k(    1) = (   0.0000000   0.0000000   0.0000000), wk =   0.0740741
        k(    2) = (   0.0000000   0.0000000   0.5717576), wk =   0.1481481
        k(    3) = (   0.0000000   0.3334910  -0.0995334), wk =   0.1481481
        k(    4) = (   0.0000000   0.3334910   0.4722242), wk =   0.1481481
        k(    5) = (   0.0000000   0.3334910  -0.6712910), wk =   0.1481481
        k(    6) = (   0.3333333   0.0102533  -0.0995334), wk =   0.1481481
        k(    7) = (   0.3333333   0.0102533   0.4722242), wk =   0.1481481
        k(    8) = (   0.3333333   0.0102533  -0.6712910), wk =   0.1481481
        k(    9) = (   0.3333333   0.3437443  -0.1990668), wk =   0.1481481
        k(   10) = (   0.3333333   0.3437443   0.3726908), wk =   0.1481481
        k(   11) = (   0.3333333   0.3437443  -0.7708244), wk =   0.1481481
        k(   12) = (   0.3333333  -0.3232377   0.0000000), wk =   0.1481481
        k(   13) = (   0.3333333  -0.3232377   0.5717576), wk =   0.1481481
        k(   14) = (   0.3333333  -0.3232377  -0.5717576), wk =   0.1481481

                       cryst. coord.
        k(    1) = (   0.0000000   0.0000000   0.0000000), wk =   0.0740741
        k(    2) = (   0.0000000   0.0000000   0.3333333), wk =   0.1481481
        k(    3) = (   0.0000000   0.3333333   0.0000000), wk =   0.1481481
        k(    4) = (   0.0000000   0.3333333   0.3333333), wk =   0.1481481
        k(    5) = (   0.0000000   0.3333333  -0.3333333), wk =   0.1481481
        k(    6) = (   0.3333333   0.0000000  -0.0000000), wk =   0.1481481
        k(    7) = (   0.3333333   0.0000000   0.3333333), wk =   0.1481481
        k(    8) = (   0.3333333   0.0000000  -0.3333333), wk =   0.1481481
        k(    9) = (   0.3333333   0.3333333   0.0000000), wk =   0.1481481
        k(   10) = (   0.3333333   0.3333333   0.3333333), wk =   0.1481481
        k(   11) = (   0.3333333   0.3333333  -0.3333333), wk =   0.1481481
        k(   12) = (   0.3333333  -0.3333333  -0.0000000), wk =   0.1481481
        k(   13) = (   0.3333333  -0.3333333   0.3333333), wk =   0.1481481
        k(   14) = (   0.3333333  -0.3333333  -0.3333333), wk =   0.1481481

     Dense  grid:   107543 G-vectors     FFT dimensions: (  72,  72,  45)

     Smooth grid:    37989 G-vectors     FFT dimensions: (  50,  50,  32)

     Dynamical RAM for                 wfc:       1.16 MB

     Dynamical RAM for     wfc (w. buffer):       9.27 MB

     Dynamical RAM for           str. fact:       1.64 MB

     Dynamical RAM for           local pot:       0.00 MB

     Dynamical RAM for          nlocal pot:       4.02 MB

     Dynamical RAM for                qrad:       4.98 MB

     Dynamical RAM for          rho,v,vnew:       2.65 MB

     Dynamical RAM for               rhoin:       0.88 MB

     Dynamical RAM for            rho*nmix:       6.56 MB

     Dynamical RAM for           G-vectors:       1.61 MB

     Dynamical RAM for          h,s,v(r/c):       0.75 MB

     Dynamical RAM for          <psi|beta>:       0.22 MB

     Dynamical RAM for                 psi:       2.32 MB

     Dynamical RAM for                hpsi:       2.32 MB

     Dynamical RAM for                spsi:       2.32 MB

     Dynamical RAM for      wfcinit/wfcrot:       3.53 MB

     Dynamical RAM for           addusdens:      40.82 MB

     Estimated static dynamical RAM per process >      29.49 MB

     Estimated max dynamical RAM per process >      76.87 MB

     Estimated total dynamical RAM >     588.68 MB

     Check: negative core charge=   -0.000011

     Initial potential from superposition of free atoms

     starting charge     119.0974, renormalised to     120.0000
     Starting wfcs are   92 randomized atomic wfcs
     Checking if some PAW data can be deallocated... 
       PAW data deallocated on    6 nodes for type:  2
       PAW data deallocated on    2 nodes for type:  4

     total cpu time spent up to now is        1.7 secs

     Self-consistent Calculation

     iteration #  1     ecut=    30.00 Ry     beta= 0.70
     Davidson diagonalization with overlap

---- Real-time Memory Report at c_bands before calling an iterative solver
           263 MiB given to the printing process from OS
             0 MiB allocation reported by mallinfo(arena+hblkhd)
        209260 MiB available memory on the node where the printing process lives
------------------
     ethr =  1.00E-02,  avg # of iterations =  2.0

     total cpu time spent up to now is        3.2 secs

     total energy              =   -1009.72975025 Ry
     estimated scf accuracy    <       3.77609420 Ry

     iteration #  2     ecut=    30.00 Ry     beta= 0.70
     Davidson diagonalization with overlap

---- Real-time Memory Report at c_bands before calling an iterative solver
           289 MiB given to the printing process from OS
             0 MiB allocation reported by mallinfo(arena+hblkhd)
        209087 MiB available memory on the node where the printing process lives
------------------
     ethr =  3.15E-03,  avg # of iterations =  3.0

     total cpu time spent up to now is        5.8 secs

     total energy              =   -1010.74689506 Ry
     estimated scf accuracy    <       4.12714943 Ry

     iteration #  3     ecut=    30.00 Ry     beta= 0.70
     Davidson diagonalization with overlap

---- Real-time Memory Report at c_bands before calling an iterative solver
           301 MiB given to the printing process from OS
             0 MiB allocation reported by mallinfo(arena+hblkhd)
        208894 MiB available memory on the node where the printing process lives
------------------
     ethr =  3.15E-03,  avg # of iterations =  2.0

     total cpu time spent up to now is        7.7 secs

     total energy              =   -1011.41553391 Ry
     estimated scf accuracy    <       0.25291979 Ry

     iteration #  4     ecut=    30.00 Ry     beta= 0.70
     Davidson diagonalization with overlap

---- Real-time Memory Report at c_bands before calling an iterative solver
           305 MiB given to the printing process from OS
             0 MiB allocation reported by mallinfo(arena+hblkhd)
        208803 MiB available memory on the node where the printing process lives
------------------
     ethr =  2.11E-04,  avg # of iterations =  4.1

     total cpu time spent up to now is        9.7 secs

     total energy              =   -1011.52469403 Ry
     estimated scf accuracy    <       0.08569928 Ry

     iteration #  5     ecut=    30.00 Ry     beta= 0.70
     Davidson diagonalization with overlap

---- Real-time Memory Report at c_bands before calling an iterative solver
           306 MiB given to the printing process from OS
             0 MiB allocation reported by mallinfo(arena+hblkhd)
        208843 MiB available memory on the node where the printing process lives
------------------
     ethr =  7.14E-05,  avg # of iterations =  3.3

     total cpu time spent up to now is       10.9 secs

     total energy              =   -1011.54229638 Ry
     estimated scf accuracy    <       0.01872822 Ry

     iteration #  6     ecut=    30.00 Ry     beta= 0.70
     Davidson diagonalization with overlap

---- Real-time Memory Report at c_bands before calling an iterative solver
           306 MiB given to the printing process from OS
             0 MiB allocation reported by mallinfo(arena+hblkhd)
        208843 MiB available memory on the node where the printing process lives
------------------
     ethr =  1.56E-05,  avg # of iterations =  8.0

     total cpu time spent up to now is       13.5 secs

     total energy              =   -1011.54258249 Ry
     estimated scf accuracy    <       0.00399194 Ry

     iteration #  7     ecut=    30.00 Ry     beta= 0.70
     Davidson diagonalization with overlap

---- Real-time Memory Report at c_bands before calling an iterative solver
           306 MiB given to the printing process from OS
             0 MiB allocation reported by mallinfo(arena+hblkhd)
        208876 MiB available memory on the node where the printing process lives
------------------
     c_bands:  1 eigenvalues not converged
     ethr =  3.33E-06,  avg # of iterations =  9.7

     total cpu time spent up to now is       15.7 secs

     total energy              =   -1011.54321814 Ry
     estimated scf accuracy    <       0.00027109 Ry

     iteration #  8     ecut=    30.00 Ry     beta= 0.70
     Davidson diagonalization with overlap

---- Real-time Memory Report at c_bands before calling an iterative solver
           306 MiB given to the printing process from OS
             0 MiB allocation reported by mallinfo(arena+hblkhd)
        208914 MiB available memory on the node where the printing process lives
------------------
     ethr =  2.26E-07,  avg # of iterations =  4.2

     total cpu time spent up to now is       18.1 secs

     total energy              =   -1011.54336255 Ry
     estimated scf accuracy    <       0.00007440 Ry

     iteration #  9     ecut=    30.00 Ry     beta= 0.70
     Davidson diagonalization with overlap

---- Real-time Memory Report at c_bands before calling an iterative solver
           306 MiB given to the printing process from OS
             0 MiB allocation reported by mallinfo(arena+hblkhd)
        208917 MiB available memory on the node where the printing process lives
------------------
     ethr =  6.20E-08,  avg # of iterations =  2.0

     total cpu time spent up to now is       19.1 secs

     total energy              =   -1011.54335068 Ry
     estimated scf accuracy    <       0.00003741 Ry

     iteration # 10     ecut=    30.00 Ry     beta= 0.70
     Davidson diagonalization with overlap

---- Real-time Memory Report at c_bands before calling an iterative solver
           306 MiB given to the printing process from OS
             0 MiB allocation reported by mallinfo(arena+hblkhd)
        208917 MiB available memory on the node where the printing process lives
------------------
     ethr =  3.12E-08,  avg # of iterations =  2.4

     total cpu time spent up to now is       20.4 secs

     End of self-consistent calculation

          k = 0.0000 0.0000 0.0000 (  4749 PWs)   bands (ev):

   -39.5317 -39.5312 -19.0119 -18.9596 -16.6852 -16.6684 -16.5713 -16.5649
   -15.8211 -15.6861 -15.1192 -15.0192 -15.0098 -14.9806  -8.4467  -8.4315
    -5.1774  -5.0960  -4.3719  -3.6627  -3.4048  -3.1049  -2.2857  -2.1779
    -2.1475  -1.9093  -1.4538  -1.1642  -1.0019  -0.8366  -0.4843  -0.2713
    -0.1393  -0.0494   0.1248   0.2925   0.5077   0.6759   0.6876   0.6903
     0.7613   0.9988   1.4549   1.7117   1.8278   1.8551   1.9449   1.9607
     2.1667   2.1787   4.0949   4.1939   4.2409   4.2768   4.3578   4.3864
     4.3985   4.5081   4.6496   4.9199   7.3442   9.4817   9.6543   9.7536

     occupation numbers 
     1.0000   1.0000   1.0000   1.0000   1.0000   1.0000   1.0000   1.0000
     1.0000   1.0000   1.0000   1.0000   1.0000   1.0000   1.0000   1.0000
     1.0000   1.0000   1.0000   1.0000   1.0000   1.0000   1.0000   1.0000
     1.0000   1.0000   1.0000   1.0000   1.0000   1.0000   1.0000   1.0000
     1.0000   1.0000   1.0000   1.0000   1.0000   1.0000   1.0000   1.0000
     1.0000   1.0000   1.0000   1.0000   1.0000   1.0000   1.0000   1.0000
     1.0000   1.0000   1.0000   1.0000   1.0000   1.0000   1.0000   1.0000
     1.0000   1.0000   1.0000   1.0000   0.0000   0.0000   0.0000   0.0000

          k = 0.0000 0.0000 0.5718 (  4776 PWs)   bands (ev):

   -39.5319 -39.5314 -18.6370 -18.6026 -17.6805 -17.6615 -16.0254 -15.9724
   -15.8172 -15.7620 -15.0700 -15.0457 -15.0222 -15.0147  -7.6385  -7.6091
    -6.1056  -6.0414  -3.7905  -3.4986  -3.4375  -3.0746  -2.2351  -2.0893
    -2.0849  -1.8611  -1.3467  -1.1165  -1.1152  -0.8712  -0.7960  -0.6777
    -0.4311  -0.3744   0.0944   0.2292   0.4135   0.5628   0.6709   0.6811
     0.8730   0.9748   1.6480   1.6950   1.7478   1.8264   1.8900   2.1120
     2.1124   2.1396   4.1308   4.1750   4.2265   4.2532   4.2584   4.3002
     4.5210   4.6013   4.6526   4.8040   8.3610   9.7166   9.9866  10.1007

     occupation numbers 
     1.0000   1.0000   1.0000   1.0000   1.0000   1.0000   1.0000   1.0000
     1.0000   1.0000   1.0000   1.0000   1.0000   1.0000   1.0000   1.0000
     1.0000   1.0000   1.0000   1.0000   1.0000   1.0000   1.0000   1.0000
     1.0000   1.0000   1.0000   1.0000   1.0000   1.0000   1.0000   1.0000
     1.0000   1.0000   1.0000   1.0000   1.0000   1.0000   1.0000   1.0000
     1.0000   1.0000   1.0000   1.0000   1.0000   1.0000   1.0000   1.0000
     1.0000   1.0000   1.0000   1.0000   1.0000   1.0000   1.0000   1.0000
     1.0000   1.0000   1.0000   1.0000   0.0000   0.0000   0.0000   0.0000

          k = 0.0000 0.3335-0.0995 (  4746 PWs)   bands (ev):

   -39.5315 -39.5314 -19.0007 -18.9702 -16.6861 -16.6737 -16.5738 -16.5632
   -15.8072 -15.6970 -15.0912 -15.0390 -15.0031 -14.9889  -8.4600  -8.4299
    -5.1555  -5.1154  -4.2748  -3.7147  -3.4751  -3.1361  -2.2997  -2.1424
    -2.0785  -1.8874  -1.3962  -1.1994  -0.9350  -0.7398  -0.5513  -0.4206
    -0.1402  -0.0654   0.1072   0.3187   0.4993   0.5821   0.6726   0.7534
     0.8151   0.8653   1.5506   1.7296   1.7749   1.7927   1.9473   2.0220
     2.1456   2.2143   4.0968   4.1991   4.2382   4.2813   4.3613   4.3807
     4.3997   4.5164   4.6497   4.9882   7.7400   8.9328   9.6003   9.6834

     occupation numbers 
     1.0000   1.0000   1.0000   1.0000   1.0000   1.0000   1.0000   1.0000
     1.0000   1.0000   1.0000   1.0000   1.0000   1.0000   1.0000   1.0000
     1.0000   1.0000   1.0000   1.0000   1.0000   1.0000   1.0000   1.0000
     1.0000   1.0000   1.0000   1.0000   1.0000   1.0000   1.0000   1.0000
     1.0000   1.0000   1.0000   1.0000   1.0000   1.0000   1.0000   1.0000
     1.0000   1.0000   1.0000   1.0000   1.0000   1.0000   1.0000   1.0000
     1.0000   1.0000   1.0000   1.0000   1.0000   1.0000   1.0000   1.0000
     1.0000   1.0000   1.0000   1.0000   0.0000   0.0000   0.0000   0.0000

          k = 0.0000 0.3335 0.4722 (  4754 PWs)   bands (ev):

   -39.5316 -39.5313 -18.6387 -18.6004 -17.6825 -17.6593 -16.0113 -15.9875
   -15.8217 -15.7548 -15.0806 -15.0379 -15.0266 -15.0078  -7.6306  -7.6137
    -6.1053  -6.0335  -3.8297  -3.4422  -3.3974  -3.0771  -2.2376  -2.1485
    -2.0379  -1.8834  -1.4043  -1.0713  -1.0240  -0.9491  -0.8604  -0.6677
    -0.5458  -0.2329   0.1474   0.2442   0.4409   0.6232   0.6583   0.7070
     0.8169   0.9456   1.5630   1.6879   1.7562   1.8828   1.9941   2.0551
     2.0679   2.1777   4.1300   4.1780   4.2292   4.2488   4.2751   4.3026
     4.5123   4.6024   4.6650   4.8411   8.2644   9.6094  10.0147  10.0782

     occupation numbers 
     1.0000   1.0000   1.0000   1.0000   1.0000   1.0000   1.0000   1.0000
     1.0000   1.0000   1.0000   1.0000   1.0000   1.0000   1.0000   1.0000
     1.0000   1.0000   1.0000   1.0000   1.0000   1.0000   1.0000   1.0000
     1.0000   1.0000   1.0000   1.0000   1.0000   1.0000   1.0000   1.0000
     1.0000   1.0000   1.0000   1.0000   1.0000   1.0000   1.0000   1.0000
     1.0000   1.0000   1.0000   1.0000   1.0000   1.0000   1.0000   1.0000
     1.0000   1.0000   1.0000   1.0000   1.0000   1.0000   1.0000   1.0000
     1.0000   1.0000   1.0000   1.0000   0.0000   0.0000   0.0000   0.0000

          k = 0.0000 0.3335-0.6713 (  4763 PWs)   bands (ev):

   -39.5317 -39.5313 -18.6293 -18.6092 -17.6776 -17.6662 -16.0236 -15.9803
   -15.8130 -15.7602 -15.0624 -15.0446 -15.0278 -15.0145  -7.6392  -7.6242
    -6.0774  -6.0418  -3.7637  -3.4670  -3.4367  -3.1462  -2.1866  -2.1303
    -2.0157  -1.9283  -1.2206  -1.1637  -1.0666  -0.8639  -0.7982  -0.7257
    -0.6268  -0.2822   0.1000   0.3048   0.4288   0.5134   0.6113   0.6780
     0.9138   0.9425   1.6162   1.6831   1.7619   1.8842   1.9194   2.0342
     2.1311   2.2105   4.1250   4.1820   4.2333   4.2533   4.2656   4.2946
     4.5227   4.5890   4.6358   4.8758   8.6313   9.2456   9.9491  10.1089

     occupation numbers 
     1.0000   1.0000   1.0000   1.0000   1.0000   1.0000   1.0000   1.0000
     1.0000   1.0000   1.0000   1.0000   1.0000   1.0000   1.0000   1.0000
     1.0000   1.0000   1.0000   1.0000   1.0000   1.0000   1.0000   1.0000
     1.0000   1.0000   1.0000   1.0000   1.0000   1.0000   1.0000   1.0000
     1.0000   1.0000   1.0000   1.0000   1.0000   1.0000   1.0000   1.0000
     1.0000   1.0000   1.0000   1.0000   1.0000   1.0000   1.0000   1.0000
     1.0000   1.0000   1.0000   1.0000   1.0000   1.0000   1.0000   1.0000
     1.0000   1.0000   1.0000   1.0000   0.0000   0.0000   0.0000   0.0000

          k = 0.3333 0.0103-0.0995 (  4746 PWs)   bands (ev):

   -39.5315 -39.5314 -19.0007 -18.9702 -16.6861 -16.6737 -16.5738 -16.5632
   -15.8072 -15.6970 -15.0912 -15.0390 -15.0031 -14.9889  -8.4600  -8.4299
    -5.1555  -5.1154  -4.2748  -3.7147  -3.4751  -3.1361  -2.2997  -2.1424
    -2.0785  -1.8874  -1.3962  -1.1994  -0.9350  -0.7398  -0.5513  -0.4206
    -0.1402  -0.0654   0.1073   0.3187   0.4993   0.5821   0.6726   0.7534
     0.8151   0.8653   1.5505   1.7296   1.7748   1.7927   1.9473   2.0220
     2.1456   2.2143   4.0968   4.1991   4.2382   4.2813   4.3613   4.3807
     4.3997   4.5164   4.6497   4.9882   7.7400   8.9328   9.6002   9.6834

     occupation numbers 
     1.0000   1.0000   1.0000   1.0000   1.0000   1.0000   1.0000   1.0000
     1.0000   1.0000   1.0000   1.0000   1.0000   1.0000   1.0000   1.0000
     1.0000   1.0000   1.0000   1.0000   1.0000   1.0000   1.0000   1.0000
     1.0000   1.0000   1.0000   1.0000   1.0000   1.0000   1.0000   1.0000
     1.0000   1.0000   1.0000   1.0000   1.0000   1.0000   1.0000   1.0000
     1.0000   1.0000   1.0000   1.0000   1.0000   1.0000   1.0000   1.0000
     1.0000   1.0000   1.0000   1.0000   1.0000   1.0000   1.0000   1.0000
     1.0000   1.0000   1.0000   1.0000   0.0000   0.0000   0.0000   0.0000

          k = 0.3333 0.0103 0.4722 (  4754 PWs)   bands (ev):

   -39.5316 -39.5313 -18.6387 -18.6004 -17.6825 -17.6593 -16.0113 -15.9875
   -15.8217 -15.7548 -15.0806 -15.0380 -15.0266 -15.0078  -7.6306  -7.6137
    -6.1053  -6.0335  -3.8297  -3.4423  -3.3974  -3.0771  -2.2376  -2.1485
    -2.0379  -1.8834  -1.4042  -1.0713  -1.0240  -0.9491  -0.8604  -0.6677
    -0.5458  -0.2329   0.1474   0.2442   0.4409   0.6232   0.6583   0.7070
     0.8169   0.9456   1.5630   1.6878   1.7563   1.8828   1.9941   2.0551
     2.0678   2.1777   4.1300   4.1780   4.2292   4.2488   4.2751   4.3026
     4.5123   4.6024   4.6650   4.8411   8.2644   9.6095  10.0147  10.0782

     occupation numbers 
     1.0000   1.0000   1.0000   1.0000   1.0000   1.0000   1.0000   1.0000
     1.0000   1.0000   1.0000   1.0000   1.0000   1.0000   1.0000   1.0000
     1.0000   1.0000   1.0000   1.0000   1.0000   1.0000   1.0000   1.0000
     1.0000   1.0000   1.0000   1.0000   1.0000   1.0000   1.0000   1.0000
     1.0000   1.0000   1.0000   1.0000   1.0000   1.0000   1.0000   1.0000
     1.0000   1.0000   1.0000   1.0000   1.0000   1.0000   1.0000   1.0000
     1.0000   1.0000   1.0000   1.0000   1.0000   1.0000   1.0000   1.0000
     1.0000   1.0000   1.0000   1.0000   0.0000   0.0000   0.0000   0.0000

          k = 0.3333 0.0103-0.6713 (  4763 PWs)   bands (ev):

   -39.5317 -39.5313 -18.6293 -18.6092 -17.6776 -17.6662 -16.0236 -15.9803
   -15.8130 -15.7602 -15.0624 -15.0446 -15.0278 -15.0145  -7.6392  -7.6242
    -6.0774  -6.0418  -3.7637  -3.4670  -3.4367  -3.1462  -2.1867  -2.1303
    -2.0157  -1.9283  -1.2206  -1.1637  -1.0666  -0.8639  -0.7982  -0.7257
    -0.6268  -0.2822   0.1000   0.3048   0.4288   0.5134   0.6113   0.6780
     0.9138   0.9426   1.6162   1.6831   1.7619   1.8842   1.9194   2.0342
     2.1310   2.2105   4.1250   4.1820   4.2333   4.2533   4.2656   4.2946
     4.5227   4.5890   4.6358   4.8758   8.6313   9.2456   9.9491  10.1080

     occupation numbers 
     1.0000   1.0000   1.0000   1.0000   1.0000   1.0000   1.0000   1.0000
     1.0000   1.0000   1.0000   1.0000   1.0000   1.0000   1.0000   1.0000
     1.0000   1.0000   1.0000   1.0000   1.0000   1.0000   1.0000   1.0000
     1.0000   1.0000   1.0000   1.0000   1.0000   1.0000   1.0000   1.0000
     1.0000   1.0000   1.0000   1.0000   1.0000   1.0000   1.0000   1.0000
     1.0000   1.0000   1.0000   1.0000   1.0000   1.0000   1.0000   1.0000
     1.0000   1.0000   1.0000   1.0000   1.0000   1.0000   1.0000   1.0000
     1.0000   1.0000   1.0000   1.0000   0.0000   0.0000   0.0000   0.0000

          k = 0.3333 0.3437-0.1991 (  4742 PWs)   bands (ev):

   -39.5315 -39.5314 -18.9928 -18.9772 -16.7267 -16.6417 -16.5764 -16.5570
   -15.7988 -15.7068 -15.0671 -15.0471 -15.0143 -14.9859  -8.4796  -8.4221
    -5.1488  -5.1184  -4.2178  -3.6939  -3.5240  -3.1915  -2.2757  -2.1114
    -2.0583  -1.8643  -1.4030  -1.1570  -0.9347  -0.6654  -0.5684  -0.5564
    -0.1116  -0.0499   0.1278   0.2880   0.4177   0.4617   0.6238   0.7471
     0.8684   0.9039   1.5835   1.7333   1.7576   1.7914   1.9744   2.0328
     2.0980   2.3030   4.0969   4.2032   4.2342   4.2817   4.3720   4.3722
     4.4137   4.5105   4.6516   5.0467   8.0855   8.8476   9.1147   9.6114

     occupation numbers 
     1.0000   1.0000   1.0000   1.0000   1.0000   1.0000   1.0000   1.0000
     1.0000   1.0000   1.0000   1.0000   1.0000   1.0000   1.0000   1.0000
     1.0000   1.0000   1.0000   1.0000   1.0000   1.0000   1.0000   1.0000
     1.0000   1.0000   1.0000   1.0000   1.0000   1.0000   1.0000   1.0000
     1.0000   1.0000   1.0000   1.0000   1.0000   1.0000   1.0000   1.0000
     1.0000   1.0000   1.0000   1.0000   1.0000   1.0000   1.0000   1.0000
     1.0000   1.0000   1.0000   1.0000   1.0000   1.0000   1.0000   1.0000
     1.0000   1.0000   1.0000   1.0000   0.0000   0.0000   0.0000   0.0000

          k = 0.3333 0.3437 0.3727 (  4748 PWs)   bands (ev):

   -39.5315 -39.5313 -18.6350 -18.6040 -17.6799 -17.6621 -16.0072 -15.9904
   -15.8259 -15.7502 -15.0765 -15.0385 -15.0256 -15.0143  -7.6318  -7.6119
    -6.1104  -6.0197  -3.7938  -3.4888  -3.3923  -3.1053  -2.2707  -2.0799
    -2.0566  -1.8649  -1.3557  -1.1231  -0.9944  -0.9273  -0.8548  -0.7696
    -0.5370  -0.2876   0.1884   0.2786   0.4527   0.6114   0.6538   0.7669
     0.8627   0.9340   1.5447   1.7011   1.8113   1.8237   1.8902   2.0074
     2.1524   2.1749   4.1310   4.1786   4.2365   4.2368   4.2823   4.3029
     4.5117   4.6076   4.7147   4.8412   8.3772   9.6051   9.6698  10.2557

     occupation numbers 
     1.0000   1.0000   1.0000   1.0000   1.0000   1.0000   1.0000   1.0000
     1.0000   1.0000   1.0000   1.0000   1.0000   1.0000   1.0000   1.0000
     1.0000   1.0000   1.0000   1.0000   1.0000   1.0000   1.0000   1.0000
     1.0000   1.0000   1.0000   1.0000   1.0000   1.0000   1.0000   1.0000
     1.0000   1.0000   1.0000   1.0000   1.0000   1.0000   1.0000   1.0000
     1.0000   1.0000   1.0000   1.0000   1.0000   1.0000   1.0000   1.0000
     1.0000   1.0000   1.0000   1.0000   1.0000   1.0000   1.0000   1.0000
     1.0000   1.0000   1.0000   1.0000   0.0000   0.0000   0.0000   0.0000

          k = 0.3333 0.3437-0.7708 (  4748 PWs)   bands (ev):

   -39.5314 -39.5313 -18.6283 -18.6086 -17.6852 -17.6603 -16.0292 -15.9786
   -15.8143 -15.7558 -15.0550 -15.0517 -15.0358 -15.0030  -7.6428  -7.6368
    -6.0608  -6.0372  -3.7520  -3.5124  -3.3681  -3.1468  -2.1962  -2.0463
    -2.0004  -1.9677  -1.3906  -1.1381  -0.9886  -0.9102  -0.7524  -0.7225
    -0.6130  -0.2969   0.1618   0.2471   0.4562   0.5529   0.6020   0.6163
     0.8838   0.9115   1.5913   1.6873   1.7793   1.9384   1.9511   2.1013
     2.1109   2.2039   4.1211   4.1867   4.2486   4.2493   4.2731   4.2875
     4.5172   4.5781   4.6208   4.9339   8.8246   9.0516   9.8472  10.0917

     occupation numbers 
     1.0000   1.0000   1.0000   1.0000   1.0000   1.0000   1.0000   1.0000
     1.0000   1.0000   1.0000   1.0000   1.0000   1.0000   1.0000   1.0000
     1.0000   1.0000   1.0000   1.0000   1.0000   1.0000   1.0000   1.0000
     1.0000   1.0000   1.0000   1.0000   1.0000   1.0000   1.0000   1.0000
     1.0000   1.0000   1.0000   1.0000   1.0000   1.0000   1.0000   1.0000
     1.0000   1.0000   1.0000   1.0000   1.0000   1.0000   1.0000   1.0000
     1.0000   1.0000   1.0000   1.0000   1.0000   1.0000   1.0000   1.0000
     1.0000   1.0000   1.0000   1.0000   0.0000   0.0000   0.0000   0.0000

          k = 0.3333-0.3232 0.0000 (  4752 PWs)   bands (ev):

   -39.5316 -39.5314 -18.9979 -18.9720 -16.7211 -16.6441 -16.5752 -16.5626
   -15.7996 -15.7052 -15.0788 -15.0413 -15.0168 -14.9777  -8.4728  -8.4319
    -5.1382  -5.1314  -4.2750  -3.6102  -3.5061  -3.2059  -2.3212  -2.1262
    -2.0009  -1.8814  -1.4455  -1.0998  -1.0391  -0.6886  -0.5899  -0.4868
    -0.0779  -0.0023   0.0633   0.3327   0.3727   0.5519   0.5700   0.7244
     0.8669   0.9108   1.5183   1.6977   1.7948   1.8774   1.9426   2.0149
     2.1049   2.3055   4.0975   4.2028   4.2373   4.2804   4.3709   4.3713
     4.4160   4.5055   4.6477   5.0517   7.9400   8.9574   9.1814   9.6760

     occupation numbers 
     1.0000   1.0000   1.0000   1.0000   1.0000   1.0000   1.0000   1.0000
     1.0000   1.0000   1.0000   1.0000   1.0000   1.0000   1.0000   1.0000
     1.0000   1.0000   1.0000   1.0000   1.0000   1.0000   1.0000   1.0000
     1.0000   1.0000   1.0000   1.0000   1.0000   1.0000   1.0000   1.0000
     1.0000   1.0000   1.0000   1.0000   1.0000   1.0000   1.0000   1.0000
     1.0000   1.0000   1.0000   1.0000   1.0000   1.0000   1.0000   1.0000
     1.0000   1.0000   1.0000   1.0000   1.0000   1.0000   1.0000   1.0000
     1.0000   1.0000   1.0000   1.0000   0.0000   0.0000   0.0000   0.0000

          k = 0.3333-0.3232 0.5718 (  4752 PWs)   bands (ev):

   -39.5314 -39.5314 -18.6269 -18.6113 -17.6835 -17.6598 -16.0081 -15.9962
   -15.8187 -15.7528 -15.0585 -15.0506 -15.0345 -15.0068  -7.6378  -7.6222
    -6.0848  -6.0299  -3.7444  -3.4840  -3.4770  -3.0966  -2.2231  -2.1069
    -1.9742  -1.9175  -1.2928  -1.1177  -1.0994  -0.9025  -0.8283  -0.7151
    -0.5050  -0.4046   0.1686   0.2297   0.4897   0.5708   0.6712   0.7741
     0.8108   0.8913   1.5837   1.7178   1.7353   1.8499   1.9175   2.0805
     2.1608   2.1830   4.1270   4.1837   4.2387   4.2494   4.2733   4.2935
     4.5117   4.5963   4.6653   4.8895   8.6135   9.3360   9.7487  10.1370

     occupation numbers 
     1.0000   1.0000   1.0000   1.0000   1.0000   1.0000   1.0000   1.0000
     1.0000   1.0000   1.0000   1.0000   1.0000   1.0000   1.0000   1.0000
     1.0000   1.0000   1.0000   1.0000   1.0000   1.0000   1.0000   1.0000
     1.0000   1.0000   1.0000   1.0000   1.0000   1.0000   1.0000   1.0000
     1.0000   1.0000   1.0000   1.0000   1.0000   1.0000   1.0000   1.0000
     1.0000   1.0000   1.0000   1.0000   1.0000   1.0000   1.0000   1.0000
     1.0000   1.0000   1.0000   1.0000   1.0000   1.0000   1.0000   1.0000
     1.0000   1.0000   1.0000   1.0000   0.0000   0.0000   0.0000   0.0000

          k = 0.3333-0.3232-0.5718 (  4752 PWs)   bands (ev):

   -39.5314 -39.5314 -18.6269 -18.6113 -17.6835 -17.6598 -16.0081 -15.9962
   -15.8187 -15.7528 -15.0585 -15.0506 -15.0345 -15.0068  -7.6378  -7.6222
    -6.0848  -6.0299  -3.7444  -3.4840  -3.4770  -3.0966  -2.2231  -2.1069
    -1.9743  -1.9175  -1.2929  -1.1177  -1.0994  -0.9025  -0.8283  -0.7151
    -0.5051  -0.4045   0.1686   0.2297   0.4897   0.5709   0.6712   0.7741
     0.8109   0.8913   1.5837   1.7178   1.7354   1.8500   1.9175   2.0805
     2.1608   2.1830   4.1270   4.1837   4.2387   4.2494   4.2733   4.2935
     4.5117   4.5963   4.6653   4.8895   8.6135   9.3360   9.7486  10.1371

     occupation numbers 
     1.0000   1.0000   1.0000   1.0000   1.0000   1.0000   1.0000   1.0000
     1.0000   1.0000   1.0000   1.0000   1.0000   1.0000   1.0000   1.0000
     1.0000   1.0000   1.0000   1.0000   1.0000   1.0000   1.0000   1.0000
     1.0000   1.0000   1.0000   1.0000   1.0000   1.0000   1.0000   1.0000
     1.0000   1.0000   1.0000   1.0000   1.0000   1.0000   1.0000   1.0000
     1.0000   1.0000   1.0000   1.0000   1.0000   1.0000   1.0000   1.0000
     1.0000   1.0000   1.0000   1.0000   1.0000   1.0000   1.0000   1.0000
     1.0000   1.0000   1.0000   1.0000   0.0000   0.0000   0.0000   0.0000

     highest occupied, lowest unoccupied level (ev):     5.0517    7.3442

!    total energy              =   -1011.54336022 Ry
     estimated scf accuracy    <       0.00000033 Ry

     The total energy is the sum of the following terms:
     one-electron contribution =    -369.64123401 Ry
     hartree contribution      =     261.52083346 Ry
     xc contribution           =    -204.59502649 Ry
     ewald contribution        =    -405.05574356 Ry
     one-center paw contrib.   =    -293.77218963 Ry
      -> PAW hartree energy AE =      98.65674483 Ry
      -> PAW hartree energy PS =     -97.89726438 Ry
      -> PAW xc energy AE      =    -135.05961807 Ry
      -> PAW xc energy PS      =      44.50449569 Ry
      -> total E_H with PAW    =     262.28031391 Ry
      -> total E_XC with PAW   =    -295.15014887 Ry

     convergence has been achieved in  10 iterations

     Writing all to output data dir bands_nm/myprefix.save/
 
     init_run     :      4.49s CPU      1.29s WALL (       1 calls)
     electrons    :     71.79s CPU     18.90s WALL (       1 calls)

     Called by init_run:
     wfcinit      :      1.60s CPU      0.42s WALL (       1 calls)
     wfcinit:atom :      0.02s CPU      0.00s WALL (       7 calls)
     wfcinit:wfcr :      1.50s CPU      0.39s WALL (       7 calls)
     potinit      :      0.66s CPU      0.17s WALL (       1 calls)
     hinit0       :      1.89s CPU      0.59s WALL (       1 calls)

     Called by electrons:
     c_bands      :     57.32s CPU     14.97s WALL (      10 calls)
     sum_band     :      8.73s CPU      2.36s WALL (      10 calls)
     v_of_rho     :      0.73s CPU      0.19s WALL (      11 calls)
     v_h          :      0.07s CPU      0.02s WALL (      11 calls)
     v_xc         :      0.66s CPU      0.17s WALL (      11 calls)
     newd         :      2.20s CPU      0.60s WALL (      11 calls)
     PAW_pot      :      2.16s CPU      0.56s WALL (      11 calls)
     mix_rho      :      0.15s CPU      0.04s WALL (      10 calls)

     Called by c_bands:
     init_us_2    :      0.29s CPU      0.08s WALL (     147 calls)
     init_us_2:cp :      0.29s CPU      0.08s WALL (     147 calls)
     cegterg      :     48.31s CPU     12.46s WALL (      70 calls)

     Called by sum_band:
     sum_band:wei :      0.01s CPU      0.00s WALL (      10 calls)
     sum_band:loo :      5.75s CPU      1.48s WALL (      10 calls)
     sum_band:buf :      0.09s CPU      0.02s WALL (      70 calls)
     sum_band:ini :      0.14s CPU      0.04s WALL (      70 calls)
     sum_band:cal :      1.36s CPU      0.34s WALL (      70 calls)
     sum_band:bec :      0.02s CPU      0.01s WALL (      70 calls)
     addusdens    :      1.71s CPU      0.55s WALL (      10 calls)
     addusd:skk   :      0.00s CPU      0.00s WALL (      40 calls)
     addusd:dgemm :      0.21s CPU      0.16s WALL (      40 calls)
     addusd:qvan2 :      0.87s CPU      0.22s WALL (      40 calls)

     Called by *egterg:
     cdiaghg      :      5.83s CPU      1.51s WALL (     364 calls)
     cegterg:over :      5.22s CPU      1.30s WALL (     294 calls)
     cegterg:upda :      0.90s CPU      0.29s WALL (     294 calls)
     cegterg:last :      2.49s CPU      0.64s WALL (     162 calls)
     h_psi        :     27.96s CPU      7.27s WALL (     371 calls)
     s_psi        :      2.81s CPU      0.72s WALL (     371 calls)
     g_psi        :      0.05s CPU      0.01s WALL (     294 calls)

     Called by h_psi:
     h_psi:calbec :      4.20s CPU      1.07s WALL (     371 calls)
     vloc_psi     :     21.08s CPU      5.45s WALL (     371 calls)
     add_vuspsi   :      2.65s CPU      0.73s WALL (     371 calls)

     General routines
     calbec       :      5.56s CPU      1.41s WALL (     441 calls)
     fft          :      0.93s CPU      0.26s WALL (     141 calls)
     ffts         :      0.14s CPU      0.04s WALL (      21 calls)
     fftw         :     24.48s CPU      5.86s WALL (   31090 calls)
     interpolate  :      0.18s CPU      0.05s WALL (      11 calls)
 
     Parallel routines

     PAW routines
     PAW_pot      :      2.16s CPU      0.56s WALL (      11 calls)
     PAW_symme    :      0.06s CPU      0.02s WALL (      21 calls)
 
     PWSCF        :   1m18.17s CPU     21.62s WALL

 
   This run was terminated on:   2:16:46  14Jul2023            

=------------------------------------------------------------------------------=
   JOB DONE.
=------------------------------------------------------------------------------=
