
     Program PWSCF v.7.0 starts on  5Jun2023 at 19: 9:19 

     This program is part of the open-source Quantum ESPRESSO suite
     for quantum simulation of materials; please cite
         "P. Giannozzi et al., J. Phys.:Condens. Matter 21 395502 (2009);
         "P. Giannozzi et al., J. Phys.:Condens. Matter 29 465901 (2017);
         "P. Giannozzi et al., J. Chem. Phys. 152 154105 (2020);
          URL http://www.quantum-espresso.org", 
     in publications or presentations arising from this work. More details at
     http://www.quantum-espresso.org/quote

     Parallel version (MPI & OpenMP), running on      32 processor cores
     Number of MPI processes:                 8
     Threads/MPI process:                     4

     MPI processes distributed on     1 nodes
     K-points division:     npool     =       2
     R & G space division:  proc/nbgrp/npool/nimage =       4
     96523 MiB available memory on the printing compute node when the environment starts
 
     Reading input from espresso_11195.pwi
Warning: card &CELL ignored
Warning: card / ignored

     Current dimensions of program PWSCF are:
     Max number of different atomic species (ntypx) = 10
     Max number of k-points (npk) =  40000
     Max angular momentum in pseudopotentials (lmaxx) =  4
     file K.pbe-spn-kjpaw_psl.1.0.0.UPF: wavefunction(s)  3S renormalized
     file O.pbe-n-kjpaw_psl.0.1.UPF: wavefunction(s)  2P renormalized

     Subspace diagonalization in iterative solution of the eigenvalue problem:
     one sub-group per band group will be used
     scalapack distributed-memory algorithm (size of sub-group:  2*  2 procs)

 
     Parallelization info
     --------------------
     sticks:   dense  smooth     PW     G-vecs:    dense   smooth      PW
     Min         501     248     76                11805     4163     695
     Max         502     249     77                11806     4166     696
     Sum        2005     993    305                47221    16657    2783
 
     Using Slab Decomposition
 


     bravais-lattice index     =            0
     lattice parameter (alat)  =      13.1817  a.u.
     unit-cell volume          =     752.3037 (a.u.)^3
     number of atoms/cell      =            9
     number of atomic types    =            5
     number of electrons       =        52.00
     number of Kohn-Sham states=           64
     kinetic-energy cutoff     =      30.0000  Ry
     charge density cutoff     =     240.0000  Ry
     scf convergence threshold =      1.0E-06
     mixing beta               =       0.7000
     number of iterations used =            8  plain     mixing
     Exchange-correlation=  SLA  PW   PBX  PBC
                           (   1   4   3   4   0   0   0)

     celldm(1)=  13.181662  celldm(2)=   0.000000  celldm(3)=   0.000000
     celldm(4)=   0.000000  celldm(5)=   0.000000  celldm(6)=   0.000000

     crystal axes: (cart. coord. in units of alat)
               a(1) = (   1.000000   0.000000   0.000000 )  
               a(2) = (   0.795982   0.605320   0.000000 )  
               a(3) = (   0.795982   0.268279   0.542622 )  

     reciprocal axes: (cart. coord. in units 2 pi/alat)
               b(1) = (  1.000000 -1.314977 -0.816777 )  
               b(2) = (  0.000000  1.652018 -0.816777 )  
               b(3) = (  0.000000  0.000000  1.842903 )  


     PseudoPot. # 1 for K  read from file:
     /home/pragov/projects/rrg-bengioy-ad/pragov/crystal_structure_design/SSSP/K.pbe-spn-kjpaw_psl.1.0.0.UPF
     MD5 check sum: 7d58810084cac21f60fbe77ea2b688fd
     Pseudo is Projector augmented-wave + core cor, Zval =  9.0
     Generated using "atomic" code by A. Dal Corso  v.5.1
     Shape of augmentation charge: PSQ
     Using radial grid of 1165 points,  6 beta functions with: 
                l(1) =   0
                l(2) =   0
                l(3) =   1
                l(4) =   1
                l(5) =   2
                l(6) =   2
     Q(r) pseudized with 0 coefficients 


     PseudoPot. # 2 for Be read from file:
     /home/pragov/projects/rrg-bengioy-ad/pragov/crystal_structure_design/SSSP/be_pbe_v1.4.uspp.F.UPF
     MD5 check sum: 5ecff1440924c7c98ad504bef30f5264
     Pseudo is Ultrasoft, Zval =  4.0
     Generated by new atomic code, or converted to UPF format
     Using radial grid of  769 points,  6 beta functions with: 
                l(1) =   0
                l(2) =   0
                l(3) =   0
                l(4) =   1
                l(5) =   1
                l(6) =   2
     Q(r) pseudized with 10 coefficients,  rinner =    1.000   1.000   1.000
                                                       1.000   1.000

     PseudoPot. # 3 for B  read from file:
     /home/pragov/projects/rrg-bengioy-ad/pragov/crystal_structure_design/SSSP/b_pbe_v1.4.uspp.F.UPF
     MD5 check sum: cc6de2960df11db49a60e589f9ebb39b
     Pseudo is Ultrasoft + core correction, Zval =  3.0
     Generated by new atomic code, or converted to UPF format
     Using radial grid of  781 points,  4 beta functions with: 
                l(1) =   0
                l(2) =   0
                l(3) =   1
                l(4) =   1
     Q(r) pseudized with  8 coefficients,  rinner =    1.100   1.100   1.100


     PseudoPot. # 4 for O  read from file:
     /home/pragov/projects/rrg-bengioy-ad/pragov/crystal_structure_design/SSSP/O.pbe-n-kjpaw_psl.0.1.UPF
     MD5 check sum: 0234752ac141de4415c5fc33072bef88
     Pseudo is Projector augmented-wave + core cor, Zval =  6.0
     Generated using "atomic" code by A. Dal Corso  v.5.0.99 svn rev. 10869
     Shape of augmentation charge: BESSEL
     Using radial grid of 1095 points,  4 beta functions with: 
                l(1) =   0
                l(2) =   0
                l(3) =   1
                l(4) =   1
     Q(r) pseudized with 0 coefficients 


     PseudoPot. # 5 for F  read from file:
     /home/pragov/projects/rrg-bengioy-ad/pragov/crystal_structure_design/SSSP/f_pbe_v1.4.uspp.F.UPF
     MD5 check sum: 4c38b6a325caf53ec0e86aed9459de46
     Pseudo is Ultrasoft, Zval =  7.0
     Generated by new atomic code, or converted to UPF format
     Using radial grid of  799 points,  4 beta functions with: 
                l(1) =   0
                l(2) =   0
                l(3) =   1
                l(4) =   1
     Q(r) pseudized with  8 coefficients,  rinner =    0.950   0.950   0.950


     atomic species   valence    mass     pseudopotential
        K              9.00    39.09830     K ( 1.00)
        Be             4.00     9.01218     Be( 1.00)
        B              3.00    10.81000     B ( 1.00)
        O              6.00    15.99900     O ( 1.00)
        F              7.00    18.99840     F ( 1.00)

     No symmetry found


                                    s                        frac. trans.

      isym =  1     identity                                     

 cryst.   s( 1) = (     1          0          0      )
                  (     0          1          0      )
                  (     0          0          1      )

 cart.    s( 1) = (  1.0000000 -0.0000000 -0.0000000 )
                  (  0.0000000  1.0000000 -0.0000000 )
                  (  0.0000000  0.0000000  1.0000000 )


   Cartesian axes

     site n.     atom                  positions (alat units)
         1           K   tau(   1) = (   0.0000000   0.0000000   0.0000000  )
         2           Be  tau(   2) = (   0.5088518   0.1715041   0.1065270  )
         3           Be  tau(   3) = (   2.0831124   0.7020949   0.4360952  )
         4           B   tau(   4) = (   1.2959821   0.4367995   0.2713111  )
         5           O   tau(   5) = (   1.2328506   0.5198160   0.4392207  )
         6           O   tau(   6) = (   1.2959821   0.5410939   0.1034015  )
         7           O   tau(   7) = (   1.3591136   0.2494886   0.2713111  )
         8           F   tau(   8) = (   0.7145320   0.2408268   0.1495857  )
         9           F   tau(   9) = (   1.8774323   0.6327722   0.3930365  )

   Crystallographic axes

     site n.     atom                  positions (cryst. coord.)
         1           K   tau(   1) = (  0.0000000  0.0000000  0.0000000  )
         2           Be  tau(   2) = (  0.1963190  0.1963190  0.1963190  )
         3           Be  tau(   3) = (  0.8036810  0.8036810  0.8036810  )
         4           B   tau(   4) = (  0.5000000  0.5000000  0.5000000  )
         5           O   tau(   5) = (  0.1905590  0.5000000  0.8094410  )
         6           O   tau(   6) = (  0.5000000  0.8094410  0.1905590  )
         7           O   tau(   7) = (  0.8094410  0.1905590  0.5000000  )
         8           F   tau(   8) = (  0.2756720  0.2756720  0.2756720  )
         9           F   tau(   9) = (  0.7243280  0.7243280  0.7243280  )

     number of k points=    14
                       cart. coord. in units 2pi/alat
        k(    1) = (   0.0000000   0.0000000   0.0000000), wk =   0.0740741
        k(    2) = (   0.0000000   0.0000000   0.6143009), wk =   0.1481481
        k(    3) = (   0.0000000   0.5506728  -0.2722592), wk =   0.1481481
        k(    4) = (   0.0000000   0.5506728   0.3420418), wk =   0.1481481
        k(    5) = (   0.0000000   0.5506728  -0.8865601), wk =   0.1481481
        k(    6) = (   0.3333333  -0.4383257  -0.2722592), wk =   0.1481481
        k(    7) = (   0.3333333  -0.4383257   0.3420418), wk =   0.1481481
        k(    8) = (   0.3333333  -0.4383257  -0.8865601), wk =   0.1481481
        k(    9) = (   0.3333333   0.1123471  -0.5445183), wk =   0.1481481
        k(   10) = (   0.3333333   0.1123471   0.0697826), wk =   0.1481481
        k(   11) = (   0.3333333   0.1123471  -1.1588193), wk =   0.1481481
        k(   12) = (   0.3333333  -0.9889985   0.0000000), wk =   0.1481481
        k(   13) = (   0.3333333  -0.9889985   0.6143009), wk =   0.1481481
        k(   14) = (   0.3333333  -0.9889985  -0.6143009), wk =   0.1481481

                       cryst. coord.
        k(    1) = (   0.0000000   0.0000000   0.0000000), wk =   0.0740741
        k(    2) = (   0.0000000   0.0000000   0.3333333), wk =   0.1481481
        k(    3) = (   0.0000000   0.3333333  -0.0000000), wk =   0.1481481
        k(    4) = (   0.0000000   0.3333333   0.3333333), wk =   0.1481481
        k(    5) = (   0.0000000   0.3333333  -0.3333333), wk =   0.1481481
        k(    6) = (   0.3333333  -0.0000000   0.0000000), wk =   0.1481481
        k(    7) = (   0.3333333  -0.0000000   0.3333333), wk =   0.1481481
        k(    8) = (   0.3333333  -0.0000000  -0.3333333), wk =   0.1481481
        k(    9) = (   0.3333333   0.3333333  -0.0000000), wk =   0.1481481
        k(   10) = (   0.3333333   0.3333333   0.3333333), wk =   0.1481481
        k(   11) = (   0.3333333   0.3333333  -0.3333333), wk =   0.1481481
        k(   12) = (   0.3333333  -0.3333333   0.0000000), wk =   0.1481481
        k(   13) = (   0.3333333  -0.3333333   0.3333333), wk =   0.1481481
        k(   14) = (   0.3333333  -0.3333333  -0.3333333), wk =   0.1481481

     Dense  grid:    47221 G-vectors     FFT dimensions: (  72,  72,  72)

     Smooth grid:    16657 G-vectors     FFT dimensions: (  45,  45,  45)

     Dynamical RAM for                 wfc:       0.51 MB

     Dynamical RAM for     wfc (w. buffer):       4.07 MB

     Dynamical RAM for           str. fact:       0.90 MB

     Dynamical RAM for           local pot:       0.00 MB

     Dynamical RAM for          nlocal pot:       0.75 MB

     Dynamical RAM for                qrad:       6.22 MB

     Dynamical RAM for          rho,v,vnew:       2.68 MB

     Dynamical RAM for               rhoin:       0.89 MB

     Dynamical RAM for            rho*nmix:       2.88 MB

     Dynamical RAM for           G-vectors:       0.71 MB

     Dynamical RAM for          h,s,v(r/c):       0.19 MB

     Dynamical RAM for          <psi|beta>:       0.09 MB

     Dynamical RAM for                 psi:       1.02 MB

     Dynamical RAM for                hpsi:       1.02 MB

     Dynamical RAM for                spsi:       1.02 MB

     Dynamical RAM for      wfcinit/wfcrot:       1.11 MB

     Dynamical RAM for           addusdens:      17.11 MB

     Estimated static dynamical RAM per process >      20.85 MB

     Estimated max dynamical RAM per process >      40.85 MB

     Estimated total dynamical RAM >     315.25 MB

     Check: negative core charge=   -0.000010

     Initial potential from superposition of free atoms

     starting charge      51.9806, renormalised to      52.0000
     Starting wfcs are   42 randomized atomic wfcs +   22 random wfcs
     Checking if some PAW data can be deallocated... 
       PAW data deallocated on    7 nodes for type:  1
       PAW data deallocated on    5 nodes for type:  4

     total cpu time spent up to now is        2.9 secs

     Self-consistent Calculation

     iteration #  1     ecut=    30.00 Ry     beta= 0.70
     Davidson diagonalization with overlap

---- Real-time Memory Report at c_bands before calling an iterative solver
           174 MiB given to the printing process from OS
             0 MiB allocation reported by mallinfo(arena+hblkhd)
         96115 MiB available memory on the node where the printing process lives
------------------
     ethr =  1.00E-02,  avg # of iterations =  6.7

     total cpu time spent up to now is        4.5 secs

     total energy              =    -398.61023899 Ry
     estimated scf accuracy    <       1.08921054 Ry

     iteration #  2     ecut=    30.00 Ry     beta= 0.70
     Davidson diagonalization with overlap

---- Real-time Memory Report at c_bands before calling an iterative solver
           195 MiB given to the printing process from OS
             0 MiB allocation reported by mallinfo(arena+hblkhd)
         96006 MiB available memory on the node where the printing process lives
------------------
     ethr =  2.09E-03,  avg # of iterations =  2.0

     total cpu time spent up to now is        5.4 secs

     total energy              =    -398.84781729 Ry
     estimated scf accuracy    <       0.76631869 Ry

     iteration #  3     ecut=    30.00 Ry     beta= 0.70
     Davidson diagonalization with overlap

---- Real-time Memory Report at c_bands before calling an iterative solver
           199 MiB given to the printing process from OS
             0 MiB allocation reported by mallinfo(arena+hblkhd)
         95965 MiB available memory on the node where the printing process lives
------------------
     ethr =  1.47E-03,  avg # of iterations =  2.0

     total cpu time spent up to now is        6.2 secs

     total energy              =    -399.01698816 Ry
     estimated scf accuracy    <       0.01329476 Ry

     iteration #  4     ecut=    30.00 Ry     beta= 0.70
     Davidson diagonalization with overlap

---- Real-time Memory Report at c_bands before calling an iterative solver
           204 MiB given to the printing process from OS
             0 MiB allocation reported by mallinfo(arena+hblkhd)
         95939 MiB available memory on the node where the printing process lives
------------------
     ethr =  2.56E-05,  avg # of iterations =  3.8

     total cpu time spent up to now is        7.3 secs

     total energy              =    -399.01894117 Ry
     estimated scf accuracy    <       0.00537157 Ry

     iteration #  5     ecut=    30.00 Ry     beta= 0.70
     Davidson diagonalization with overlap

---- Real-time Memory Report at c_bands before calling an iterative solver
           204 MiB given to the printing process from OS
             0 MiB allocation reported by mallinfo(arena+hblkhd)
         95934 MiB available memory on the node where the printing process lives
------------------
     ethr =  1.03E-05,  avg # of iterations =  2.4

     total cpu time spent up to now is        8.5 secs

     total energy              =    -399.01999992 Ry
     estimated scf accuracy    <       0.00005297 Ry

     iteration #  6     ecut=    30.00 Ry     beta= 0.70
     Davidson diagonalization with overlap

---- Real-time Memory Report at c_bands before calling an iterative solver
           204 MiB given to the printing process from OS
             0 MiB allocation reported by mallinfo(arena+hblkhd)
         95933 MiB available memory on the node where the printing process lives
------------------
     ethr =  1.02E-07,  avg # of iterations =  3.7

     total cpu time spent up to now is        9.8 secs

     total energy              =    -399.02001604 Ry
     estimated scf accuracy    <       0.00000451 Ry

     iteration #  7     ecut=    30.00 Ry     beta= 0.70
     Davidson diagonalization with overlap

---- Real-time Memory Report at c_bands before calling an iterative solver
           204 MiB given to the printing process from OS
             0 MiB allocation reported by mallinfo(arena+hblkhd)
         95937 MiB available memory on the node where the printing process lives
------------------
     ethr =  8.67E-09,  avg # of iterations =  2.0

     total cpu time spent up to now is       11.3 secs

     End of self-consistent calculation

          k = 0.0000 0.0000 0.0000 (  2103 PWs)   bands (ev):

   -94.5919 -94.5788 -25.0101 -18.8166 -18.7406 -17.3433 -15.4563 -15.4554
    -8.5488  -8.4354  -8.4354  -4.5734  -4.1060  -4.1058  -2.6749  -1.1498
    -1.0331  -0.4498  -0.4496  -0.1983   0.0823   0.0824   0.8601   0.8603
     1.4900   1.4906   7.5414   9.5409  11.3404  11.8827  12.2086  12.2086
    13.4218  13.4218  13.9004  14.5045  14.5045  15.5600  15.5600  15.9751
    16.8621  17.0794  17.0795  17.9786  18.8412  18.9599  18.9599  20.7791
    20.7792  20.9182  21.5885  22.6460  22.6461  22.8247  22.8935  22.8935
    24.0872  24.0873  24.8000  25.9044  25.9044  27.1021  27.7330  28.3416

     occupation numbers 
     1.0000   1.0000   1.0000   1.0000   1.0000   1.0000   1.0000   1.0000
     1.0000   1.0000   1.0000   1.0000   1.0000   1.0000   1.0000   1.0000
     1.0000   1.0000   1.0000   1.0000   1.0000   1.0000   1.0000   1.0000
     1.0000   1.0000   0.0000   0.0000   0.0000   0.0000   0.0000   0.0000
     0.0000   0.0000   0.0000   0.0000   0.0000   0.0000   0.0000   0.0000
     0.0000   0.0000   0.0000   0.0000   0.0000   0.0000   0.0000   0.0000
     0.0000   0.0000   0.0000   0.0000   0.0000   0.0000   0.0000   0.0000
     0.0000   0.0000   0.0000   0.0000   0.0000   0.0000   0.0000   0.0000

          k = 0.0000 0.0000 0.6143 (  2085 PWs)   bands (ev):

   -94.5859 -94.5800 -25.0012 -18.7942 -18.7521 -17.0437 -15.8296 -15.5925
    -8.5675  -8.4623  -8.4609  -4.7666  -3.7693  -2.8690  -2.3944  -1.5081
    -1.1872  -0.6654  -0.4836  -0.0428   0.0442   0.1576   0.3620   0.7042
     1.1325   1.2645   9.0461   9.2463  11.4999  11.5992  12.2836  12.3120
    12.5749  13.7348  14.0292  14.2085  14.7590  15.0007  15.9757  16.1601
    16.5640  16.8211  17.1177  17.5758  18.4583  18.7806  19.8088  20.1249
    20.5324  20.8417  21.3744  22.4096  22.7785  23.1387  23.3052  23.7112
    24.4118  24.8327  25.2463  25.8994  26.8289  27.0686  27.4286  27.8274

     occupation numbers 
     1.0000   1.0000   1.0000   1.0000   1.0000   1.0000   1.0000   1.0000
     1.0000   1.0000   1.0000   1.0000   1.0000   1.0000   1.0000   1.0000
     1.0000   1.0000   1.0000   1.0000   1.0000   1.0000   1.0000   1.0000
     1.0000   1.0000   0.0000   0.0000   0.0000   0.0000   0.0000   0.0000
     0.0000   0.0000   0.0000   0.0000   0.0000   0.0000   0.0000   0.0000
     0.0000   0.0000   0.0000   0.0000   0.0000   0.0000   0.0000   0.0000
     0.0000   0.0000   0.0000   0.0000   0.0000   0.0000   0.0000   0.0000
     0.0000   0.0000   0.0000   0.0000   0.0000   0.0000   0.0000   0.0000

          k = 0.0000 0.5507-0.2723 (  2085 PWs)   bands (ev):

   -94.5859 -94.5800 -25.0012 -18.7942 -18.7521 -17.0436 -15.8303 -15.5919
    -8.5675  -8.4623  -8.4609  -4.7663  -3.7696  -2.8693  -2.3944  -1.5080
    -1.1873  -0.6653  -0.4836  -0.0424   0.0439   0.1576   0.3620   0.7040
     1.1322   1.2647   9.0461   9.2463  11.4999  11.5992  12.2836  12.3120
    12.5749  13.7348  14.0291  14.2085  14.7590  15.0006  15.9758  16.1601
    16.5641  16.8210  17.1178  17.5757  18.4583  18.7806  19.8087  20.1250
    20.5323  20.8417  21.3743  22.4097  22.7785  23.1387  23.3052  23.7113
    24.4118  24.8327  25.2463  25.8994  26.8289  27.0686  27.4286  27.8274

     occupation numbers 
     1.0000   1.0000   1.0000   1.0000   1.0000   1.0000   1.0000   1.0000
     1.0000   1.0000   1.0000   1.0000   1.0000   1.0000   1.0000   1.0000
     1.0000   1.0000   1.0000   1.0000   1.0000   1.0000   1.0000   1.0000
     1.0000   1.0000   0.0000   0.0000   0.0000   0.0000   0.0000   0.0000
     0.0000   0.0000   0.0000   0.0000   0.0000   0.0000   0.0000   0.0000
     0.0000   0.0000   0.0000   0.0000   0.0000   0.0000   0.0000   0.0000
     0.0000   0.0000   0.0000   0.0000   0.0000   0.0000   0.0000   0.0000
     0.0000   0.0000   0.0000   0.0000   0.0000   0.0000   0.0000   0.0000

          k = 0.0000 0.5507 0.3420 (  2084 PWs)   bands (ev):

   -94.5852 -94.5806 -25.0012 -18.7954 -18.7509 -17.0436 -15.8307 -15.5920
    -8.5655  -8.4630  -8.4601  -4.7643  -3.7732  -2.8713  -2.3651  -1.4552
    -1.1519  -0.7417  -0.5536  -0.1235   0.0022   0.1414   0.4315   0.7166
     1.1791   1.2923   9.1800   9.3466  11.0660  11.5117  12.1953  12.6874
    12.9390  13.7046  13.8532  14.0456  14.6601  15.3137  15.7047  16.1521
    16.3776  16.9149  17.1144  17.4643  18.1546  19.5195  19.7425  20.3574
    20.4785  20.6911  21.7015  22.1275  22.4471  22.9400  23.5584  23.8897
    24.1571  25.2359  25.4812  25.7863  26.7304  27.0697  27.3720  27.6947

     occupation numbers 
     1.0000   1.0000   1.0000   1.0000   1.0000   1.0000   1.0000   1.0000
     1.0000   1.0000   1.0000   1.0000   1.0000   1.0000   1.0000   1.0000
     1.0000   1.0000   1.0000   1.0000   1.0000   1.0000   1.0000   1.0000
     1.0000   1.0000   0.0000   0.0000   0.0000   0.0000   0.0000   0.0000
     0.0000   0.0000   0.0000   0.0000   0.0000   0.0000   0.0000   0.0000
     0.0000   0.0000   0.0000   0.0000   0.0000   0.0000   0.0000   0.0000
     0.0000   0.0000   0.0000   0.0000   0.0000   0.0000   0.0000   0.0000
     0.0000   0.0000   0.0000   0.0000   0.0000   0.0000   0.0000   0.0000

          k = 0.0000 0.5507-0.8866 (  2078 PWs)   bands (ev):

   -94.5829 -94.5823 -24.9968 -18.7712 -18.7711 -16.8079 -15.8856 -15.8846
    -8.5707  -8.4779  -8.4766  -4.1896  -3.3929  -3.3850  -2.0481  -1.5748
    -1.5412  -0.9072  -0.8800   0.0016   0.1340   0.2034   0.5007   0.9987
     1.0432   1.1124   9.3256  10.1909  10.9945  11.8688  12.0690  12.1019
    12.6787  12.9597  13.7285  14.3553  14.4738  14.7763  15.2439  15.6629
    16.7352  17.0739  17.5783  17.8831  18.2482  20.1748  20.2059  20.2789
    20.8292  20.9323  21.3730  21.8088  22.7100  22.7431  23.6851  23.8893
    24.5897  25.1499  25.7784  26.4902  26.5243  26.8350  27.2543  27.6850

     occupation numbers 
     1.0000   1.0000   1.0000   1.0000   1.0000   1.0000   1.0000   1.0000
     1.0000   1.0000   1.0000   1.0000   1.0000   1.0000   1.0000   1.0000
     1.0000   1.0000   1.0000   1.0000   1.0000   1.0000   1.0000   1.0000
     1.0000   1.0000   0.0000   0.0000   0.0000   0.0000   0.0000   0.0000
     0.0000   0.0000   0.0000   0.0000   0.0000   0.0000   0.0000   0.0000
     0.0000   0.0000   0.0000   0.0000   0.0000   0.0000   0.0000   0.0000
     0.0000   0.0000   0.0000   0.0000   0.0000   0.0000   0.0000   0.0000
     0.0000   0.0000   0.0000   0.0000   0.0000   0.0000   0.0000   0.0000

          k = 0.3333-0.4383-0.2723 (  2085 PWs)   bands (ev):

   -94.5859 -94.5800 -25.0012 -18.7942 -18.7521 -17.0436 -15.8301 -15.5920
    -8.5675  -8.4623  -8.4609  -4.7663  -3.7695  -2.8693  -2.3944  -1.5080
    -1.1873  -0.6653  -0.4836  -0.0425   0.0440   0.1576   0.3620   0.7041
     1.1323   1.2647   9.0461   9.2463  11.4999  11.5992  12.2836  12.3120
    12.5749  13.7348  14.0291  14.2085  14.7590  15.0007  15.9758  16.1601
    16.5641  16.8210  17.1177  17.5758  18.4583  18.7806  19.8087  20.1249
    20.5323  20.8417  21.3743  22.4097  22.7785  23.1387  23.3052  23.7113
    24.4118  24.8327  25.2463  25.8994  26.8289  27.0687  27.4287  27.8274

     occupation numbers 
     1.0000   1.0000   1.0000   1.0000   1.0000   1.0000   1.0000   1.0000
     1.0000   1.0000   1.0000   1.0000   1.0000   1.0000   1.0000   1.0000
     1.0000   1.0000   1.0000   1.0000   1.0000   1.0000   1.0000   1.0000
     1.0000   1.0000   0.0000   0.0000   0.0000   0.0000   0.0000   0.0000
     0.0000   0.0000   0.0000   0.0000   0.0000   0.0000   0.0000   0.0000
     0.0000   0.0000   0.0000   0.0000   0.0000   0.0000   0.0000   0.0000
     0.0000   0.0000   0.0000   0.0000   0.0000   0.0000   0.0000   0.0000
     0.0000   0.0000   0.0000   0.0000   0.0000   0.0000   0.0000   0.0000

          k = 0.3333-0.4383 0.3420 (  2084 PWs)   bands (ev):

   -94.5852 -94.5806 -25.0012 -18.7954 -18.7509 -17.0436 -15.8308 -15.5918
    -8.5655  -8.4630  -8.4601  -4.7642  -3.7733  -2.8714  -2.3651  -1.4552
    -1.1519  -0.7417  -0.5536  -0.1235   0.0023   0.1414   0.4315   0.7166
     1.1791   1.2923   9.1800   9.3466  11.0660  11.5117  12.1953  12.6874
    12.9390  13.7046  13.8532  14.0456  14.6601  15.3137  15.7047  16.1521
    16.3776  16.9149  17.1144  17.4643  18.1545  19.5195  19.7425  20.3574
    20.4785  20.6911  21.7015  22.1275  22.4471  22.9400  23.5584  23.8897
    24.1571  25.2359  25.4812  25.7863  26.7303  27.0697  27.3721  27.6947

     occupation numbers 
     1.0000   1.0000   1.0000   1.0000   1.0000   1.0000   1.0000   1.0000
     1.0000   1.0000   1.0000   1.0000   1.0000   1.0000   1.0000   1.0000
     1.0000   1.0000   1.0000   1.0000   1.0000   1.0000   1.0000   1.0000
     1.0000   1.0000   0.0000   0.0000   0.0000   0.0000   0.0000   0.0000
     0.0000   0.0000   0.0000   0.0000   0.0000   0.0000   0.0000   0.0000
     0.0000   0.0000   0.0000   0.0000   0.0000   0.0000   0.0000   0.0000
     0.0000   0.0000   0.0000   0.0000   0.0000   0.0000   0.0000   0.0000
     0.0000   0.0000   0.0000   0.0000   0.0000   0.0000   0.0000   0.0000

          k = 0.3333-0.4383-0.8866 (  2078 PWs)   bands (ev):

   -94.5829 -94.5823 -24.9968 -18.7712 -18.7711 -16.8079 -15.8857 -15.8846
    -8.5707  -8.4779  -8.4766  -4.1896  -3.3929  -3.3850  -2.0481  -1.5748
    -1.5412  -0.9072  -0.8800   0.0016   0.1340   0.2034   0.5007   0.9988
     1.0431   1.1125   9.3256  10.1909  10.9945  11.8688  12.0690  12.1019
    12.6787  12.9597  13.7285  14.3554  14.4738  14.7764  15.2439  15.6629
    16.7352  17.0739  17.5783  17.8831  18.2482  20.1748  20.2059  20.2789
    20.8292  20.9323  21.3730  21.8088  22.7100  22.7431  23.6851  23.8893
    24.5897  25.1499  25.7784  26.4902  26.5243  26.8350  27.2542  27.6849

     occupation numbers 
     1.0000   1.0000   1.0000   1.0000   1.0000   1.0000   1.0000   1.0000
     1.0000   1.0000   1.0000   1.0000   1.0000   1.0000   1.0000   1.0000
     1.0000   1.0000   1.0000   1.0000   1.0000   1.0000   1.0000   1.0000
     1.0000   1.0000   0.0000   0.0000   0.0000   0.0000   0.0000   0.0000
     0.0000   0.0000   0.0000   0.0000   0.0000   0.0000   0.0000   0.0000
     0.0000   0.0000   0.0000   0.0000   0.0000   0.0000   0.0000   0.0000
     0.0000   0.0000   0.0000   0.0000   0.0000   0.0000   0.0000   0.0000
     0.0000   0.0000   0.0000   0.0000   0.0000   0.0000   0.0000   0.0000

          k = 0.3333 0.1123-0.5445 (  2084 PWs)   bands (ev):

   -94.5852 -94.5806 -25.0012 -18.7954 -18.7509 -17.0437 -15.8302 -15.5924
    -8.5655  -8.4630  -8.4600  -4.7645  -3.7730  -2.8710  -2.3651  -1.4553
    -1.1517  -0.7419  -0.5536  -0.1234   0.0019   0.1414   0.4314   0.7168
     1.1794   1.2920   9.1800   9.3466  11.0660  11.5117  12.1954  12.6875
    12.9389  13.7046  13.8533  14.0455  14.6601  15.3138  15.7046  16.1520
    16.3777  16.9150  17.1143  17.4643  18.1546  19.5195  19.7425  20.3575
    20.4784  20.6910  21.7015  22.1275  22.4471  22.9401  23.5584  23.8897
    24.1571  25.2359  25.4813  25.7863  26.7303  27.0697  27.3721  27.6946

     occupation numbers 
     1.0000   1.0000   1.0000   1.0000   1.0000   1.0000   1.0000   1.0000
     1.0000   1.0000   1.0000   1.0000   1.0000   1.0000   1.0000   1.0000
     1.0000   1.0000   1.0000   1.0000   1.0000   1.0000   1.0000   1.0000
     1.0000   1.0000   0.0000   0.0000   0.0000   0.0000   0.0000   0.0000
     0.0000   0.0000   0.0000   0.0000   0.0000   0.0000   0.0000   0.0000
     0.0000   0.0000   0.0000   0.0000   0.0000   0.0000   0.0000   0.0000
     0.0000   0.0000   0.0000   0.0000   0.0000   0.0000   0.0000   0.0000
     0.0000   0.0000   0.0000   0.0000   0.0000   0.0000   0.0000   0.0000

          k = 0.3333 0.1123 0.0698 (  2104 PWs)   bands (ev):

   -94.5907 -94.5802 -25.0100 -18.8003 -18.7584 -17.3422 -15.4564 -15.4555
    -8.5431  -8.4360  -8.4356  -4.5749  -4.1064  -4.1043  -2.6868  -1.0620
    -0.9593  -0.5567  -0.4904  -0.4153   0.1277   0.3035   0.7484   0.8431
     1.4761   1.5029   8.2559   9.5018  10.1084  12.0685  12.1105  12.3086
    13.3850  13.4592  14.0609  14.3788  14.5104  15.7628  15.8779  16.0350
    17.1299  17.2280  17.4573  17.9148  18.4206  18.9730  19.0502  20.0237
    20.2294  20.9888  22.2271  22.5531  22.6503  22.7136  22.7474  22.8236
    24.3796  25.0781  25.2381  25.3463  26.0512  26.5551  27.2385  27.6973

     occupation numbers 
     1.0000   1.0000   1.0000   1.0000   1.0000   1.0000   1.0000   1.0000
     1.0000   1.0000   1.0000   1.0000   1.0000   1.0000   1.0000   1.0000
     1.0000   1.0000   1.0000   1.0000   1.0000   1.0000   1.0000   1.0000
     1.0000   1.0000   0.0000   0.0000   0.0000   0.0000   0.0000   0.0000
     0.0000   0.0000   0.0000   0.0000   0.0000   0.0000   0.0000   0.0000
     0.0000   0.0000   0.0000   0.0000   0.0000   0.0000   0.0000   0.0000
     0.0000   0.0000   0.0000   0.0000   0.0000   0.0000   0.0000   0.0000
     0.0000   0.0000   0.0000   0.0000   0.0000   0.0000   0.0000   0.0000

          k = 0.3333 0.1123-1.1588 (  2076 PWs)   bands (ev):

   -94.5832 -94.5800 -25.0012 -18.7776 -18.7689 -17.0438 -15.8295 -15.5923
    -8.5631  -8.4625  -8.4600  -4.7614  -3.7771  -2.8658  -2.3454  -1.4301
    -1.2559  -0.7074  -0.5726  -0.1043   0.0290   0.2091   0.4345   0.6877
     1.1473   1.2892   9.3224   9.7053  10.3827  11.8050  11.9770  12.5664
    12.7239  13.7358  13.8507  14.3015  15.0603  15.2291  15.6626  16.2209
    16.4943  16.6823  17.3697  17.5162  18.0931  18.9882  19.8576  20.4439
    20.6893  20.9532  21.5221  21.9751  22.2263  23.2103  23.3581  23.7540
    24.0932  24.6628  25.7293  26.1693  26.5016  27.2577  27.8560  28.0713

     occupation numbers 
     1.0000   1.0000   1.0000   1.0000   1.0000   1.0000   1.0000   1.0000
     1.0000   1.0000   1.0000   1.0000   1.0000   1.0000   1.0000   1.0000
     1.0000   1.0000   1.0000   1.0000   1.0000   1.0000   1.0000   1.0000
     1.0000   1.0000   0.0000   0.0000   0.0000   0.0000   0.0000   0.0000
     0.0000   0.0000   0.0000   0.0000   0.0000   0.0000   0.0000   0.0000
     0.0000   0.0000   0.0000   0.0000   0.0000   0.0000   0.0000   0.0000
     0.0000   0.0000   0.0000   0.0000   0.0000   0.0000   0.0000   0.0000
     0.0000   0.0000   0.0000   0.0000   0.0000   0.0000   0.0000   0.0000

          k = 0.3333-0.9890 0.0000 (  2078 PWs)   bands (ev):

   -94.5829 -94.5823 -24.9968 -18.7712 -18.7711 -16.8079 -15.8854 -15.8849
    -8.5707  -8.4779  -8.4766  -4.1896  -3.3930  -3.3848  -2.0480  -1.5747
    -1.5413  -0.9071  -0.8801   0.0017   0.1340   0.2033   0.5007   0.9987
     1.0436   1.1121   9.3256  10.1909  10.9945  11.8688  12.0690  12.1019
    12.6786  12.9598  13.7285  14.3553  14.4738  14.7763  15.2439  15.6629
    16.7352  17.0740  17.5783  17.8832  18.2481  20.1747  20.2059  20.2790
    20.8293  20.9323  21.3729  21.8088  22.7099  22.7431  23.6851  23.8893
    24.5897  25.1499  25.7784  26.4902  26.5243  26.8350  27.2542  27.6849

     occupation numbers 
     1.0000   1.0000   1.0000   1.0000   1.0000   1.0000   1.0000   1.0000
     1.0000   1.0000   1.0000   1.0000   1.0000   1.0000   1.0000   1.0000
     1.0000   1.0000   1.0000   1.0000   1.0000   1.0000   1.0000   1.0000
     1.0000   1.0000   0.0000   0.0000   0.0000   0.0000   0.0000   0.0000
     0.0000   0.0000   0.0000   0.0000   0.0000   0.0000   0.0000   0.0000
     0.0000   0.0000   0.0000   0.0000   0.0000   0.0000   0.0000   0.0000
     0.0000   0.0000   0.0000   0.0000   0.0000   0.0000   0.0000   0.0000
     0.0000   0.0000   0.0000   0.0000   0.0000   0.0000   0.0000   0.0000

          k = 0.3333-0.9890 0.6143 (  2076 PWs)   bands (ev):

   -94.5832 -94.5800 -25.0012 -18.7776 -18.7689 -17.0438 -15.8301 -15.5918
    -8.5631  -8.4625  -8.4600  -4.7611  -3.7774  -2.8662  -2.3454  -1.4299
    -1.2561  -0.7074  -0.5726  -0.1039   0.0290   0.2090   0.4345   0.6876
     1.1470   1.2895   9.3225   9.7053  10.3827  11.8049  11.9771  12.5663
    12.7239  13.7358  13.8507  14.3015  15.0603  15.2291  15.6626  16.2209
    16.4944  16.6824  17.3697  17.5162  18.0932  18.9882  19.8574  20.4439
    20.6893  20.9532  21.5221  21.9751  22.2263  23.2103  23.3581  23.7540
    24.0932  24.6628  25.7293  26.1693  26.5016  27.2577  27.8559  28.0713

     occupation numbers 
     1.0000   1.0000   1.0000   1.0000   1.0000   1.0000   1.0000   1.0000
     1.0000   1.0000   1.0000   1.0000   1.0000   1.0000   1.0000   1.0000
     1.0000   1.0000   1.0000   1.0000   1.0000   1.0000   1.0000   1.0000
     1.0000   1.0000   0.0000   0.0000   0.0000   0.0000   0.0000   0.0000
     0.0000   0.0000   0.0000   0.0000   0.0000   0.0000   0.0000   0.0000
     0.0000   0.0000   0.0000   0.0000   0.0000   0.0000   0.0000   0.0000
     0.0000   0.0000   0.0000   0.0000   0.0000   0.0000   0.0000   0.0000
     0.0000   0.0000   0.0000   0.0000   0.0000   0.0000   0.0000   0.0000

          k = 0.3333-0.9890-0.6143 (  2076 PWs)   bands (ev):

   -94.5832 -94.5800 -25.0012 -18.7776 -18.7689 -17.0438 -15.8300 -15.5919
    -8.5631  -8.4625  -8.4600  -4.7611  -3.7773  -2.8661  -2.3454  -1.4299
    -1.2560  -0.7074  -0.5726  -0.1040   0.0290   0.2090   0.4345   0.6876
     1.1471   1.2894   9.3225   9.7053  10.3827  11.8050  11.9771  12.5663
    12.7239  13.7358  13.8507  14.3015  15.0603  15.2291  15.6626  16.2209
    16.4944  16.6824  17.3697  17.5162  18.0932  18.9882  19.8575  20.4439
    20.6893  20.9532  21.5221  21.9751  22.2263  23.2103  23.3581  23.7540
    24.0932  24.6628  25.7293  26.1693  26.5016  27.2577  27.8560  28.0710

     occupation numbers 
     1.0000   1.0000   1.0000   1.0000   1.0000   1.0000   1.0000   1.0000
     1.0000   1.0000   1.0000   1.0000   1.0000   1.0000   1.0000   1.0000
     1.0000   1.0000   1.0000   1.0000   1.0000   1.0000   1.0000   1.0000
     1.0000   1.0000   0.0000   0.0000   0.0000   0.0000   0.0000   0.0000
     0.0000   0.0000   0.0000   0.0000   0.0000   0.0000   0.0000   0.0000
     0.0000   0.0000   0.0000   0.0000   0.0000   0.0000   0.0000   0.0000
     0.0000   0.0000   0.0000   0.0000   0.0000   0.0000   0.0000   0.0000
     0.0000   0.0000   0.0000   0.0000   0.0000   0.0000   0.0000   0.0000

     highest occupied, lowest unoccupied level (ev):     1.5029    7.5414

!    total energy              =    -399.02001710 Ry
     estimated scf accuracy    <       0.00000022 Ry

     The total energy is the sum of the following terms:
     one-electron contribution =    -191.60089625 Ry
     hartree contribution      =     111.86798975 Ry
     xc contribution           =     -65.97520718 Ry
     ewald contribution        =    -169.38082078 Ry
     one-center paw contrib.   =     -83.93108265 Ry
      -> PAW hartree energy AE =      37.67683710 Ry
      -> PAW hartree energy PS =     -37.46665130 Ry
      -> PAW xc energy AE      =     -66.21594345 Ry
      -> PAW xc energy PS      =      10.58860327 Ry
      -> total E_H with PAW    =     112.07817555 Ry
      -> total E_XC with PAW   =    -121.60254736 Ry

     convergence has been achieved in   7 iterations

     Writing all to output data dir calculations_bands/myprefix.save/
 
     init_run     :      7.87s CPU      2.61s WALL (       1 calls)
     electrons    :     32.13s CPU      8.45s WALL (       1 calls)

     Called by init_run:
     wfcinit      :      0.94s CPU      0.24s WALL (       1 calls)
     wfcinit:atom :      0.00s CPU      0.00s WALL (       7 calls)
     wfcinit:wfcr :      0.91s CPU      0.23s WALL (       7 calls)
     potinit      :      2.39s CPU      0.71s WALL (       1 calls)
     hinit0       :      3.54s CPU      1.35s WALL (       1 calls)

     Called by electrons:
     c_bands      :     22.53s CPU      5.84s WALL (       7 calls)
     sum_band     :      4.94s CPU      1.33s WALL (       7 calls)
     v_of_rho     :      0.94s CPU      0.26s WALL (       8 calls)
     v_h          :      0.04s CPU      0.01s WALL (       8 calls)
     v_xc         :      0.90s CPU      0.25s WALL (       8 calls)
     newd         :      1.39s CPU      0.40s WALL (       8 calls)
     PAW_pot      :      2.55s CPU      0.68s WALL (       8 calls)
     mix_rho      :      0.11s CPU      0.03s WALL (       7 calls)

     Called by c_bands:
     init_us_2    :      0.08s CPU      0.02s WALL (     105 calls)
     init_us_2:cp :      0.08s CPU      0.02s WALL (     105 calls)
     cegterg      :     19.57s CPU      5.06s WALL (      49 calls)

     Called by sum_band:
     sum_band:wei :      0.01s CPU      0.00s WALL (       7 calls)
     sum_band:loo :      3.31s CPU      0.86s WALL (       7 calls)
     sum_band:buf :      0.02s CPU      0.00s WALL (      49 calls)
     sum_band:ini :      0.04s CPU      0.01s WALL (      49 calls)
     sum_band:cal :      0.11s CPU      0.03s WALL (      49 calls)
     sum_band:bec :      0.01s CPU      0.00s WALL (      49 calls)
     addusdens    :      0.51s CPU      0.17s WALL (       7 calls)
     addusd:skk   :      0.00s CPU      0.00s WALL (      35 calls)
     addusd:dgemm :      0.09s CPU      0.06s WALL (      35 calls)
     addusd:qvan2 :      0.30s CPU      0.08s WALL (      35 calls)

     Called by *egterg:
     cdiaghg      :      3.28s CPU      0.86s WALL (     205 calls)
     cegterg:over :      0.57s CPU      0.15s WALL (     156 calls)
     cegterg:upda :      0.28s CPU      0.07s WALL (     156 calls)
     cegterg:last :      0.52s CPU      0.13s WALL (     112 calls)
     cdiaghg:chol :      0.23s CPU      0.06s WALL (     205 calls)
     cdiaghg:inve :      0.04s CPU      0.01s WALL (     205 calls)
     cdiaghg:para :      0.51s CPU      0.14s WALL (     410 calls)
     h_psi        :     15.38s CPU      3.97s WALL (     212 calls)
     s_psi        :      0.10s CPU      0.02s WALL (     212 calls)
     g_psi        :      0.01s CPU      0.00s WALL (     156 calls)

     Called by h_psi:
     h_psi:calbec :      0.32s CPU      0.08s WALL (     212 calls)
     vloc_psi     :     14.91s CPU      3.85s WALL (     212 calls)
     add_vuspsi   :      0.12s CPU      0.03s WALL (     212 calls)

     General routines
     calbec       :      0.43s CPU      0.11s WALL (     261 calls)
     fft          :      2.59s CPU      0.84s WALL (     102 calls)
     ffts         :      0.46s CPU      0.12s WALL (      15 calls)
     fftw         :     16.55s CPU      4.28s WALL (   19560 calls)
     interpolate  :      0.50s CPU      0.13s WALL (       8 calls)
 
     Parallel routines

     PAW routines
     PAW_pot      :      2.55s CPU      0.68s WALL (       8 calls)
 
     PWSCF        :     41.42s CPU     11.76s WALL

 
   This run was terminated on:  19: 9:30   5Jun2023            

=------------------------------------------------------------------------------=
   JOB DONE.
=------------------------------------------------------------------------------=
