
     Program PWSCF v.7.1 starts on 15Jul2023 at 14:21:57 

     This program is part of the open-source Quantum ESPRESSO suite
     for quantum simulation of materials; please cite
         "P. Giannozzi et al., J. Phys.:Condens. Matter 21 395502 (2009);
         "P. Giannozzi et al., J. Phys.:Condens. Matter 29 465901 (2017);
         "P. Giannozzi et al., J. Chem. Phys. 152 154105 (2020);
          URL http://www.quantum-espresso.org", 
     in publications or presentations arising from this work. More details at
     http://www.quantum-espresso.org/quote

     Parallel version (MPI & OpenMP), running on      32 processor cores
     Number of MPI processes:                 8
     Threads/MPI process:                     4

     MPI processes distributed on     1 nodes
     200744 MiB available memory on the printing compute node when the environment starts
 
     Reading input from espresso_11604.pwi
Warning: card &CELL ignored
Warning: card / ignored

     Current dimensions of program PWSCF are:
     Max number of different atomic species (ntypx) = 10
     Max number of k-points (npk) =  40000
     Max angular momentum in pseudopotentials (lmaxx) =  4
     file Eu.paw.z_17.atompaw.wentzcovitch.v1.2.upf: wavefunction(s)  6S 0P 5D 0D 4F 0F renormalized
     Message from routine setup:
     the system is metallic, specify occupations
     Message from routine setup:
     using ibrav=0 with symmetry is DISCOURAGED, use correct ibrav instead
 
     K-points division:     npool     =       2
     R & G space division:  proc/nbgrp/npool/nimage =       4
     Subspace diagonalization in iterative solution of the eigenvalue problem:
     a serial algorithm will be used

 
     Parallelization info
     --------------------
     sticks:   dense  smooth     PW     G-vecs:    dense   smooth      PW
     Min         663     334     94                21667     7683    1163
     Max         664     335     95                21668     7684    1165
     Sum        2655    1339    379                86671    30733    4657
 
     Using Slab Decomposition
 


     bravais-lattice index     =            0
     lattice parameter (alat)  =      12.1484  a.u.
     unit-cell volume          =    1380.1493 (a.u.)^3
     number of atoms/cell      =            8
     number of atomic types    =            4
     number of electrons       =        73.00 (up:  40.00, down:  33.00)
     number of Kohn-Sham states=           64
     kinetic-energy cutoff     =      30.0000  Ry
     charge density cutoff     =     240.0000  Ry
     scf convergence threshold =      1.0E-06
     mixing beta               =       0.7000
     number of iterations used =            8  plain     mixing
     Exchange-correlation= SLA  PW   PBE  PBE
                           (   1   4   3   4   0   0   0)

     celldm(1)=  12.148440  celldm(2)=   0.000000  celldm(3)=   0.000000
     celldm(4)=   0.000000  celldm(5)=   0.000000  celldm(6)=   0.000000

     crystal axes: (cart. coord. in units of alat)
               a(1) = (   1.000000   0.000000   0.000000 )  
               a(2) = (  -0.327246   0.944939   0.000000 )  
               a(3) = (  -0.336377  -0.472470   0.814631 )  

     reciprocal axes: (cart. coord. in units 2 pi/alat)
               b(1) = (  1.000000  0.346314  0.613775 )  
               b(2) = (  0.000000  1.058269  0.613775 )  
               b(3) = (  0.000000  0.000000  1.227550 )  


     PseudoPot. # 1 for Na read from file:
     /lustre07/scratch/pragov/crystal_structure_design/utils/SSSP/na_pbe_v1.5.uspp.F.UPF
     MD5 check sum: 44600605ef58000f06b90626533354dc
     Pseudo is Ultrasoft, Zval =  9.0
     Generated by new atomic code, or converted to UPF format
     Using radial grid of  819 points,  5 beta functions with: 
                l(1) =   0
                l(2) =   0
                l(3) =   1
                l(4) =   1
                l(5) =   2
     Q(r) pseudized with  8 coefficients,  rinner =    1.250   1.250   1.250
                                                       1.250   1.250

     PseudoPot. # 2 for Eu read from file:
     /lustre07/scratch/pragov/crystal_structure_design/utils/SSSP/Eu.paw.z_17.atompaw.wentzcovitch.v1.2.upf
     MD5 check sum: 52b6e423bc4e840b6e0dc4248fa51623
     Pseudo is Projector augmented-wave + core cor, Zval = 17.0
     Generated using ATOMPAW code
     Shape of augmentation charge: BESSEL
     Using radial grid of 1109 points,  8 beta functions with: 
                l(1) =   0
                l(2) =   0
                l(3) =   1
                l(4) =   1
                l(5) =   2
                l(6) =   2
                l(7) =   3
                l(8) =   3
     Q(r) pseudized with 0 coefficients 


     PseudoPot. # 3 for Ge read from file:
     /lustre07/scratch/pragov/crystal_structure_design/utils/SSSP/ge_pbe_v1.4.uspp.F.UPF
     MD5 check sum: 9c9eaa91e581c3f09632fb3098b2c6b2
     Pseudo is Ultrasoft + core correction, Zval = 14.0
     Generated by new atomic code, or converted to UPF format
     Using radial grid of  873 points,  6 beta functions with: 
                l(1) =   0
                l(2) =   0
                l(3) =   1
                l(4) =   1
                l(5) =   2
                l(6) =   2
     Q(r) pseudized with  8 coefficients,  rinner =    1.400   1.400   1.400
                                                       1.400   1.400

     PseudoPot. # 4 for Se read from file:
     /lustre07/scratch/pragov/crystal_structure_design/utils/SSSP/Se_pbe_v1.uspp.F.UPF
     MD5 check sum: 1b3568f3a8ae88f9a2a0ad0698632c85
     Pseudo is Ultrasoft + core correction, Zval =  6.0
     Generated by new atomic code, or converted to UPF format
     Using radial grid of  877 points,  6 beta functions with: 
                l(1) =   0
                l(2) =   0
                l(3) =   1
                l(4) =   1
                l(5) =   2
                l(6) =   2
     Q(r) pseudized with  8 coefficients,  rinner =    1.300   1.300   1.300
                                                       1.300   1.300

     atomic species   valence    mass     pseudopotential
        Na             9.00    22.98977     Na( 1.00)
        Eu            17.00   151.96400     Eu( 1.00)
        Ge            14.00    72.63000     Ge( 1.00)
        Se             6.00    78.97100     Se( 1.00)

     Starting magnetic structure 
     atomic species   magnetization
        Na           0.000
        Eu           0.000
        Ge           0.000
        Se           0.000

      2 Sym. Ops. (no inversion) found


                                    s                        frac. trans.

      isym =  1     identity                                     

 cryst.   s( 1) = (     1          0          0      )
                  (     0          1          0      )
                  (     0          0          1      )

 cart.    s( 1) = (  1.0000000  0.0000000 -0.0000000 )
                  (  0.0000000  1.0000000  0.0000000 )
                  (  0.0000000  0.0000000  1.0000000 )


      isym =  2     inv. 180 deg rotation - cart. axis [0,0,1]   

 cryst.   s( 2) = (     1          0          0      )
                  (     0          1          0      )
                  (    -1         -1         -1      )

 cart.    s( 2) = (  1.0000000  0.0000000  0.0000000 )
                  (  0.0000000  1.0000000  0.0000000 )
                  (  0.0000000  0.0000000 -1.0000000 )


   Cartesian axes

     site n.     atom                  positions (alat units)
         1           Na  tau(   1) = (  -0.3318114   0.2362348   0.4073153  )
         2           Na  tau(   2) = (   0.3318114  -0.2362348   0.4073153  )
         3           Eu  tau(   3) = (   0.3363771   0.4724696   0.0000000  )
         4           Ge  tau(   4) = (   0.0000000   0.0000000   0.0000000  )
         5           Se  tau(   5) = (  -0.1242560  -0.1745279   0.3077601  )
         6           Se  tau(   6) = (   0.0477220   0.9409724   0.0000000  )
         7           Se  tau(   7) = (   0.8735449   0.3530236   0.0000000  )
         8           Se  tau(   8) = (   0.2121204   0.2979408   0.5068704  )

   Crystallographic axes

     site n.     atom                  positions (cryst. coord.)
         1           Na  tau(   1) = ( -0.0000000  0.5000000  0.5000000  )
         2           Na  tau(   2) = (  0.5000000 -0.0000000  0.5000000  )
         3           Eu  tau(   3) = (  0.5000000  0.5000000  0.0000000  )
         4           Ge  tau(   4) = (  0.0000000  0.0000000  0.0000000  )
         5           Se  tau(   5) = (  0.0041980  0.0041980  0.3777910  )
         6           Se  tau(   6) = (  0.3735940  0.9958020  0.0000000  )
         7           Se  tau(   7) = (  0.9958020  0.3735940  0.0000000  )
         8           Se  tau(   8) = (  0.6264060  0.6264060  0.6222090  )

     number of k points=    10
                       cart. coord. in units 2pi/alat
        k(    1) = (   0.0000000   0.0000000   0.0000000), wk =   0.0370370
        k(    2) = (   0.0000000   0.0000000   0.4091835), wk =   0.0740741
        k(    3) = (   0.0000000   0.3527564   0.2045917), wk =   0.1481481
        k(    4) = (   0.0000000   0.3527564   0.6137752), wk =   0.0740741
        k(    5) = (   0.3333333   0.1154380   0.2045917), wk =   0.1481481
        k(    6) = (   0.3333333   0.1154380   0.6137752), wk =   0.0740741
        k(    7) = (   0.3333333   0.4681944   0.4091835), wk =   0.1481481
        k(    8) = (   0.3333333   0.4681944   0.0000000), wk =   0.0740741
        k(    9) = (   0.3333333  -0.2373183  -0.0000000), wk =   0.0740741
        k(   10) = (   0.3333333  -0.2373183   0.4091835), wk =   0.1481481

                       cryst. coord.
        k(    1) = (   0.0000000   0.0000000   0.0000000), wk =   0.0370370
        k(    2) = (   0.0000000   0.0000000   0.3333333), wk =   0.0740741
        k(    3) = (   0.0000000   0.3333333   0.0000000), wk =   0.1481481
        k(    4) = (   0.0000000   0.3333333   0.3333333), wk =   0.0740741
        k(    5) = (   0.3333333   0.0000000  -0.0000000), wk =   0.1481481
        k(    6) = (   0.3333333   0.0000000   0.3333333), wk =   0.0740741
        k(    7) = (   0.3333333   0.3333333  -0.0000000), wk =   0.1481481
        k(    8) = (   0.3333333   0.3333333  -0.3333333), wk =   0.0740741
        k(    9) = (   0.3333333  -0.3333333  -0.0000000), wk =   0.0740741
        k(   10) = (   0.3333333  -0.3333333   0.3333333), wk =   0.1481481

     Dense  grid:    86671 G-vectors     FFT dimensions: (  60,  60,  60)

     Smooth grid:    30733 G-vectors     FFT dimensions: (  45,  45,  45)

     Dynamical RAM for                 wfc:       0.93 MB

     Dynamical RAM for     wfc (w. buffer):      10.28 MB

     Dynamical RAM for           str. fact:       1.32 MB

     Dynamical RAM for           local pot:       0.00 MB

     Dynamical RAM for          nlocal pot:       2.16 MB

     Dynamical RAM for                qrad:      11.94 MB

     Dynamical RAM for          rho,v,vnew:       4.46 MB

     Dynamical RAM for               rhoin:       1.49 MB

     Dynamical RAM for            rho*nmix:      10.58 MB

     Dynamical RAM for           G-vectors:       1.30 MB

     Dynamical RAM for          h,s,v(r/c):       0.75 MB

     Dynamical RAM for          <psi|beta>:       0.14 MB

     Dynamical RAM for                 psi:       1.87 MB

     Dynamical RAM for                hpsi:       1.87 MB

     Dynamical RAM for                spsi:       1.87 MB

     Dynamical RAM for      wfcinit/wfcrot:       2.06 MB

     Dynamical RAM for           addusdens:      92.91 MB

     Estimated static dynamical RAM per process >      37.07 MB

     Estimated max dynamical RAM per process >     140.56 MB

     Estimated total dynamical RAM >       1.06 GB
     Generating pointlists ...
     new r_m :   0.1942 (alat units)  2.3596 (a.u.) for type    1
     new r_m :   0.1972 (alat units)  2.3953 (a.u.) for type    2
     new r_m :   0.1547 (alat units)  1.8792 (a.u.) for type    3
     new r_m :   0.1547 (alat units)  1.8792 (a.u.) for type    4

     Initial potential from superposition of free atoms

     starting charge      72.9815, renormalised to      73.0000
     Starting wfcs are   67 randomized atomic wfcs
     Checking if some PAW data can be deallocated... 
       PAW data deallocated on    7 nodes for type:  2

     total cpu time spent up to now is        2.3 secs

     Self-consistent Calculation

     iteration #  1     ecut=    30.00 Ry     beta= 0.70
     Davidson diagonalization with overlap

---- Real-time Memory Report at c_bands before calling an iterative solver
           305 MiB given to the printing process from OS
             0 MiB allocation reported by mallinfo(arena+hblkhd)
        200169 MiB available memory on the node where the printing process lives
------------------
     ethr =  1.00E-02,  avg # of iterations =  6.5

     total cpu time spent up to now is        5.4 secs

     total energy              =   -1203.59602887 Ry
     estimated scf accuracy    <      15.34948747 Ry

     total magnetization       =     7.00 Bohr mag/cell
     absolute magnetization    =     7.00 Bohr mag/cell

     iteration #  2     ecut=    30.00 Ry     beta= 0.70
     Davidson diagonalization with overlap

---- Real-time Memory Report at c_bands before calling an iterative solver
           344 MiB given to the printing process from OS
             0 MiB allocation reported by mallinfo(arena+hblkhd)
        199754 MiB available memory on the node where the printing process lives
------------------
     ethr =  1.00E-02,  avg # of iterations =  5.4

     total cpu time spent up to now is        8.1 secs

     total energy              =   -1222.72391092 Ry
     estimated scf accuracy    <     155.10157143 Ry

     total magnetization       =     7.00 Bohr mag/cell
     absolute magnetization    =     7.00 Bohr mag/cell

     iteration #  3     ecut=    30.00 Ry     beta= 0.70
     Davidson diagonalization with overlap

---- Real-time Memory Report at c_bands before calling an iterative solver
           347 MiB given to the printing process from OS
             0 MiB allocation reported by mallinfo(arena+hblkhd)
        199713 MiB available memory on the node where the printing process lives
------------------
     ethr =  1.00E-02,  avg # of iterations =  3.0

     total cpu time spent up to now is       13.4 secs

     total energy              =   -1224.43682465 Ry
     estimated scf accuracy    <      39.70443012 Ry

     total magnetization       =     7.00 Bohr mag/cell
     absolute magnetization    =     7.00 Bohr mag/cell

     iteration #  4     ecut=    30.00 Ry     beta= 0.70
     Davidson diagonalization with overlap

---- Real-time Memory Report at c_bands before calling an iterative solver
           347 MiB given to the printing process from OS
             0 MiB allocation reported by mallinfo(arena+hblkhd)
        199546 MiB available memory on the node where the printing process lives
------------------
     ethr =  1.00E-02,  avg # of iterations =  2.0

     total cpu time spent up to now is       16.9 secs

     total energy              =   -1220.45401858 Ry
     estimated scf accuracy    <      29.78470856 Ry

     total magnetization       =     7.00 Bohr mag/cell
     absolute magnetization    =     7.00 Bohr mag/cell

     iteration #  5     ecut=    30.00 Ry     beta= 0.70
     Davidson diagonalization with overlap

---- Real-time Memory Report at c_bands before calling an iterative solver
           352 MiB given to the printing process from OS
             0 MiB allocation reported by mallinfo(arena+hblkhd)
        199534 MiB available memory on the node where the printing process lives
------------------
     ethr =  1.00E-02,  avg # of iterations =  3.0

     total cpu time spent up to now is       21.9 secs

     total energy              =   -1221.75674886 Ry
     estimated scf accuracy    <       0.98513530 Ry

     total magnetization       =     7.00 Bohr mag/cell
     absolute magnetization    =     7.01 Bohr mag/cell

     iteration #  6     ecut=    30.00 Ry     beta= 0.70
     Davidson diagonalization with overlap

---- Real-time Memory Report at c_bands before calling an iterative solver
           353 MiB given to the printing process from OS
             0 MiB allocation reported by mallinfo(arena+hblkhd)
        204145 MiB available memory on the node where the printing process lives
------------------
     ethr =  1.35E-03,  avg # of iterations =  1.8

     total cpu time spent up to now is       26.1 secs

     total energy              =   -1222.37359305 Ry
     estimated scf accuracy    <      17.67470157 Ry

     total magnetization       =     7.00 Bohr mag/cell
     absolute magnetization    =     7.00 Bohr mag/cell

     iteration #  7     ecut=    30.00 Ry     beta= 0.70
     Davidson diagonalization with overlap

---- Real-time Memory Report at c_bands before calling an iterative solver
           355 MiB given to the printing process from OS
             0 MiB allocation reported by mallinfo(arena+hblkhd)
        204154 MiB available memory on the node where the printing process lives
------------------
     ethr =  1.35E-03,  avg # of iterations =  1.0

     total cpu time spent up to now is       29.7 secs

     total energy              =   -1225.22719930 Ry
     estimated scf accuracy    <      17.70123970 Ry

     total magnetization       =     7.00 Bohr mag/cell
     absolute magnetization    =     7.00 Bohr mag/cell

     iteration #  8     ecut=    30.00 Ry     beta= 0.70
     Davidson diagonalization with overlap

---- Real-time Memory Report at c_bands before calling an iterative solver
           355 MiB given to the printing process from OS
             0 MiB allocation reported by mallinfo(arena+hblkhd)
        200066 MiB available memory on the node where the printing process lives
------------------
     ethr =  1.35E-03,  avg # of iterations =  5.2

     negative rho (up, down):  1.451E-01 0.000E+00

     total cpu time spent up to now is       35.3 secs

     total energy              =   -1228.23200744 Ry
     estimated scf accuracy    <      29.88652645 Ry

     total magnetization       =     7.00 Bohr mag/cell
     absolute magnetization    =     7.00 Bohr mag/cell

     iteration #  9     ecut=    30.00 Ry     beta= 0.70
     Davidson diagonalization with overlap

---- Real-time Memory Report at c_bands before calling an iterative solver
           355 MiB given to the printing process from OS
             0 MiB allocation reported by mallinfo(arena+hblkhd)
        200067 MiB available memory on the node where the printing process lives
------------------
     ethr =  1.35E-03,  avg # of iterations =  8.9

     negative rho (up, down):  1.570E-01 0.000E+00

     total cpu time spent up to now is       41.3 secs

     total energy              =   -1227.99506091 Ry
     estimated scf accuracy    <      34.09823199 Ry

     total magnetization       =     7.00 Bohr mag/cell
     absolute magnetization    =     7.00 Bohr mag/cell

     iteration # 10     ecut=    30.00 Ry     beta= 0.70
     Davidson diagonalization with overlap

---- Real-time Memory Report at c_bands before calling an iterative solver
           356 MiB given to the printing process from OS
             0 MiB allocation reported by mallinfo(arena+hblkhd)
        204166 MiB available memory on the node where the printing process lives
------------------
     ethr =  1.35E-03,  avg # of iterations =  1.0

     negative rho (up, down):  1.423E-01 0.000E+00

     total cpu time spent up to now is       45.4 secs

     total energy              =   -1226.50173171 Ry
     estimated scf accuracy    <      33.82743415 Ry

     total magnetization       =     7.00 Bohr mag/cell
     absolute magnetization    =     7.00 Bohr mag/cell

     iteration # 11     ecut=    30.00 Ry     beta= 0.70
     Davidson diagonalization with overlap

---- Real-time Memory Report at c_bands before calling an iterative solver
           356 MiB given to the printing process from OS
             0 MiB allocation reported by mallinfo(arena+hblkhd)
        202094 MiB available memory on the node where the printing process lives
------------------
     ethr =  1.35E-03,  avg # of iterations =  1.6

     negative rho (up, down):  8.348E-03 0.000E+00

     total cpu time spent up to now is       49.3 secs

     total energy              =   -1221.55244646 Ry
     estimated scf accuracy    <      31.43230079 Ry

     total magnetization       =     7.00 Bohr mag/cell
     absolute magnetization    =     7.00 Bohr mag/cell

     iteration # 12     ecut=    30.00 Ry     beta= 0.70
     Davidson diagonalization with overlap

---- Real-time Memory Report at c_bands before calling an iterative solver
           356 MiB given to the printing process from OS
             0 MiB allocation reported by mallinfo(arena+hblkhd)
        200994 MiB available memory on the node where the printing process lives
------------------
     ethr =  1.35E-03,  avg # of iterations =  5.0

     negative rho (up, down):  1.365E-02 0.000E+00

     total cpu time spent up to now is       55.3 secs

     total energy              =   -1222.25169817 Ry
     estimated scf accuracy    <       3.60307634 Ry

     total magnetization       =     7.00 Bohr mag/cell
     absolute magnetization    =     7.00 Bohr mag/cell

     iteration # 13     ecut=    30.00 Ry     beta= 0.70
     Davidson diagonalization with overlap

---- Real-time Memory Report at c_bands before calling an iterative solver
           356 MiB given to the printing process from OS
             0 MiB allocation reported by mallinfo(arena+hblkhd)
        200547 MiB available memory on the node where the printing process lives
------------------
     ethr =  1.35E-03,  avg # of iterations =  1.0

     negative rho (up, down):  3.072E-03 0.000E+00

     total cpu time spent up to now is       59.1 secs

     total energy              =   -1221.83071840 Ry
     estimated scf accuracy    <       8.37061940 Ry

     total magnetization       =     7.00 Bohr mag/cell
     absolute magnetization    =     7.00 Bohr mag/cell

     iteration # 14     ecut=    30.00 Ry     beta= 0.70
     Davidson diagonalization with overlap

---- Real-time Memory Report at c_bands before calling an iterative solver
           356 MiB given to the printing process from OS
             0 MiB allocation reported by mallinfo(arena+hblkhd)
        199884 MiB available memory on the node where the printing process lives
------------------
     ethr =  1.35E-03,  avg # of iterations =  1.5

     negative rho (up, down):  9.515E-03 0.000E+00

     total cpu time spent up to now is       62.2 secs

     total energy              =   -1220.99185331 Ry
     estimated scf accuracy    <       1.85801173 Ry

     total magnetization       =     7.00 Bohr mag/cell
     absolute magnetization    =     7.00 Bohr mag/cell

     iteration # 15     ecut=    30.00 Ry     beta= 0.70
     Davidson diagonalization with overlap

---- Real-time Memory Report at c_bands before calling an iterative solver
           356 MiB given to the printing process from OS
             0 MiB allocation reported by mallinfo(arena+hblkhd)
        199763 MiB available memory on the node where the printing process lives
------------------
     ethr =  1.35E-03,  avg # of iterations =  3.0

     total cpu time spent up to now is       65.8 secs

     total energy              =   -1221.34117056 Ry
     estimated scf accuracy    <      22.35824447 Ry

     total magnetization       =     7.00 Bohr mag/cell
     absolute magnetization    =     7.01 Bohr mag/cell

     iteration # 16     ecut=    30.00 Ry     beta= 0.70
     Davidson diagonalization with overlap

---- Real-time Memory Report at c_bands before calling an iterative solver
           356 MiB given to the printing process from OS
             0 MiB allocation reported by mallinfo(arena+hblkhd)
        199755 MiB available memory on the node where the printing process lives
------------------
     ethr =  1.35E-03,  avg # of iterations =  1.6

     total cpu time spent up to now is       68.9 secs

     total energy              =   -1221.53764223 Ry
     estimated scf accuracy    <       0.83290694 Ry

     total magnetization       =     7.00 Bohr mag/cell
     absolute magnetization    =     7.07 Bohr mag/cell

     iteration # 17     ecut=    30.00 Ry     beta= 0.70
     Davidson diagonalization with overlap

---- Real-time Memory Report at c_bands before calling an iterative solver
           356 MiB given to the printing process from OS
             0 MiB allocation reported by mallinfo(arena+hblkhd)
        199749 MiB available memory on the node where the printing process lives
------------------
     ethr =  1.14E-03,  avg # of iterations =  2.1

     total cpu time spent up to now is       72.3 secs

     total energy              =   -1221.73107850 Ry
     estimated scf accuracy    <       2.35438933 Ry

     total magnetization       =     7.00 Bohr mag/cell
     absolute magnetization    =     7.00 Bohr mag/cell

     iteration # 18     ecut=    30.00 Ry     beta= 0.70
     Davidson diagonalization with overlap

---- Real-time Memory Report at c_bands before calling an iterative solver
           356 MiB given to the printing process from OS
             0 MiB allocation reported by mallinfo(arena+hblkhd)
        199743 MiB available memory on the node where the printing process lives
------------------
     ethr =  1.14E-03,  avg # of iterations =  1.0

     total cpu time spent up to now is       75.3 secs

     total energy              =   -1221.85986074 Ry
     estimated scf accuracy    <       0.28969136 Ry

     total magnetization       =     7.00 Bohr mag/cell
     absolute magnetization    =     7.02 Bohr mag/cell

     iteration # 19     ecut=    30.00 Ry     beta= 0.70
     Davidson diagonalization with overlap

---- Real-time Memory Report at c_bands before calling an iterative solver
           356 MiB given to the printing process from OS
             0 MiB allocation reported by mallinfo(arena+hblkhd)
        199741 MiB available memory on the node where the printing process lives
------------------
     ethr =  3.97E-04,  avg # of iterations =  1.0

     total cpu time spent up to now is       78.3 secs

     total energy              =   -1221.89952911 Ry
     estimated scf accuracy    <       0.66815179 Ry

     total magnetization       =     7.00 Bohr mag/cell
     absolute magnetization    =     7.01 Bohr mag/cell

     iteration # 20     ecut=    30.00 Ry     beta= 0.70
     Davidson diagonalization with overlap

---- Real-time Memory Report at c_bands before calling an iterative solver
           356 MiB given to the printing process from OS
             0 MiB allocation reported by mallinfo(arena+hblkhd)
        199739 MiB available memory on the node where the printing process lives
------------------
     ethr =  3.97E-04,  avg # of iterations =  1.0

     total cpu time spent up to now is       81.4 secs

     total energy              =   -1221.66541143 Ry
     estimated scf accuracy    <       0.99365907 Ry

     total magnetization       =     7.00 Bohr mag/cell
     absolute magnetization    =     7.01 Bohr mag/cell

     iteration # 21     ecut=    30.00 Ry     beta= 0.70
     Davidson diagonalization with overlap

---- Real-time Memory Report at c_bands before calling an iterative solver
           356 MiB given to the printing process from OS
             0 MiB allocation reported by mallinfo(arena+hblkhd)
        199734 MiB available memory on the node where the printing process lives
------------------
     ethr =  3.97E-04,  avg # of iterations =  2.0

     total cpu time spent up to now is       84.7 secs

     total energy              =   -1221.84573267 Ry
     estimated scf accuracy    <       0.15654879 Ry

     total magnetization       =     7.00 Bohr mag/cell
     absolute magnetization    =     7.17 Bohr mag/cell

     iteration # 22     ecut=    30.00 Ry     beta= 0.70
     Davidson diagonalization with overlap

---- Real-time Memory Report at c_bands before calling an iterative solver
           356 MiB given to the printing process from OS
             0 MiB allocation reported by mallinfo(arena+hblkhd)
        199724 MiB available memory on the node where the printing process lives
------------------
     ethr =  2.14E-04,  avg # of iterations =  1.0

     total cpu time spent up to now is       87.7 secs

     total energy              =   -1221.86327792 Ry
     estimated scf accuracy    <       0.10597403 Ry

     total magnetization       =     7.00 Bohr mag/cell
     absolute magnetization    =     7.17 Bohr mag/cell

     iteration # 23     ecut=    30.00 Ry     beta= 0.70
     Davidson diagonalization with overlap

---- Real-time Memory Report at c_bands before calling an iterative solver
           356 MiB given to the printing process from OS
             0 MiB allocation reported by mallinfo(arena+hblkhd)
        199675 MiB available memory on the node where the printing process lives
------------------
     ethr =  1.45E-04,  avg # of iterations =  1.0

     total cpu time spent up to now is       91.2 secs

     total energy              =   -1221.87075104 Ry
     estimated scf accuracy    <       0.04606051 Ry

     total magnetization       =     7.00 Bohr mag/cell
     absolute magnetization    =     7.15 Bohr mag/cell

     iteration # 24     ecut=    30.00 Ry     beta= 0.70
     Davidson diagonalization with overlap

---- Real-time Memory Report at c_bands before calling an iterative solver
           356 MiB given to the printing process from OS
             0 MiB allocation reported by mallinfo(arena+hblkhd)
        199679 MiB available memory on the node where the printing process lives
------------------
     ethr =  6.31E-05,  avg # of iterations =  1.0

     total cpu time spent up to now is       94.3 secs

     total energy              =   -1221.87221709 Ry
     estimated scf accuracy    <       0.01993062 Ry

     total magnetization       =     7.00 Bohr mag/cell
     absolute magnetization    =     7.14 Bohr mag/cell

     iteration # 25     ecut=    30.00 Ry     beta= 0.70
     Davidson diagonalization with overlap

---- Real-time Memory Report at c_bands before calling an iterative solver
           356 MiB given to the printing process from OS
             0 MiB allocation reported by mallinfo(arena+hblkhd)
        199513 MiB available memory on the node where the printing process lives
------------------
     ethr =  2.73E-05,  avg # of iterations =  1.4

     total cpu time spent up to now is       97.5 secs

     total energy              =   -1221.87238051 Ry
     estimated scf accuracy    <       0.01206053 Ry

     total magnetization       =     7.00 Bohr mag/cell
     absolute magnetization    =     7.14 Bohr mag/cell

     iteration # 26     ecut=    30.00 Ry     beta= 0.70
     Davidson diagonalization with overlap

---- Real-time Memory Report at c_bands before calling an iterative solver
           356 MiB given to the printing process from OS
             0 MiB allocation reported by mallinfo(arena+hblkhd)
        199551 MiB available memory on the node where the printing process lives
------------------
     ethr =  1.65E-05,  avg # of iterations =  1.1

     total cpu time spent up to now is      100.5 secs

     total energy              =   -1221.87064608 Ry
     estimated scf accuracy    <       0.01265876 Ry

     total magnetization       =     7.00 Bohr mag/cell
     absolute magnetization    =     7.14 Bohr mag/cell

     iteration # 27     ecut=    30.00 Ry     beta= 0.70
     Davidson diagonalization with overlap

---- Real-time Memory Report at c_bands before calling an iterative solver
           356 MiB given to the printing process from OS
             0 MiB allocation reported by mallinfo(arena+hblkhd)
        199548 MiB available memory on the node where the printing process lives
------------------
     ethr =  1.65E-05,  avg # of iterations =  1.0

     total cpu time spent up to now is      103.6 secs

     total energy              =   -1221.87052766 Ry
     estimated scf accuracy    <       0.01121512 Ry

     total magnetization       =     7.00 Bohr mag/cell
     absolute magnetization    =     7.13 Bohr mag/cell

     iteration # 28     ecut=    30.00 Ry     beta= 0.70
     Davidson diagonalization with overlap

---- Real-time Memory Report at c_bands before calling an iterative solver
           356 MiB given to the printing process from OS
             0 MiB allocation reported by mallinfo(arena+hblkhd)
        199543 MiB available memory on the node where the printing process lives
------------------
     ethr =  1.54E-05,  avg # of iterations =  1.1

     total cpu time spent up to now is      106.6 secs

     total energy              =   -1221.86994084 Ry
     estimated scf accuracy    <       0.01097694 Ry

     total magnetization       =     7.00 Bohr mag/cell
     absolute magnetization    =     7.13 Bohr mag/cell

     iteration # 29     ecut=    30.00 Ry     beta= 0.70
     Davidson diagonalization with overlap

---- Real-time Memory Report at c_bands before calling an iterative solver
           356 MiB given to the printing process from OS
             0 MiB allocation reported by mallinfo(arena+hblkhd)
        204149 MiB available memory on the node where the printing process lives
------------------
     ethr =  1.50E-05,  avg # of iterations =  1.1

     total cpu time spent up to now is      109.6 secs

     total energy              =   -1221.86696270 Ry
     estimated scf accuracy    <       0.00869847 Ry

     total magnetization       =     7.00 Bohr mag/cell
     absolute magnetization    =     7.14 Bohr mag/cell

     iteration # 30     ecut=    30.00 Ry     beta= 0.70
     Davidson diagonalization with overlap

---- Real-time Memory Report at c_bands before calling an iterative solver
           356 MiB given to the printing process from OS
             0 MiB allocation reported by mallinfo(arena+hblkhd)
        201882 MiB available memory on the node where the printing process lives
------------------
     ethr =  1.19E-05,  avg # of iterations =  2.0

     total cpu time spent up to now is      112.9 secs

     total energy              =   -1221.86845690 Ry
     estimated scf accuracy    <       0.00163079 Ry

     total magnetization       =     7.00 Bohr mag/cell
     absolute magnetization    =     7.09 Bohr mag/cell

     iteration # 31     ecut=    30.00 Ry     beta= 0.70
     Davidson diagonalization with overlap

---- Real-time Memory Report at c_bands before calling an iterative solver
           356 MiB given to the printing process from OS
             0 MiB allocation reported by mallinfo(arena+hblkhd)
        200063 MiB available memory on the node where the printing process lives
------------------
     ethr =  2.23E-06,  avg # of iterations =  2.0

     total cpu time spent up to now is      116.1 secs

     total energy              =   -1221.86866546 Ry
     estimated scf accuracy    <       0.00002453 Ry

     total magnetization       =     7.00 Bohr mag/cell
     absolute magnetization    =     7.11 Bohr mag/cell

     iteration # 32     ecut=    30.00 Ry     beta= 0.70
     Davidson diagonalization with overlap

---- Real-time Memory Report at c_bands before calling an iterative solver
           356 MiB given to the printing process from OS
             0 MiB allocation reported by mallinfo(arena+hblkhd)
        200065 MiB available memory on the node where the printing process lives
------------------
     ethr =  3.36E-08,  avg # of iterations =  4.5

     total cpu time spent up to now is      119.7 secs

     total energy              =   -1221.86868871 Ry
     estimated scf accuracy    <       0.00001274 Ry

     total magnetization       =     7.00 Bohr mag/cell
     absolute magnetization    =     7.11 Bohr mag/cell

     iteration # 33     ecut=    30.00 Ry     beta= 0.70
     Davidson diagonalization with overlap

---- Real-time Memory Report at c_bands before calling an iterative solver
           356 MiB given to the printing process from OS
             0 MiB allocation reported by mallinfo(arena+hblkhd)
        200067 MiB available memory on the node where the printing process lives
------------------
     ethr =  1.75E-08,  avg # of iterations =  1.5
 
     Magnetic moment per site  (integrated on atomic sphere of radius R)
     atom   1 (R=0.194)  charge=  8.2138  magn=  0.0029
     atom   2 (R=0.194)  charge=  8.2138  magn=  0.0029
     atom   3 (R=0.197)  charge= 14.7516  magn=  6.7921
     atom   4 (R=0.155)  charge= 11.6515  magn=  0.0184
     atom   5 (R=0.155)  charge=  3.4865  magn= -0.0070
     atom   6 (R=0.155)  charge=  3.4869  magn= -0.0070
     atom   7 (R=0.155)  charge=  3.4866  magn= -0.0071
     atom   8 (R=0.155)  charge=  3.4865  magn= -0.0070

     total cpu time spent up to now is      123.0 secs

     End of self-consistent calculation

 ------ SPIN UP ------------


          k = 0.0000 0.0000 0.0000 (  3845 PWs)   bands (ev):

   -45.8654 -45.8646 -34.7243 -19.0749 -19.0748 -19.0666 -19.0503 -19.0365
   -17.7981 -17.7981 -17.7840 -17.7609 -17.7508 -17.7508 -13.5878 -13.5863
   -13.5542  -7.5478  -6.0573  -6.0565  -6.0029  -1.5826   1.7113   1.7116
     1.7191   3.6461   3.6464   3.6927   4.2565   4.8003   5.0502   5.0504
     5.1244   6.9107   6.9126   6.9300   6.9363   6.9448   6.9567   6.9573
     7.0923   7.8459   9.3658   9.6376   9.7727   9.7735   9.9619  10.4058
    10.8538  10.9800  10.9802  12.2450  12.8424  12.8425  13.4087  13.4349
    14.2342  14.3384  14.3386  14.8129  14.9972  14.9975  15.6308  16.5355

     occupation numbers 
     1.0000   1.0000   1.0000   1.0000   1.0000   1.0000   1.0000   1.0000
     1.0000   1.0000   1.0000   1.0000   1.0000   1.0000   1.0000   1.0000
     1.0000   1.0000   1.0000   1.0000   1.0000   1.0000   1.0000   1.0000
     1.0000   1.0000   1.0000   1.0000   1.0000   1.0000   1.0000   1.0000
     1.0000   1.0000   1.0000   1.0000   1.0000   1.0000   1.0000   1.0000
     0.0000   0.0000   0.0000   0.0000   0.0000   0.0000   0.0000   0.0000
     0.0000   0.0000   0.0000   0.0000   0.0000   0.0000   0.0000   0.0000
     0.0000   0.0000   0.0000   0.0000   0.0000   0.0000   0.0000   0.0000

          k = 0.0000 0.0000 0.4092 (  3825 PWs)   bands (ev):

   -45.8650 -45.8648 -34.7243 -19.0731 -19.0719 -19.0682 -19.0494 -19.0378
   -17.7984 -17.7980 -17.7817 -17.7592 -17.7513 -17.7513 -13.5929 -13.5883
   -13.5572  -7.3601  -6.2175  -6.0699  -6.0665  -1.6093   1.6264   2.0488
     2.6631   3.1405   3.6741   3.6793   4.2117   4.3184   4.4952   4.7319
     5.1569   6.9013   6.9051   6.9280   6.9314   6.9351   6.9407   6.9818
     7.7382   8.3939   8.4352   9.4092   9.6264   9.7332  10.2434  10.5650
    10.6733  11.0492  11.4510  11.6824  12.6404  12.8426  13.0496  13.6205
    13.8983  14.8835  15.2114  15.4058  15.5753  15.7511  16.0112  16.3795

     occupation numbers 
     1.0000   1.0000   1.0000   1.0000   1.0000   1.0000   1.0000   1.0000
     1.0000   1.0000   1.0000   1.0000   1.0000   1.0000   1.0000   1.0000
     1.0000   1.0000   1.0000   1.0000   1.0000   1.0000   1.0000   1.0000
     1.0000   1.0000   1.0000   1.0000   1.0000   1.0000   1.0000   1.0000
     1.0000   1.0000   1.0000   1.0000   1.0000   1.0000   1.0000   1.0000
     0.0000   0.0000   0.0000   0.0000   0.0000   0.0000   0.0000   0.0000
     0.0000   0.0000   0.0000   0.0000   0.0000   0.0000   0.0000   0.0000
     0.0000   0.0000   0.0000   0.0000   0.0000   0.0000   0.0000   0.0000

          k = 0.0000 0.3528 0.2046 (  3821 PWs)   bands (ev):

   -45.8651 -45.8647 -34.7243 -19.0740 -19.0730 -19.0664 -19.0489 -19.0373
   -17.7982 -17.7975 -17.7761 -17.7658 -17.7513 -17.7504 -13.5913 -13.5894
   -13.5583  -7.3119  -6.2440  -6.1327  -6.0341  -1.6084   1.5899   2.1288
     2.5631   3.4051   3.5635   3.6954   3.9163   4.1537   4.7500   4.8194
     5.0924   6.8974   6.9033   6.9134   6.9166   6.9400   6.9474   6.9982
     7.7141   8.4608   8.9141   9.4111   9.5475   9.6460   9.9215  10.6303
    10.8921  11.2842  11.6826  11.8324  12.1089  12.5831  13.1927  13.7668
    13.9950  14.3439  14.8998  15.2940  15.3959  15.8221  16.0129  16.2568

     occupation numbers 
     1.0000   1.0000   1.0000   1.0000   1.0000   1.0000   1.0000   1.0000
     1.0000   1.0000   1.0000   1.0000   1.0000   1.0000   1.0000   1.0000
     1.0000   1.0000   1.0000   1.0000   1.0000   1.0000   1.0000   1.0000
     1.0000   1.0000   1.0000   1.0000   1.0000   1.0000   1.0000   1.0000
     1.0000   1.0000   1.0000   1.0000   1.0000   1.0000   1.0000   1.0000
     0.0000   0.0000   0.0000   0.0000   0.0000   0.0000   0.0000   0.0000
     0.0000   0.0000   0.0000   0.0000   0.0000   0.0000   0.0000   0.0000
     0.0000   0.0000   0.0000   0.0000   0.0000   0.0000   0.0000   0.0000

          k = 0.0000 0.3528 0.6138 (  3826 PWs)   bands (ev):

   -45.8650 -45.8647 -34.7243 -19.0730 -19.0727 -19.0667 -19.0498 -19.0378
   -17.7982 -17.7976 -17.7763 -17.7656 -17.7510 -17.7510 -13.5927 -13.5913
   -13.5600  -7.1862  -6.2584  -6.2298  -6.0787  -1.5934   1.8066   2.2799
     2.4683   3.2894   3.4182   3.9274   3.9854   4.4312   4.5213   4.5769
     4.8789   6.8890   6.9102   6.9136   6.9332   6.9335   6.9468   6.9648
     7.4224   8.5474   8.8434   9.3705   9.4025   9.6115  10.1021  10.8358
    10.9643  11.3417  11.3497  12.3102  12.4162  12.7257  12.9259  13.4579
    14.1832  14.3279  14.7303  15.2861  15.5271  15.8106  16.0891  16.4674

     occupation numbers 
     1.0000   1.0000   1.0000   1.0000   1.0000   1.0000   1.0000   1.0000
     1.0000   1.0000   1.0000   1.0000   1.0000   1.0000   1.0000   1.0000
     1.0000   1.0000   1.0000   1.0000   1.0000   1.0000   1.0000   1.0000
     1.0000   1.0000   1.0000   1.0000   1.0000   1.0000   1.0000   1.0000
     1.0000   1.0000   1.0000   1.0000   1.0000   1.0000   1.0000   1.0000
     0.0000   0.0000   0.0000   0.0000   0.0000   0.0000   0.0000   0.0000
     0.0000   0.0000   0.0000   0.0000   0.0000   0.0000   0.0000   0.0000
     0.0000   0.0000   0.0000   0.0000   0.0000   0.0000   0.0000   0.0000

          k = 0.3333 0.1154 0.2046 (  3821 PWs)   bands (ev):

   -45.8651 -45.8647 -34.7243 -19.0740 -19.0730 -19.0664 -19.0489 -19.0373
   -17.7982 -17.7975 -17.7761 -17.7658 -17.7513 -17.7504 -13.5913 -13.5894
   -13.5582  -7.3119  -6.2447  -6.1328  -6.0334  -1.6084   1.5901   2.1288
     2.5629   3.4052   3.5633   3.6956   3.9165   4.1535   4.7502   4.8191
     5.0921   6.8977   6.9029   6.9131   6.9167   6.9405   6.9472   6.9985
     7.7142   8.4608   8.9140   9.4112   9.5475   9.6459   9.9217  10.6304
    10.8922  11.2842  11.6826  11.8324  12.1090  12.5831  13.1928  13.7668
    13.9951  14.3438  14.8998  15.2939  15.3959  15.8220  16.0127  16.2567

     occupation numbers 
     1.0000   1.0000   1.0000   1.0000   1.0000   1.0000   1.0000   1.0000
     1.0000   1.0000   1.0000   1.0000   1.0000   1.0000   1.0000   1.0000
     1.0000   1.0000   1.0000   1.0000   1.0000   1.0000   1.0000   1.0000
     1.0000   1.0000   1.0000   1.0000   1.0000   1.0000   1.0000   1.0000
     1.0000   1.0000   1.0000   1.0000   1.0000   1.0000   1.0000   1.0000
     0.0000   0.0000   0.0000   0.0000   0.0000   0.0000   0.0000   0.0000
     0.0000   0.0000   0.0000   0.0000   0.0000   0.0000   0.0000   0.0000
     0.0000   0.0000   0.0000   0.0000   0.0000   0.0000   0.0000   0.0000

          k = 0.3333 0.1154 0.6138 (  3826 PWs)   bands (ev):

   -45.8650 -45.8647 -34.7243 -19.0730 -19.0727 -19.0667 -19.0498 -19.0378
   -17.7982 -17.7976 -17.7763 -17.7656 -17.7510 -17.7510 -13.5927 -13.5913
   -13.5599  -7.1861  -6.2594  -6.2298  -6.0778  -1.5934   1.8069   2.2796
     2.4683   3.2894   3.4181   3.9276   3.9855   4.4307   4.5218   4.5769
     4.8784   6.8892   6.9096   6.9134   6.9333   6.9336   6.9474   6.9647
     7.4225   8.5472   8.8436   9.3705   9.4029   9.6113  10.1023  10.8357
    10.9641  11.3418  11.3498  12.3103  12.4162  12.7257  12.9260  13.4580
    14.1831  14.3279  14.7304  15.2860  15.5270  15.8106  16.0894  16.4674

     occupation numbers 
     1.0000   1.0000   1.0000   1.0000   1.0000   1.0000   1.0000   1.0000
     1.0000   1.0000   1.0000   1.0000   1.0000   1.0000   1.0000   1.0000
     1.0000   1.0000   1.0000   1.0000   1.0000   1.0000   1.0000   1.0000
     1.0000   1.0000   1.0000   1.0000   1.0000   1.0000   1.0000   1.0000
     1.0000   1.0000   1.0000   1.0000   1.0000   1.0000   1.0000   1.0000
     0.0000   0.0000   0.0000   0.0000   0.0000   0.0000   0.0000   0.0000
     0.0000   0.0000   0.0000   0.0000   0.0000   0.0000   0.0000   0.0000
     0.0000   0.0000   0.0000   0.0000   0.0000   0.0000   0.0000   0.0000

          k = 0.3333 0.4682 0.4092 (  3826 PWs)   bands (ev):

   -45.8650 -45.8647 -34.7243 -19.0730 -19.0728 -19.0667 -19.0498 -19.0378
   -17.7982 -17.7976 -17.7763 -17.7656 -17.7510 -17.7510 -13.5941 -13.5899
   -13.5600  -7.1861  -6.2586  -6.2306  -6.0778  -1.5934   1.8068   2.2799
     2.4681   3.2894   3.4180   3.9278   3.9851   4.4313   4.5217   4.5766
     4.8786   6.8895   6.9096   6.9145   6.9322   6.9343   6.9464   6.9649
     7.4226   8.5470   8.8434   9.3704   9.4032   9.6117  10.1022  10.8353
    10.9646  11.3415  11.3498  12.3105  12.4161  12.7256  12.9262  13.4578
    14.1830  14.3279  14.7302  15.2861  15.5269  15.8106  16.0897  16.4684

     occupation numbers 
     1.0000   1.0000   1.0000   1.0000   1.0000   1.0000   1.0000   1.0000
     1.0000   1.0000   1.0000   1.0000   1.0000   1.0000   1.0000   1.0000
     1.0000   1.0000   1.0000   1.0000   1.0000   1.0000   1.0000   1.0000
     1.0000   1.0000   1.0000   1.0000   1.0000   1.0000   1.0000   1.0000
     1.0000   1.0000   1.0000   1.0000   1.0000   1.0000   1.0000   1.0000
     0.0000   0.0000   0.0000   0.0000   0.0000   0.0000   0.0000   0.0000
     0.0000   0.0000   0.0000   0.0000   0.0000   0.0000   0.0000   0.0000
     0.0000   0.0000   0.0000   0.0000   0.0000   0.0000   0.0000   0.0000

          k = 0.3333 0.4682 0.0000 (  3828 PWs)   bands (ev):

   -45.8649 -45.8648 -34.7243 -19.0734 -19.0733 -19.0661 -19.0501 -19.0372
   -17.7978 -17.7978 -17.7776 -17.7655 -17.7508 -17.7508 -13.5933 -13.5918
   -13.5618  -7.1220  -6.2088  -6.2079  -6.2032  -1.6390   2.3371   2.5480
     2.5483   2.6284   2.7725   3.8761   3.8765   3.9225   4.8863   4.8864
     5.4944   6.8532   6.9083   6.9116   6.9125   6.9352   6.9726   6.9741
     7.5303   8.5639   9.2015   9.2453   9.3053   9.3055  10.1919  10.9608
    10.9613  11.2860  12.0761  12.0764  12.4247  12.6536  12.8386  13.5677
    13.5679  13.9402  14.4892  14.9415  14.9419  15.3960  16.3224  17.3112

     occupation numbers 
     1.0000   1.0000   1.0000   1.0000   1.0000   1.0000   1.0000   1.0000
     1.0000   1.0000   1.0000   1.0000   1.0000   1.0000   1.0000   1.0000
     1.0000   1.0000   1.0000   1.0000   1.0000   1.0000   1.0000   1.0000
     1.0000   1.0000   1.0000   1.0000   1.0000   1.0000   1.0000   1.0000
     1.0000   1.0000   1.0000   1.0000   1.0000   1.0000   1.0000   1.0000
     0.0000   0.0000   0.0000   0.0000   0.0000   0.0000   0.0000   0.0000
     0.0000   0.0000   0.0000   0.0000   0.0000   0.0000   0.0000   0.0000
     0.0000   0.0000   0.0000   0.0000   0.0000   0.0000   0.0000   0.0000

          k = 0.3333-0.2373-0.0000 (  3825 PWs)   bands (ev):

   -45.8650 -45.8648 -34.7243 -19.0731 -19.0719 -19.0682 -19.0494 -19.0378
   -17.7984 -17.7980 -17.7817 -17.7592 -17.7513 -17.7513 -13.5944 -13.5868
   -13.5572  -7.3600  -6.2183  -6.0699  -6.0657  -1.6093   1.6267   2.0487
     2.6628   3.1401   3.6743   3.6795   4.2116   4.3186   4.4952   4.7319
     5.1568   6.9005   6.9067   6.9276   6.9319   6.9339   6.9410   6.9817
     7.7383   8.3940   8.4350   9.4093   9.6262   9.7338  10.2438  10.5651
    10.6733  11.0485  11.4513  11.6819  12.6405  12.8426  13.0496  13.6205
    13.8980  14.8834  15.2115  15.4056  15.5753  15.7509  16.0113  16.3797

     occupation numbers 
     1.0000   1.0000   1.0000   1.0000   1.0000   1.0000   1.0000   1.0000
     1.0000   1.0000   1.0000   1.0000   1.0000   1.0000   1.0000   1.0000
     1.0000   1.0000   1.0000   1.0000   1.0000   1.0000   1.0000   1.0000
     1.0000   1.0000   1.0000   1.0000   1.0000   1.0000   1.0000   1.0000
     1.0000   1.0000   1.0000   1.0000   1.0000   1.0000   1.0000   1.0000
     0.0000   0.0000   0.0000   0.0000   0.0000   0.0000   0.0000   0.0000
     0.0000   0.0000   0.0000   0.0000   0.0000   0.0000   0.0000   0.0000
     0.0000   0.0000   0.0000   0.0000   0.0000   0.0000   0.0000   0.0000

          k = 0.3333-0.2373 0.4092 (  3836 PWs)   bands (ev):

   -45.8652 -45.8647 -34.7243 -19.0735 -19.0731 -19.0668 -19.0506 -19.0377
   -17.7982 -17.7980 -17.7819 -17.7615 -17.7513 -17.7508 -13.5939 -13.5922
   -13.5603  -7.1795  -6.2108  -6.1907  -6.1536  -1.6294   2.4064   2.4272
     2.5282   2.5900   2.8844   3.7908   3.8117   4.1252   4.9040   5.1217
     5.1869   6.9079   6.9112   6.9231   6.9316   6.9420   6.9429   6.9774
     7.3649   8.5475   8.7022   8.9901   9.6067   9.7784  10.7492  10.8299
    10.9401  10.9819  11.5977  11.7532  12.1186  12.4734  13.6558  13.6669
    14.1130  14.3581  14.7726  14.9464  15.3060  15.6987  15.7956  16.4830

     occupation numbers 
     1.0000   1.0000   1.0000   1.0000   1.0000   1.0000   1.0000   1.0000
     1.0000   1.0000   1.0000   1.0000   1.0000   1.0000   1.0000   1.0000
     1.0000   1.0000   1.0000   1.0000   1.0000   1.0000   1.0000   1.0000
     1.0000   1.0000   1.0000   1.0000   1.0000   1.0000   1.0000   1.0000
     1.0000   1.0000   1.0000   1.0000   1.0000   1.0000   1.0000   1.0000
     0.0000   0.0000   0.0000   0.0000   0.0000   0.0000   0.0000   0.0000
     0.0000   0.0000   0.0000   0.0000   0.0000   0.0000   0.0000   0.0000
     0.0000   0.0000   0.0000   0.0000   0.0000   0.0000   0.0000   0.0000

 ------ SPIN DOWN ----------


          k = 0.0000 0.0000 0.0000 (  3845 PWs)   bands (ev):

   -45.8642 -45.8635 -31.6561 -19.0681 -19.0681 -19.0591 -19.0435 -19.0289
   -17.7961 -17.7961 -17.7830 -17.7599 -17.7499 -17.7499 -11.3175 -11.3168
   -11.3085  -7.5391  -6.0594  -6.0581  -5.9828  -1.5603   1.7333   1.7336
     1.7872   3.7024   3.7338   3.7343   4.3628   4.7956   5.0703   5.0703
     5.1882   7.2364   8.3227   9.4237  10.2700  10.2821  10.5354  10.5359
    10.7161  10.7536  10.9278  10.9280  11.3457  11.3473  11.6254  11.7107
    11.7111  11.8611  11.9689  12.4978  13.1933  13.1936  13.4160  13.5486
    14.4677  14.6341  14.6342  15.1098  15.1100  15.2796  15.9448  16.5791

     occupation numbers 
     1.0000   1.0000   1.0000   1.0000   1.0000   1.0000   1.0000   1.0000
     1.0000   1.0000   1.0000   1.0000   1.0000   1.0000   1.0000   1.0000
     1.0000   1.0000   1.0000   1.0000   1.0000   1.0000   1.0000   1.0000
     1.0000   1.0000   1.0000   1.0000   1.0000   1.0000   1.0000   1.0000
     1.0000   0.0000   0.0000   0.0000   0.0000   0.0000   0.0000   0.0000
     0.0000   0.0000   0.0000   0.0000   0.0000   0.0000   0.0000   0.0000
     0.0000   0.0000   0.0000   0.0000   0.0000   0.0000   0.0000   0.0000
     0.0000   0.0000   0.0000   0.0000   0.0000   0.0000   0.0000   0.0000

          k = 0.0000 0.0000 0.4092 (  3825 PWs)   bands (ev):

   -45.8638 -45.8637 -31.6561 -19.0663 -19.0652 -19.0607 -19.0426 -19.0301
   -17.7966 -17.7961 -17.7806 -17.7582 -17.7504 -17.7503 -11.3337 -11.3172
   -11.3157  -7.3511  -6.2030  -6.0687  -6.0381  -1.5886   1.6493   2.1135
     2.6836   3.2464   3.7100   3.7461   4.2526   4.3292   4.5809   4.8024
     5.1612   7.7987   8.7671   8.8535   9.4935  10.0840  10.3820  10.5291
    10.5992  10.6461  11.3163  11.4208  11.4936  11.5772  11.5966  11.6354
    11.7830  11.9332  12.0133  12.1466  12.9675  13.2029  13.3034  13.7851
    14.1329  14.9880  15.2933  15.7331  15.8003  16.1317  16.2515  16.6135

     occupation numbers 
     1.0000   1.0000   1.0000   1.0000   1.0000   1.0000   1.0000   1.0000
     1.0000   1.0000   1.0000   1.0000   1.0000   1.0000   1.0000   1.0000
     1.0000   1.0000   1.0000   1.0000   1.0000   1.0000   1.0000   1.0000
     1.0000   1.0000   1.0000   1.0000   1.0000   1.0000   1.0000   1.0000
     1.0000   0.0000   0.0000   0.0000   0.0000   0.0000   0.0000   0.0000
     0.0000   0.0000   0.0000   0.0000   0.0000   0.0000   0.0000   0.0000
     0.0000   0.0000   0.0000   0.0000   0.0000   0.0000   0.0000   0.0000
     0.0000   0.0000   0.0000   0.0000   0.0000   0.0000   0.0000   0.0000

          k = 0.0000 0.3528 0.2046 (  3821 PWs)   bands (ev):

   -45.8639 -45.8635 -31.6561 -19.0673 -19.0663 -19.0589 -19.0421 -19.0296
   -17.7963 -17.7956 -17.7751 -17.7648 -17.7504 -17.7495 -11.3339 -11.3240
   -11.3134  -7.2775  -6.2364  -6.1288  -6.0241  -1.5875   1.6430   2.1524
     2.5957   3.4872   3.6012   3.7439   4.0039   4.2209   4.7727   4.8853
     5.1112   7.7676   8.8190   9.1842   9.6296   9.9414  10.0264  10.5863
    10.6775  11.0453  11.4127  11.5002  11.5270  11.5704  11.6105  11.6571
    11.6942  11.9232  12.0505  12.2973  12.5086  12.9420  13.4161  13.9698
    14.2368  14.5714  15.1430  15.4986  15.6187  15.9644  16.2452  16.4511

     occupation numbers 
     1.0000   1.0000   1.0000   1.0000   1.0000   1.0000   1.0000   1.0000
     1.0000   1.0000   1.0000   1.0000   1.0000   1.0000   1.0000   1.0000
     1.0000   1.0000   1.0000   1.0000   1.0000   1.0000   1.0000   1.0000
     1.0000   1.0000   1.0000   1.0000   1.0000   1.0000   1.0000   1.0000
     1.0000   0.0000   0.0000   0.0000   0.0000   0.0000   0.0000   0.0000
     0.0000   0.0000   0.0000   0.0000   0.0000   0.0000   0.0000   0.0000
     0.0000   0.0000   0.0000   0.0000   0.0000   0.0000   0.0000   0.0000
     0.0000   0.0000   0.0000   0.0000   0.0000   0.0000   0.0000   0.0000

          k = 0.0000 0.3528 0.6138 (  3826 PWs)   bands (ev):

   -45.8639 -45.8636 -31.6560 -19.0663 -19.0660 -19.0592 -19.0430 -19.0302
   -17.7963 -17.7957 -17.7753 -17.7646 -17.7501 -17.7501 -11.3327 -11.3325
   -11.3179  -7.1509  -6.2490  -6.2128  -6.0704  -1.5747   1.8561   2.3271
     2.4952   3.3830   3.4354   4.0081   4.0544   4.5045   4.5521   4.5994
     4.9091   7.4536   8.8533   9.0574   9.5473   9.8150  10.0410  10.6658
    11.0489  11.1367  11.3886  11.4653  11.5237  11.5765  11.6297  11.6913
    11.7155  11.8816  11.8836  12.7041  12.7782  13.0652  13.1797  13.6276
    14.4681  14.4937  15.0676  15.4669  15.8042  15.9628  16.3716  16.5762

     occupation numbers 
     1.0000   1.0000   1.0000   1.0000   1.0000   1.0000   1.0000   1.0000
     1.0000   1.0000   1.0000   1.0000   1.0000   1.0000   1.0000   1.0000
     1.0000   1.0000   1.0000   1.0000   1.0000   1.0000   1.0000   1.0000
     1.0000   1.0000   1.0000   1.0000   1.0000   1.0000   1.0000   1.0000
     1.0000   0.0000   0.0000   0.0000   0.0000   0.0000   0.0000   0.0000
     0.0000   0.0000   0.0000   0.0000   0.0000   0.0000   0.0000   0.0000
     0.0000   0.0000   0.0000   0.0000   0.0000   0.0000   0.0000   0.0000
     0.0000   0.0000   0.0000   0.0000   0.0000   0.0000   0.0000   0.0000

          k = 0.3333 0.1154 0.2046 (  3821 PWs)   bands (ev):

   -45.8639 -45.8635 -31.6561 -19.0673 -19.0663 -19.0589 -19.0421 -19.0296
   -17.7963 -17.7956 -17.7751 -17.7648 -17.7504 -17.7495 -11.3336 -11.3240
   -11.3138  -7.2774  -6.2368  -6.1288  -6.0237  -1.5875   1.6432   2.1524
     2.5956   3.4872   3.6012   3.7439   4.0041   4.2208   4.7728   4.8851
     5.1111   7.7676   8.8190   9.1842   9.6297   9.9415  10.0262  10.5860
    10.6776  11.0454  11.4131  11.5001  11.5273  11.5701  11.6101  11.6567
    11.6943  11.9232  12.0505  12.2974  12.5089  12.9422  13.4161  13.9698
    14.2369  14.5714  15.1430  15.4985  15.6187  15.9644  16.2451  16.4512

     occupation numbers 
     1.0000   1.0000   1.0000   1.0000   1.0000   1.0000   1.0000   1.0000
     1.0000   1.0000   1.0000   1.0000   1.0000   1.0000   1.0000   1.0000
     1.0000   1.0000   1.0000   1.0000   1.0000   1.0000   1.0000   1.0000
     1.0000   1.0000   1.0000   1.0000   1.0000   1.0000   1.0000   1.0000
     1.0000   0.0000   0.0000   0.0000   0.0000   0.0000   0.0000   0.0000
     0.0000   0.0000   0.0000   0.0000   0.0000   0.0000   0.0000   0.0000
     0.0000   0.0000   0.0000   0.0000   0.0000   0.0000   0.0000   0.0000
     0.0000   0.0000   0.0000   0.0000   0.0000   0.0000   0.0000   0.0000

          k = 0.3333 0.1154 0.6138 (  3826 PWs)   bands (ev):

   -45.8639 -45.8636 -31.6560 -19.0663 -19.0660 -19.0592 -19.0430 -19.0302
   -17.7963 -17.7957 -17.7753 -17.7646 -17.7501 -17.7501 -11.3327 -11.3320
   -11.3184  -7.1509  -6.2495  -6.2128  -6.0699  -1.5746   1.8563   2.3269
     2.4952   3.3830   3.4354   4.0083   4.0546   4.5042   4.5523   4.5994
     4.9088   7.4536   8.8533   9.0575   9.5475   9.8148  10.0410  10.6655
    11.0494  11.1366  11.3887  11.4657  11.5230  11.5764  11.6299  11.6914
    11.7155  11.8815  11.8835  12.7044  12.7784  13.0654  13.1796  13.6275
    14.4680  14.4938  15.0677  15.4668  15.8040  15.9629  16.3712  16.5761

     occupation numbers 
     1.0000   1.0000   1.0000   1.0000   1.0000   1.0000   1.0000   1.0000
     1.0000   1.0000   1.0000   1.0000   1.0000   1.0000   1.0000   1.0000
     1.0000   1.0000   1.0000   1.0000   1.0000   1.0000   1.0000   1.0000
     1.0000   1.0000   1.0000   1.0000   1.0000   1.0000   1.0000   1.0000
     1.0000   0.0000   0.0000   0.0000   0.0000   0.0000   0.0000   0.0000
     0.0000   0.0000   0.0000   0.0000   0.0000   0.0000   0.0000   0.0000
     0.0000   0.0000   0.0000   0.0000   0.0000   0.0000   0.0000   0.0000
     0.0000   0.0000   0.0000   0.0000   0.0000   0.0000   0.0000   0.0000

          k = 0.3333 0.4682 0.4092 (  3826 PWs)   bands (ev):

   -45.8639 -45.8636 -31.6560 -19.0663 -19.0660 -19.0592 -19.0430 -19.0302
   -17.7963 -17.7957 -17.7753 -17.7646 -17.7501 -17.7501 -11.3326 -11.3319
   -11.3185  -7.1508  -6.2488  -6.2140  -6.0695  -1.5746   1.8563   2.3271
     2.4949   3.3831   3.4352   4.0086   4.0541   4.5050   4.5522   4.5991
     4.9089   7.4535   8.8533   9.0576   9.5474   9.8149  10.0408  10.6655
    11.0495  11.1365  11.3883  11.4661  11.5238  11.5755  11.6297  11.6909
    11.7162  11.8822  11.8830  12.7043  12.7783  13.0653  13.1796  13.6276
    14.4680  14.4938  15.0675  15.4669  15.8042  15.9629  16.3712  16.5761

     occupation numbers 
     1.0000   1.0000   1.0000   1.0000   1.0000   1.0000   1.0000   1.0000
     1.0000   1.0000   1.0000   1.0000   1.0000   1.0000   1.0000   1.0000
     1.0000   1.0000   1.0000   1.0000   1.0000   1.0000   1.0000   1.0000
     1.0000   1.0000   1.0000   1.0000   1.0000   1.0000   1.0000   1.0000
     1.0000   0.0000   0.0000   0.0000   0.0000   0.0000   0.0000   0.0000
     0.0000   0.0000   0.0000   0.0000   0.0000   0.0000   0.0000   0.0000
     0.0000   0.0000   0.0000   0.0000   0.0000   0.0000   0.0000   0.0000
     0.0000   0.0000   0.0000   0.0000   0.0000   0.0000   0.0000   0.0000

          k = 0.3333 0.4682 0.0000 (  3828 PWs)   bands (ev):

   -45.8638 -45.8637 -31.6560 -19.0666 -19.0666 -19.0586 -19.0433 -19.0296
   -17.7959 -17.7959 -17.7766 -17.7645 -17.7498 -17.7498 -11.3315 -11.3309
   -11.3300  -7.0831  -6.1928  -6.1919  -6.1914  -1.6212   2.4205   2.5775
     2.5778   2.6472   2.8565   3.9433   3.9438   3.9817   4.9305   4.9306
     5.4989   7.4553   8.8869   9.4277   9.4279   9.7202   9.8467  10.4386
    11.2857  11.2861  11.4912  11.5006  11.5249  11.5266  11.6109  11.7124
    11.7128  11.7383  12.5303  12.5305  12.7734  12.9904  13.1433  13.7113
    13.7114  14.0889  14.7398  15.2318  15.2319  15.7789  16.5625  17.4093

     occupation numbers 
     1.0000   1.0000   1.0000   1.0000   1.0000   1.0000   1.0000   1.0000
     1.0000   1.0000   1.0000   1.0000   1.0000   1.0000   1.0000   1.0000
     1.0000   1.0000   1.0000   1.0000   1.0000   1.0000   1.0000   1.0000
     1.0000   1.0000   1.0000   1.0000   1.0000   1.0000   1.0000   1.0000
     1.0000   0.0000   0.0000   0.0000   0.0000   0.0000   0.0000   0.0000
     0.0000   0.0000   0.0000   0.0000   0.0000   0.0000   0.0000   0.0000
     0.0000   0.0000   0.0000   0.0000   0.0000   0.0000   0.0000   0.0000
     0.0000   0.0000   0.0000   0.0000   0.0000   0.0000   0.0000   0.0000

          k = 0.3333-0.2373-0.0000 (  3825 PWs)   bands (ev):

   -45.8638 -45.8637 -31.6561 -19.0663 -19.0652 -19.0607 -19.0426 -19.0301
   -17.7966 -17.7961 -17.7806 -17.7582 -17.7504 -17.7503 -11.3330 -11.3178
   -11.3157  -7.3510  -6.2042  -6.0674  -6.0384  -1.5885   1.6496   2.1134
     2.6832   3.2459   3.7100   3.7463   4.2528   4.3294   4.5808   4.8025
     5.1612   7.7986   8.7671   8.8535   9.4936  10.0840  10.3817  10.5293
    10.5992  10.6464  11.3151  11.4217  11.4932  11.5769  11.5965  11.6360
    11.7835  11.9325  12.0141  12.1466  12.9675  13.2030  13.3034  13.7850
    14.1329  14.9879  15.2934  15.7329  15.8003  16.1317  16.2516  16.6136

     occupation numbers 
     1.0000   1.0000   1.0000   1.0000   1.0000   1.0000   1.0000   1.0000
     1.0000   1.0000   1.0000   1.0000   1.0000   1.0000   1.0000   1.0000
     1.0000   1.0000   1.0000   1.0000   1.0000   1.0000   1.0000   1.0000
     1.0000   1.0000   1.0000   1.0000   1.0000   1.0000   1.0000   1.0000
     1.0000   0.0000   0.0000   0.0000   0.0000   0.0000   0.0000   0.0000
     0.0000   0.0000   0.0000   0.0000   0.0000   0.0000   0.0000   0.0000
     0.0000   0.0000   0.0000   0.0000   0.0000   0.0000   0.0000   0.0000
     0.0000   0.0000   0.0000   0.0000   0.0000   0.0000   0.0000   0.0000

          k = 0.3333-0.2373 0.4092 (  3836 PWs)   bands (ev):

   -45.8640 -45.8636 -31.6560 -19.0668 -19.0664 -19.0593 -19.0438 -19.0301
   -17.7963 -17.7961 -17.7809 -17.7605 -17.7504 -17.7499 -11.3330 -11.3324
   -11.3225  -7.1698  -6.1956  -6.1792  -6.1108  -1.6117   2.4471   2.5478
     2.5664   2.6112   2.9122   3.8594   3.8747   4.1661   4.9582   5.1762
     5.2020   7.3733   8.9791   9.0022   9.4664   9.6315  10.0443  10.8398
    11.0775  11.3018  11.3834  11.4519  11.5391  11.5746  11.6207  11.6628
    11.7371  11.8672  11.9047  12.2115  12.6526  12.8607  13.8334  13.8884
    14.3758  14.3980  15.0440  15.1357  15.6715  15.9254  15.9788  16.5864

     occupation numbers 
     1.0000   1.0000   1.0000   1.0000   1.0000   1.0000   1.0000   1.0000
     1.0000   1.0000   1.0000   1.0000   1.0000   1.0000   1.0000   1.0000
     1.0000   1.0000   1.0000   1.0000   1.0000   1.0000   1.0000   1.0000
     1.0000   1.0000   1.0000   1.0000   1.0000   1.0000   1.0000   1.0000
     1.0000   0.0000   0.0000   0.0000   0.0000   0.0000   0.0000   0.0000
     0.0000   0.0000   0.0000   0.0000   0.0000   0.0000   0.0000   0.0000
     0.0000   0.0000   0.0000   0.0000   0.0000   0.0000   0.0000   0.0000
     0.0000   0.0000   0.0000   0.0000   0.0000   0.0000   0.0000   0.0000

     highest occupied, lowest unoccupied level (ev):     6.9985    7.0923

!    total energy              =   -1221.86869097 Ry
     estimated scf accuracy    <       0.00000069 Ry

     The total energy is the sum of the following terms:
     one-electron contribution =    -418.09655939 Ry
     hartree contribution      =     247.61214470 Ry
     xc contribution           =    -227.34008782 Ry
     ewald contribution        =    -367.26519568 Ry
     one-center paw contrib.   =    -456.77899278 Ry
      -> PAW hartree energy AE =       0.00000000 Ry
      -> PAW hartree energy PS =       0.00000000 Ry
      -> PAW xc energy AE      =       0.00000000 Ry
      -> PAW xc energy PS      =       0.00000000 Ry
      -> total E_H with PAW    =     247.61214470 Ry
      -> total E_XC with PAW   =    -227.34008782 Ry

     total magnetization       =     7.00 Bohr mag/cell
     absolute magnetization    =     7.11 Bohr mag/cell

     convergence has been achieved in  33 iterations

     Writing all to output data dir bands_nm/myprefix.save/
