
     Program PWSCF v.7.1 starts on 15Jul2023 at 18:26:52 

     This program is part of the open-source Quantum ESPRESSO suite
     for quantum simulation of materials; please cite
         "P. Giannozzi et al., J. Phys.:Condens. Matter 21 395502 (2009);
         "P. Giannozzi et al., J. Phys.:Condens. Matter 29 465901 (2017);
         "P. Giannozzi et al., J. Chem. Phys. 152 154105 (2020);
          URL http://www.quantum-espresso.org", 
     in publications or presentations arising from this work. More details at
     http://www.quantum-espresso.org/quote

     Parallel version (MPI & OpenMP), running on      32 processor cores
     Number of MPI processes:                 8
     Threads/MPI process:                     4

     MPI processes distributed on     1 nodes
     246741 MiB available memory on the printing compute node when the environment starts
 
     Reading input from espresso_5582.pwi
Warning: card &CELL ignored
Warning: card / ignored

     Current dimensions of program PWSCF are:
     Max number of different atomic species (ntypx) = 10
     Max number of k-points (npk) =  40000
     Max angular momentum in pseudopotentials (lmaxx) =  4
     file In.pbe-dn-rrkjus_psl.0.2.2.UPF: wavefunction(s)  5S renormalized
     Message from routine setup:
     using ibrav=0 with symmetry is DISCOURAGED, use correct ibrav instead
 
     K-points division:     npool     =       2
     R & G space division:  proc/nbgrp/npool/nimage =       4
     Subspace diagonalization in iterative solution of the eigenvalue problem:
     one sub-group per band group will be used
     scalapack distributed-memory algorithm (size of sub-group:  2*  2 procs)

 
     Parallelization info
     --------------------
     sticks:   dense  smooth     PW     G-vecs:    dense   smooth      PW
     Min         822     412    118                30691    10853    1656
     Max         823     413    120                30693    10854    1657
     Sum        3291    1649    477               122769    43415    6627
 
     Using Slab Decomposition
 


     bravais-lattice index     =            0
     lattice parameter (alat)  =      13.3002  a.u.
     unit-cell volume          =    1956.5152 (a.u.)^3
     number of atoms/cell      =           18
     number of atomic types    =            3
     number of electrons       =       152.00
     number of Kohn-Sham states=          256
     kinetic-energy cutoff     =      30.0000  Ry
     charge density cutoff     =     240.0000  Ry
     scf convergence threshold =      1.0E-06
     mixing beta               =       0.7000
     number of iterations used =            8  plain     mixing
     Exchange-correlation= PBE
                           (   1   4   3   4   0   0   0)

     celldm(1)=  13.300222  celldm(2)=   0.000000  celldm(3)=   0.000000
     celldm(4)=   0.000000  celldm(5)=   0.000000  celldm(6)=   0.000000

     crystal axes: (cart. coord. in units of alat)
               a(1) = (   1.000000   0.000000   0.000000 )  
               a(2) = (  -0.775004   0.974359   0.000000 )  
               a(3) = (   0.004035   0.003210   0.853468 )  

     reciprocal axes: (cart. coord. in units 2 pi/alat)
               b(1) = (  1.000000  0.795398 -0.007719 )  
               b(2) = (  0.000000  1.026315 -0.003860 )  
               b(3) = (  0.000000  0.000000  1.171690 )  


     PseudoPot. # 1 for Ca read from file:
     /lustre07/scratch/pragov/crystal_structure_design/utils/SSSP/Ca_pbe_v1.uspp.F.UPF
     MD5 check sum: 403a4c14b9e4d4dfdc3024c9a3812218
     Pseudo is Ultrasoft + core correction, Zval = 10.0
     Generated by new atomic code, or converted to UPF format
     Using radial grid of  845 points,  6 beta functions with: 
                l(1) =   0
                l(2) =   0
                l(3) =   1
                l(4) =   1
                l(5) =   2
                l(6) =   2
     Q(r) pseudized with  8 coefficients,  rinner =    1.500   1.500   1.500
                                                       1.500   1.500

     PseudoPot. # 2 for In read from file:
     /lustre07/scratch/pragov/crystal_structure_design/utils/SSSP/In.pbe-dn-rrkjus_psl.0.2.2.UPF
     MD5 check sum: 25e7c42c3b55b68f4bf926be2e7201a4
     Pseudo is Ultrasoft + core correction, Zval = 13.0
     Generated using "atomic" code by A. Dal Corso  v.5.0.99 svn rev. 10869
     Using radial grid of 1241 points,  6 beta functions with: 
                l(1) =   0
                l(2) =   0
                l(3) =   1
                l(4) =   1
                l(5) =   2
                l(6) =   2
     Q(r) pseudized with 0 coefficients 


     PseudoPot. # 3 for N  read from file:
     /lustre07/scratch/pragov/crystal_structure_design/utils/SSSP/N.pbe-n-radius_5.UPF
     MD5 check sum: 16739722b17309cd8fe442a2ace49922
     Pseudo is Ultrasoft + core correction, Zval =  5.0
     Generated using "atomic" code by A. Dal Corso  v.5.1
     Using radial grid of 1085 points,  4 beta functions with: 
                l(1) =   0
                l(2) =   0
                l(3) =   1
                l(4) =   1
     Q(r) pseudized with 0 coefficients 


     atomic species   valence    mass     pseudopotential
        Ca            10.00    40.07800     Ca( 1.00)
        In            13.00   114.81800     In( 1.00)
        N              5.00    14.00700     N ( 1.00)

      2 Sym. Ops., with inversion, found


                                    s                        frac. trans.

      isym =  1     identity                                     

 cryst.   s( 1) = (     1          0          0      )
                  (     0          1          0      )
                  (     0          0          1      )

 cart.    s( 1) = (  1.0000000  0.0000000  0.0000000 )
                  (  0.0000000  1.0000000  0.0000000 )
                  (  0.0000000  0.0000000  1.0000000 )


      isym =  2     inversion                                    

 cryst.   s( 2) = (    -1          0          0      )
                  (     0         -1          0      )
                  (     0          0         -1      )

 cart.    s( 2) = ( -1.0000000  0.0000000  0.0000000 )
                  (  0.0000000 -1.0000000  0.0000000 )
                  (  0.0000000  0.0000000 -1.0000000 )


   Cartesian axes

     site n.     atom                  positions (alat units)
         1           Ca  tau(   1) = (  -0.5362230   0.9531915   0.0450657  )
         2           Ca  tau(   2) = (   0.1939149   0.7385421   0.3816684  )
         3           Ca  tau(   3) = (   0.7652541   0.0243776   0.8084025  )
         4           Ca  tau(   4) = (   0.0351162   0.2390269   0.4717998  )
         5           Ca  tau(   5) = (  -0.4707383   0.5980389   0.6401011  )
         6           Ca  tau(   6) = (  -0.3002306   0.3795301   0.2133670  )
         7           In  tau(   7) = (   0.4614569   0.1762912   0.5258055  )
         8           In  tau(   8) = (  -0.0445485   0.5692136   0.7543967  )
         9           In  tau(   9) = (  -0.2324258   0.8012778   0.3276626  )
        10           In  tau(  10) = (   0.2735795   0.4083554   0.0990714  )
        11           N   tau(  11) = (  -0.5145744   0.9215837   0.4322697  )
        12           N   tau(  12) = (   0.2238749   0.7135484   0.8479326  )
        13           N   tau(  13) = (   0.7436055   0.0559854   0.4211985  )
        14           N   tau(  14) = (   0.0051562   0.2640206   0.0055356  )
        15           N   tau(  15) = (   0.5075477   0.2519279   0.8209306  )
        16           N   tau(  16) = (  -0.1286160   0.5413225   0.4592717  )
        17           N   tau(  17) = (  -0.2785166   0.7256412   0.0325376  )
        18           N   tau(  18) = (   0.3576470   0.4362465   0.3941965  )

   Crystallographic axes

     site n.     atom                  positions (cryst. coord.)
         1           Ca  tau(   1) = (  0.2215960  0.9781010  0.0528030  )
         2           Ca  tau(   2) = (  0.7784040  0.7565040  0.4471970  )
         3           Ca  tau(   3) = (  0.7784040  0.0218990  0.9471970  )
         4           Ca  tau(   4) = (  0.2215960  0.2434960  0.5528030  )
         5           Ca  tau(   5) = ( -0.0000000  0.6113060  0.7500000  )
         6           Ca  tau(   6) = (  0.0000000  0.3886940  0.2500000  )
         7           In  tau(   7) = (  0.5976200  0.1789010  0.6160810  )
         8           In  tau(   8) = (  0.4023800  0.5812810  0.8839190  )
         9           In  tau(   9) = (  0.4023800  0.8210990  0.3839190  )
        10           In  tau(  10) = (  0.5976200  0.4187190  0.1160810  )
        11           N   tau(  11) = (  0.2151150  0.9441670  0.5064860  )
        12           N   tau(  12) = (  0.7848850  0.7290530  0.9935140  )
        13           N   tau(  13) = (  0.7848850  0.0558330  0.4935140  )
        14           N   tau(  14) = (  0.2151150  0.2709470  0.0064860  )
        15           N   tau(  15) = (  0.7015940  0.2553890  0.9618760  )
        16           N   tau(  16) = (  0.2984060  0.5537950  0.5381240  )
        17           N   tau(  17) = (  0.2984060  0.7446110  0.0381240  )
        18           N   tau(  18) = (  0.7015940  0.4462050  0.4618760  )

     number of k points=    14
                       cart. coord. in units 2pi/alat
        k(    1) = (   0.0000000   0.0000000   0.0000000), wk =   0.0740741
        k(    2) = (   0.0000000   0.0000000   0.3905633), wk =   0.1481481
        k(    3) = (   0.0000000   0.3421051  -0.0012865), wk =   0.1481481
        k(    4) = (   0.0000000   0.3421051   0.3892768), wk =   0.1481481
        k(    5) = (   0.0000000   0.3421051  -0.3918498), wk =   0.1481481
        k(    6) = (   0.3333333   0.2651328  -0.0025730), wk =   0.1481481
        k(    7) = (   0.3333333   0.2651328   0.3879903), wk =   0.1481481
        k(    8) = (   0.3333333   0.2651328  -0.3931362), wk =   0.1481481
        k(    9) = (   0.3333333   0.6072378  -0.0038595), wk =   0.1481481
        k(   10) = (   0.3333333   0.6072378   0.3867038), wk =   0.1481481
        k(   11) = (   0.3333333   0.6072378  -0.3944227), wk =   0.1481481
        k(   12) = (   0.3333333  -0.0769723  -0.0012864), wk =   0.1481481
        k(   13) = (   0.3333333  -0.0769723   0.3892768), wk =   0.1481481
        k(   14) = (   0.3333333  -0.0769723  -0.3918497), wk =   0.1481481

                       cryst. coord.
        k(    1) = (   0.0000000   0.0000000   0.0000000), wk =   0.0740741
        k(    2) = (   0.0000000   0.0000000   0.3333333), wk =   0.1481481
        k(    3) = (   0.0000000   0.3333333   0.0000000), wk =   0.1481481
        k(    4) = (   0.0000000   0.3333333   0.3333333), wk =   0.1481481
        k(    5) = (   0.0000000   0.3333333  -0.3333333), wk =   0.1481481
        k(    6) = (   0.3333333   0.0000000   0.0000000), wk =   0.1481481
        k(    7) = (   0.3333333   0.0000000   0.3333333), wk =   0.1481481
        k(    8) = (   0.3333333   0.0000000  -0.3333333), wk =   0.1481481
        k(    9) = (   0.3333333   0.3333333   0.0000000), wk =   0.1481481
        k(   10) = (   0.3333333   0.3333333   0.3333333), wk =   0.1481481
        k(   11) = (   0.3333333   0.3333333  -0.3333333), wk =   0.1481481
        k(   12) = (   0.3333333  -0.3333333   0.0000000), wk =   0.1481481
        k(   13) = (   0.3333333  -0.3333333   0.3333333), wk =   0.1481481
        k(   14) = (   0.3333333  -0.3333333  -0.3333333), wk =   0.1481481

     Dense  grid:   122769 G-vectors     FFT dimensions: (  72,  81,  60)

     Smooth grid:    43415 G-vectors     FFT dimensions: (  48,  60,  40)

     Dynamical RAM for                 wfc:       5.30 MB

     Dynamical RAM for     wfc (w. buffer):      42.41 MB

     Dynamical RAM for           str. fact:       1.40 MB

     Dynamical RAM for           local pot:       0.00 MB

     Dynamical RAM for          nlocal pot:       5.05 MB

     Dynamical RAM for                qrad:       3.73 MB

     Dynamical RAM for          rho,v,vnew:       3.41 MB

     Dynamical RAM for               rhoin:       1.14 MB

     Dynamical RAM for            rho*nmix:       7.49 MB

     Dynamical RAM for           G-vectors:       1.84 MB

     Dynamical RAM for          h,s,v(r/c):       3.00 MB

     Dynamical RAM for          <psi|beta>:       0.95 MB

     Dynamical RAM for                 psi:      10.60 MB

     Dynamical RAM for                hpsi:      10.60 MB

     Dynamical RAM for                spsi:      10.60 MB

     Dynamical RAM for      wfcinit/wfcrot:      12.10 MB

     Dynamical RAM for           addusdens:      45.66 MB

     Estimated static dynamical RAM per process >      64.19 MB

     Estimated max dynamical RAM per process >     117.34 MB

     Estimated total dynamical RAM >     908.74 MB

     Check: negative core charge=   -0.000002

     Initial potential from superposition of free atoms

     starting charge     151.9523, renormalised to     152.0000
     Starting wfcs are  128 randomized atomic wfcs +  128 random wfcs

     total cpu time spent up to now is        2.9 secs

     Self-consistent Calculation

     iteration #  1     ecut=    30.00 Ry     beta= 0.70
     Davidson diagonalization with overlap

---- Real-time Memory Report at c_bands before calling an iterative solver
           279 MiB given to the printing process from OS
             0 MiB allocation reported by mallinfo(arena+hblkhd)
        244410 MiB available memory on the node where the printing process lives
------------------
     ethr =  1.00E-02,  avg # of iterations =  6.0

     total cpu time spent up to now is       15.2 secs

     total energy              =   -1188.01488849 Ry
     estimated scf accuracy    <       5.44215241 Ry

     iteration #  2     ecut=    30.00 Ry     beta= 0.70
     Davidson diagonalization with overlap

---- Real-time Memory Report at c_bands before calling an iterative solver
           390 MiB given to the printing process from OS
             0 MiB allocation reported by mallinfo(arena+hblkhd)
        242920 MiB available memory on the node where the printing process lives
------------------
     ethr =  3.58E-03,  avg # of iterations =  2.0

     total cpu time spent up to now is       20.9 secs

     total energy              =   -1188.19880893 Ry
     estimated scf accuracy    <      14.74020055 Ry

     iteration #  3     ecut=    30.00 Ry     beta= 0.70
     Davidson diagonalization with overlap

---- Real-time Memory Report at c_bands before calling an iterative solver
           390 MiB given to the printing process from OS
             0 MiB allocation reported by mallinfo(arena+hblkhd)
        242883 MiB available memory on the node where the printing process lives
------------------
     ethr =  3.58E-03,  avg # of iterations =  1.0

     total cpu time spent up to now is       25.6 secs

     total energy              =   -1190.83786505 Ry
     estimated scf accuracy    <       0.15655511 Ry

     iteration #  4     ecut=    30.00 Ry     beta= 0.70
     Davidson diagonalization with overlap

---- Real-time Memory Report at c_bands before calling an iterative solver
           390 MiB given to the printing process from OS
             0 MiB allocation reported by mallinfo(arena+hblkhd)
        243007 MiB available memory on the node where the printing process lives
------------------
     ethr =  1.03E-04,  avg # of iterations =  9.4

     total cpu time spent up to now is       33.7 secs

     total energy              =   -1190.85560066 Ry
     estimated scf accuracy    <       0.02098606 Ry

     iteration #  5     ecut=    30.00 Ry     beta= 0.70
     Davidson diagonalization with overlap

---- Real-time Memory Report at c_bands before calling an iterative solver
           395 MiB given to the printing process from OS
             0 MiB allocation reported by mallinfo(arena+hblkhd)
        242258 MiB available memory on the node where the printing process lives
------------------
     c_bands:  1 eigenvalues not converged
     ethr =  1.38E-05,  avg # of iterations = 12.1

     total cpu time spent up to now is       43.7 secs

     total energy              =   -1190.85539432 Ry
     estimated scf accuracy    <       0.01097652 Ry

     iteration #  6     ecut=    30.00 Ry     beta= 0.70
     Davidson diagonalization with overlap

---- Real-time Memory Report at c_bands before calling an iterative solver
           404 MiB given to the printing process from OS
             0 MiB allocation reported by mallinfo(arena+hblkhd)
        242153 MiB available memory on the node where the printing process lives
------------------
     ethr =  7.22E-06,  avg # of iterations =  2.3

     total cpu time spent up to now is       49.6 secs

     total energy              =   -1190.85755892 Ry
     estimated scf accuracy    <       0.01113332 Ry

     iteration #  7     ecut=    30.00 Ry     beta= 0.70
     Davidson diagonalization with overlap

---- Real-time Memory Report at c_bands before calling an iterative solver
           411 MiB given to the printing process from OS
             0 MiB allocation reported by mallinfo(arena+hblkhd)
        242517 MiB available memory on the node where the printing process lives
------------------
     ethr =  7.22E-06,  avg # of iterations =  1.1

     total cpu time spent up to now is       54.5 secs

     total energy              =   -1190.85899238 Ry
     estimated scf accuracy    <       0.00017014 Ry

     iteration #  8     ecut=    30.00 Ry     beta= 0.70
     Davidson diagonalization with overlap

---- Real-time Memory Report at c_bands before calling an iterative solver
           412 MiB given to the printing process from OS
             0 MiB allocation reported by mallinfo(arena+hblkhd)
        242066 MiB available memory on the node where the printing process lives
------------------
     ethr =  1.12E-07,  avg # of iterations =  2.6

     total cpu time spent up to now is       60.4 secs

     total energy              =   -1190.85901654 Ry
     estimated scf accuracy    <       0.00002230 Ry

     iteration #  9     ecut=    30.00 Ry     beta= 0.70
     Davidson diagonalization with overlap

---- Real-time Memory Report at c_bands before calling an iterative solver
           412 MiB given to the printing process from OS
             0 MiB allocation reported by mallinfo(arena+hblkhd)
        242150 MiB available memory on the node where the printing process lives
------------------
     ethr =  1.47E-08,  avg # of iterations =  1.1

     total cpu time spent up to now is       65.3 secs

     total energy              =   -1190.85902173 Ry
     estimated scf accuracy    <       0.00000107 Ry

     iteration # 10     ecut=    30.00 Ry     beta= 0.70
     Davidson diagonalization with overlap

---- Real-time Memory Report at c_bands before calling an iterative solver
           412 MiB given to the printing process from OS
             0 MiB allocation reported by mallinfo(arena+hblkhd)
        242246 MiB available memory on the node where the printing process lives
------------------
     ethr =  7.02E-10,  avg # of iterations =  2.0

     total cpu time spent up to now is       71.0 secs

     End of self-consistent calculation

          k = 0.0000 0.0000 0.0000 (  5447 PWs)   bands (ev):

   -30.5725 -30.5470 -30.5466 -30.5367 -30.3083 -30.2917 -11.7901 -11.7631
   -11.7588 -11.7402 -11.7232 -11.7157 -11.7154 -11.6602 -11.6030 -11.5759
   -11.4859 -11.4831 -11.4472 -11.4238 -11.3789 -11.3327 -11.3282 -11.2440
    -5.4702  -5.2908  -5.2393  -5.2075  -5.1567  -5.0402  -4.9584  -4.8802
    -4.6722  -4.6605  -4.5312  -4.5194  -4.5083  -4.4877  -4.4528  -4.4335
    -4.4150  -4.4029  -4.2976  -4.2159  -4.1456  -3.0903  -3.0065  -2.3998
    -2.3620  -2.2444  -2.0745  -2.0687   3.6437   3.9961   4.7282   5.0058
     5.8669   5.9180   6.0085   6.4414   6.5689   7.2630   7.4519   7.5102
     7.5114   7.7300   7.7728   7.9436   8.0934   8.1887   8.2013   8.2780
     8.3063   8.8216   8.8354   9.0913   9.9225  11.4504  11.9154  12.2066
    12.3005  12.4547  12.6007  12.8526  12.9088  13.0709  13.4924  13.5352
    13.6553  13.7318  13.8255  13.9855  14.0512  14.2135  14.3786  14.5484
    14.7569  14.9483  15.0167  15.2138  15.2489  15.4888  15.5937  15.6103
    15.7845  15.9116  16.0025  16.0246  16.0916  16.1352  16.3896  16.5950
    16.7290  16.7721  17.1246  17.1470  17.3163  17.3486  17.8170  18.4015
    18.4317  18.5999  19.0230  19.1305  19.3611  19.4547  19.6439  20.0347
    20.2589  20.3346  21.2307  21.2496  21.6817  21.7377  22.2291  22.3834
    22.3979  22.7821  23.0466  23.1016  23.1296  23.7651  24.0418  24.0675
    24.5676  24.5960  24.8774  24.9585  25.0035  25.1322  25.1742  25.7119
    25.8316  26.0939  26.1910  26.6764  26.7253  26.7743  26.8076  27.5546
    27.6012  27.7593  28.0477  28.2106  28.7699  28.8089  28.8571  28.9348
    29.1057  29.2883  29.4241  29.5462  29.7780  30.0162  30.2161  30.3157
    30.4611  30.7399  30.9392  31.2674  31.3002  31.4267  31.4730  31.5791
    31.8563  32.1692  32.2279  32.2764  32.7600  33.1593  33.1925  33.6149
    33.7124  33.7544  33.9424  34.0376  34.2904  34.2956  34.4523  34.4962
    34.5785  34.9663  35.0025  35.4512  35.7227  35.8477  35.9453  35.9645
    36.1878  36.2513  36.5930  36.7979  37.0370  37.3150  37.3872  37.4054
    37.4471  37.5082  38.1527  38.2243  38.2463  38.2884  38.4837  38.5064
    38.6241  38.7645  38.9700  39.4272  39.5533  39.5731  39.8475  39.9390
    40.0634  40.1253  40.1360  40.3415  40.4059  40.6880  40.7254  40.7580
    40.9559  41.2935  41.3312  41.4435  41.5490  41.8339  41.9458  42.0019
    42.1203  42.2271  42.4004  42.6654  42.6957  43.0493  43.0569  43.2682

     occupation numbers 
     1.0000   1.0000   1.0000   1.0000   1.0000   1.0000   1.0000   1.0000
     1.0000   1.0000   1.0000   1.0000   1.0000   1.0000   1.0000   1.0000
     1.0000   1.0000   1.0000   1.0000   1.0000   1.0000   1.0000   1.0000
     1.0000   1.0000   1.0000   1.0000   1.0000   1.0000   1.0000   1.0000
     1.0000   1.0000   1.0000   1.0000   1.0000   1.0000   1.0000   1.0000
     1.0000   1.0000   1.0000   1.0000   1.0000   1.0000   1.0000   1.0000
     1.0000   1.0000   1.0000   1.0000   1.0000   1.0000   1.0000   1.0000
     1.0000   1.0000   1.0000   1.0000   1.0000   1.0000   1.0000   1.0000
     1.0000   1.0000   1.0000   1.0000   1.0000   1.0000   1.0000   1.0000
     1.0000   1.0000   1.0000   1.0000   0.0000   0.0000   0.0000   0.0000
     0.0000   0.0000   0.0000   0.0000   0.0000   0.0000   0.0000   0.0000
     0.0000   0.0000   0.0000   0.0000   0.0000   0.0000   0.0000   0.0000
     0.0000   0.0000   0.0000   0.0000   0.0000   0.0000   0.0000   0.0000
     0.0000   0.0000   0.0000   0.0000   0.0000   0.0000   0.0000   0.0000
     0.0000   0.0000   0.0000   0.0000   0.0000   0.0000   0.0000   0.0000
     0.0000   0.0000   0.0000   0.0000   0.0000   0.0000   0.0000   0.0000
     0.0000   0.0000   0.0000   0.0000   0.0000   0.0000   0.0000   0.0000
     0.0000   0.0000   0.0000   0.0000   0.0000   0.0000   0.0000   0.0000
     0.0000   0.0000   0.0000   0.0000   0.0000   0.0000   0.0000   0.0000
     0.0000   0.0000   0.0000   0.0000   0.0000   0.0000   0.0000   0.0000
     0.0000   0.0000   0.0000   0.0000   0.0000   0.0000   0.0000   0.0000
     0.0000   0.0000   0.0000   0.0000   0.0000   0.0000   0.0000   0.0000
     0.0000   0.0000   0.0000   0.0000   0.0000   0.0000   0.0000   0.0000
     0.0000   0.0000   0.0000   0.0000   0.0000   0.0000   0.0000   0.0000
     0.0000   0.0000   0.0000   0.0000   0.0000   0.0000   0.0000   0.0000
     0.0000   0.0000   0.0000   0.0000   0.0000   0.0000   0.0000   0.0000
     0.0000   0.0000   0.0000   0.0000   0.0000   0.0000   0.0000   0.0000
     0.0000   0.0000   0.0000   0.0000   0.0000   0.0000   0.0000   0.0000
     0.0000   0.0000   0.0000   0.0000   0.0000   0.0000   0.0000   0.0000
     0.0000   0.0000   0.0000   0.0000   0.0000   0.0000   0.0000   0.0000
     0.0000   0.0000   0.0000   0.0000   0.0000   0.0000   0.0000   0.0000
     0.0000   0.0000   0.0000   0.0000   0.0000   0.0000   0.0000   0.0000

          k = 0.0000 0.0000 0.3906 (  5439 PWs)   bands (ev):

   -30.5671 -30.5557 -30.5419 -30.5383 -30.3041 -30.2958 -11.8105 -11.8012
   -11.7677 -11.7662 -11.7023 -11.6925 -11.6777 -11.6533 -11.5972 -11.5741
   -11.4779 -11.4772 -11.4528 -11.4383 -11.3772 -11.3592 -11.2940 -11.2590
    -5.3869  -5.2817  -5.2762  -5.1873  -5.1727  -5.1323  -4.9393  -4.9025
    -4.6854  -4.6796  -4.5110  -4.5062  -4.4983  -4.4735  -4.4709  -4.4468
    -4.4035  -4.4024  -4.2803  -4.2424  -3.8312  -3.2726  -2.8308  -2.4032
    -2.3924  -2.3706  -2.1898  -2.1192   3.9766   4.0517   4.3894   4.5577
     5.8704   6.0539   6.4166   6.7530   7.0737   7.0819   7.1532   7.2725
     7.4774   7.6417   7.7505   7.7722   7.9890   8.0809   8.0975   8.2071
     8.3883   8.5801   8.6512   8.9032  11.1701  11.9454  12.1126  12.3075
    12.4034  12.4130  12.4639  12.9597  13.0194  13.1764  13.1987  13.5144
    13.5264  13.6462  13.8077  14.0440  14.1497  14.2724  14.5595  14.5836
    14.7294  14.8945  15.0660  15.2096  15.2183  15.3441  15.4112  15.4213
    15.6903  15.7955  15.8318  16.1174  16.2179  16.2340  16.3238  16.4034
    16.6870  16.8700  16.9505  17.1900  17.5008  17.6771  17.8384  18.1539
    18.5056  18.5378  18.6916  19.0496  19.1706  19.3152  19.8433  19.9706
    20.4878  20.5150  20.7917  21.2827  21.4677  21.7812  21.9460  22.0659
    22.3780  22.7001  22.7163  23.2143  23.2872  23.5577  23.6289  23.6690
    24.2863  24.6867  24.7154  24.8996  25.1367  25.1630  25.3588  25.5619
    25.7816  25.7998  26.3741  26.6157  26.8764  27.1212  27.4338  27.7254
    27.8320  28.0448  28.3228  28.4978  28.6527  28.8083  28.9130  29.0523
    29.1905  29.3396  29.4388  30.0063  30.0694  30.2900  30.3499  30.4338
    30.4693  30.6516  31.0734  31.1423  31.4491  31.4971  31.7145  31.7472
    32.0760  32.1756  32.3233  32.4802  32.5958  33.0283  33.0349  33.2875
    33.4714  33.8432  34.1470  34.2543  34.4347  34.4515  34.8057  35.0560
    35.1240  35.3645  35.4692  35.4812  35.7665  36.0324  36.1133  36.1594
    36.3050  36.4898  36.5856  36.6013  36.9612  37.1040  37.1242  37.3535
    37.5391  37.6977  38.1313  38.1387  38.1826  38.1893  38.2735  38.4584
    38.6010  38.6151  38.6239  38.8634  38.9827  39.0173  39.1014  39.3083
    39.5452  39.7780  39.9071  39.9783  40.0271  40.4176  40.5556  40.6929
    40.8327  40.9562  41.0130  41.2768  41.2772  41.4300  41.5579  41.8266
    41.9072  41.9955  42.1219  42.3792  42.4056  42.5787  42.9572  43.0732

     occupation numbers 
     1.0000   1.0000   1.0000   1.0000   1.0000   1.0000   1.0000   1.0000
     1.0000   1.0000   1.0000   1.0000   1.0000   1.0000   1.0000   1.0000
     1.0000   1.0000   1.0000   1.0000   1.0000   1.0000   1.0000   1.0000
     1.0000   1.0000   1.0000   1.0000   1.0000   1.0000   1.0000   1.0000
     1.0000   1.0000   1.0000   1.0000   1.0000   1.0000   1.0000   1.0000
     1.0000   1.0000   1.0000   1.0000   1.0000   1.0000   1.0000   1.0000
     1.0000   1.0000   1.0000   1.0000   1.0000   1.0000   1.0000   1.0000
     1.0000   1.0000   1.0000   1.0000   1.0000   1.0000   1.0000   1.0000
     1.0000   1.0000   1.0000   1.0000   1.0000   1.0000   1.0000   1.0000
     1.0000   1.0000   1.0000   1.0000   0.0000   0.0000   0.0000   0.0000
     0.0000   0.0000   0.0000   0.0000   0.0000   0.0000   0.0000   0.0000
     0.0000   0.0000   0.0000   0.0000   0.0000   0.0000   0.0000   0.0000
     0.0000   0.0000   0.0000   0.0000   0.0000   0.0000   0.0000   0.0000
     0.0000   0.0000   0.0000   0.0000   0.0000   0.0000   0.0000   0.0000
     0.0000   0.0000   0.0000   0.0000   0.0000   0.0000   0.0000   0.0000
     0.0000   0.0000   0.0000   0.0000   0.0000   0.0000   0.0000   0.0000
     0.0000   0.0000   0.0000   0.0000   0.0000   0.0000   0.0000   0.0000
     0.0000   0.0000   0.0000   0.0000   0.0000   0.0000   0.0000   0.0000
     0.0000   0.0000   0.0000   0.0000   0.0000   0.0000   0.0000   0.0000
     0.0000   0.0000   0.0000   0.0000   0.0000   0.0000   0.0000   0.0000
     0.0000   0.0000   0.0000   0.0000   0.0000   0.0000   0.0000   0.0000
     0.0000   0.0000   0.0000   0.0000   0.0000   0.0000   0.0000   0.0000
     0.0000   0.0000   0.0000   0.0000   0.0000   0.0000   0.0000   0.0000
     0.0000   0.0000   0.0000   0.0000   0.0000   0.0000   0.0000   0.0000
     0.0000   0.0000   0.0000   0.0000   0.0000   0.0000   0.0000   0.0000
     0.0000   0.0000   0.0000   0.0000   0.0000   0.0000   0.0000   0.0000
     0.0000   0.0000   0.0000   0.0000   0.0000   0.0000   0.0000   0.0000
     0.0000   0.0000   0.0000   0.0000   0.0000   0.0000   0.0000   0.0000
     0.0000   0.0000   0.0000   0.0000   0.0000   0.0000   0.0000   0.0000
     0.0000   0.0000   0.0000   0.0000   0.0000   0.0000   0.0000   0.0000
     0.0000   0.0000   0.0000   0.0000   0.0000   0.0000   0.0000   0.0000
     0.0000   0.0000   0.0000   0.0000   0.0000   0.0000   0.0000   0.0000

          k = 0.0000 0.3421-0.0013 (  5421 PWs)   bands (ev):

   -30.5706 -30.5494 -30.5448 -30.5381 -30.3082 -30.2917 -11.7939 -11.7688
   -11.7490 -11.7413 -11.7214 -11.7080 -11.6783 -11.6712 -11.5978 -11.5703
   -11.5251 -11.4779 -11.4476 -11.4378 -11.3822 -11.3324 -11.3297 -11.2439
    -5.4291  -5.3382  -5.2339  -5.2144  -5.1468  -5.0982  -4.9046  -4.8737
    -4.6424  -4.6064  -4.5797  -4.5209  -4.5072  -4.4923  -4.4654  -4.4426
    -4.4131  -4.4055  -4.2705  -4.2308  -3.9303  -3.4410  -2.7814  -2.5206
    -2.4251  -2.3179  -2.0436  -2.0043   3.7987   4.0412   4.8612   5.0479
     5.7661   6.0245   6.1012   6.6067   6.7633   7.1122   7.1995   7.3865
     7.5180   7.6619   7.8199   7.8993   7.9124   8.0395   8.0897   8.1382
     8.2725   8.4206   8.6476   8.8552  10.8346  11.7038  11.7975  12.0525
    12.2632  12.4849  12.7977  12.9015  12.9548  13.1944  13.3899  13.6273
    13.6677  13.7546  13.7876  14.0393  14.3381  14.4227  14.5109  14.6547
    14.7883  15.0071  15.1362  15.2213  15.3513  15.5155  15.5300  15.6487
    15.7654  15.9283  15.9825  16.0623  16.0977  16.2845  16.3075  16.5035
    16.6632  16.9149  16.9414  17.2930  17.4518  17.5830  17.6987  18.1552
    18.2522  18.5750  18.7231  18.9165  18.9540  19.2613  19.6587  20.1071
    20.4124  20.8595  21.0519  21.1290  21.4573  21.7214  21.8319  21.9911
    22.1320  22.2084  22.6151  22.9110  23.4205  23.4730  23.6585  24.0380
    24.1913  24.3439  25.0229  25.0635  25.4586  25.6371  25.7668  25.8060
    26.1287  26.3750  26.4389  26.7379  26.8330  27.0653  27.3063  27.3881
    27.5315  27.8474  27.9508  28.1606  28.4647  28.5673  28.7978  29.1532
    29.3686  29.5656  29.7088  29.8983  30.0508  30.2901  30.5010  30.6890
    30.7758  30.8770  31.1703  31.2637  31.3563  31.3948  31.6581  31.7947
    31.9156  32.0837  32.2675  32.4488  32.5573  32.6601  32.9800  33.2522
    33.2700  33.4505  33.6271  33.9475  34.2379  34.2953  34.4092  34.5199
    34.6374  35.0290  35.0714  35.2414  35.3124  35.4365  35.5836  35.9499
    36.1101  36.1706  36.3363  36.5961  36.6294  36.9405  37.1687  37.2817
    37.3858  37.4845  37.7809  37.8505  38.1096  38.2232  38.3489  38.5953
    38.6450  38.8064  39.1050  39.2886  39.4257  39.4885  39.7015  39.7849
    40.0272  40.1604  40.3362  40.4389  40.4888  40.7453  41.0595  41.1973
    41.2946  41.3552  41.4670  41.6317  41.8473  42.0279  42.2790  42.4087
    42.6063  42.6766  42.8563  42.9241  42.9644  43.2953  43.5201  43.5570

     occupation numbers 
     1.0000   1.0000   1.0000   1.0000   1.0000   1.0000   1.0000   1.0000
     1.0000   1.0000   1.0000   1.0000   1.0000   1.0000   1.0000   1.0000
     1.0000   1.0000   1.0000   1.0000   1.0000   1.0000   1.0000   1.0000
     1.0000   1.0000   1.0000   1.0000   1.0000   1.0000   1.0000   1.0000
     1.0000   1.0000   1.0000   1.0000   1.0000   1.0000   1.0000   1.0000
     1.0000   1.0000   1.0000   1.0000   1.0000   1.0000   1.0000   1.0000
     1.0000   1.0000   1.0000   1.0000   1.0000   1.0000   1.0000   1.0000
     1.0000   1.0000   1.0000   1.0000   1.0000   1.0000   1.0000   1.0000
     1.0000   1.0000   1.0000   1.0000   1.0000   1.0000   1.0000   1.0000
     1.0000   1.0000   1.0000   1.0000   0.0000   0.0000   0.0000   0.0000
     0.0000   0.0000   0.0000   0.0000   0.0000   0.0000   0.0000   0.0000
     0.0000   0.0000   0.0000   0.0000   0.0000   0.0000   0.0000   0.0000
     0.0000   0.0000   0.0000   0.0000   0.0000   0.0000   0.0000   0.0000
     0.0000   0.0000   0.0000   0.0000   0.0000   0.0000   0.0000   0.0000
     0.0000   0.0000   0.0000   0.0000   0.0000   0.0000   0.0000   0.0000
     0.0000   0.0000   0.0000   0.0000   0.0000   0.0000   0.0000   0.0000
     0.0000   0.0000   0.0000   0.0000   0.0000   0.0000   0.0000   0.0000
     0.0000   0.0000   0.0000   0.0000   0.0000   0.0000   0.0000   0.0000
     0.0000   0.0000   0.0000   0.0000   0.0000   0.0000   0.0000   0.0000
     0.0000   0.0000   0.0000   0.0000   0.0000   0.0000   0.0000   0.0000
     0.0000   0.0000   0.0000   0.0000   0.0000   0.0000   0.0000   0.0000
     0.0000   0.0000   0.0000   0.0000   0.0000   0.0000   0.0000   0.0000
     0.0000   0.0000   0.0000   0.0000   0.0000   0.0000   0.0000   0.0000
     0.0000   0.0000   0.0000   0.0000   0.0000   0.0000   0.0000   0.0000
     0.0000   0.0000   0.0000   0.0000   0.0000   0.0000   0.0000   0.0000
     0.0000   0.0000   0.0000   0.0000   0.0000   0.0000   0.0000   0.0000
     0.0000   0.0000   0.0000   0.0000   0.0000   0.0000   0.0000   0.0000
     0.0000   0.0000   0.0000   0.0000   0.0000   0.0000   0.0000   0.0000
     0.0000   0.0000   0.0000   0.0000   0.0000   0.0000   0.0000   0.0000
     0.0000   0.0000   0.0000   0.0000   0.0000   0.0000   0.0000   0.0000
     0.0000   0.0000   0.0000   0.0000   0.0000   0.0000   0.0000   0.0000
     0.0000   0.0000   0.0000   0.0000   0.0000   0.0000   0.0000   0.0000

          k = 0.0000 0.3421 0.3893 (  5442 PWs)   bands (ev):

   -30.5660 -30.5534 -30.5448 -30.5387 -30.3041 -30.2958 -11.7968 -11.7941
   -11.7631 -11.7571 -11.7251 -11.6847 -11.6731 -11.6521 -11.5957 -11.5655
   -11.5238 -11.4721 -11.4502 -11.4455 -11.3762 -11.3565 -11.2934 -11.2600
    -5.3598  -5.3192  -5.2428  -5.2057  -5.1772  -5.1659  -4.9030  -4.8795
    -4.6504  -4.6496  -4.5486  -4.5277  -4.4990  -4.4941  -4.4670  -4.4484
    -4.4049  -4.4029  -4.2628  -4.2440  -3.6512  -3.3280  -2.8686  -2.6463
    -2.3628  -2.3177  -2.1691  -2.1530   4.0816   4.1764   4.5429   4.7273
     5.9178   6.1444   6.2692   6.5316   6.7919   7.0217   7.2938   7.3501
     7.4191   7.6297   7.6793   7.7664   7.8724   7.9540   8.0756   8.1591
     8.2936   8.3682   8.6261   8.7257  11.5526  11.9613  12.0424  12.1780
    12.3814  12.5766  12.7138  13.0470  13.1515  13.3153  13.4615  13.5417
    13.6055  13.9155  13.9806  14.0601  14.2104  14.3119  14.5102  14.7888
    14.8302  14.9112  14.9623  15.1524  15.2163  15.3335  15.4572  15.5421
    15.6699  15.7904  15.9149  15.9622  16.1910  16.2912  16.3648  16.4064
    16.5981  16.7491  16.7896  17.1463  17.3395  17.5170  17.7658  18.1043
    18.4439  18.7042  18.8026  18.8878  19.1549  19.3738  19.6859  19.8291
    20.1327  20.3335  20.8805  21.0453  21.2805  21.4204  21.6752  22.0735
    22.3390  22.5261  22.6212  23.0182  23.1904  23.4048  23.7768  23.9978
    24.2208  24.3902  24.9172  25.0311  25.1587  25.4783  25.7785  25.8125
    25.9010  26.3143  26.5409  26.7255  27.0373  27.0678  27.2568  27.4868
    27.8455  27.9892  28.1881  28.3845  28.5142  28.6692  28.7995  29.2369
    29.3887  29.4208  29.8330  29.9862  30.1923  30.3168  30.5270  30.6966
    30.7616  30.9310  31.0423  31.1987  31.2799  31.6228  31.9214  31.9770
    32.0892  32.2189  32.5363  32.7326  32.8272  33.0791  33.2542  33.4454
    33.7069  33.8767  34.0491  34.1489  34.2436  34.3381  34.5011  34.6883
    34.7641  35.0880  35.3063  35.3453  35.5339  35.7260  35.8032  35.8582
    36.0188  36.1361  36.3958  36.5647  36.6363  36.7743  36.9817  37.0856
    37.1937  37.3503  37.6647  37.7762  37.8313  37.9597  38.1369  38.3379
    38.4214  38.5990  38.6811  38.8097  39.0892  39.2695  39.4284  39.6322
    39.7375  39.7550  40.0851  40.1776  40.2515  40.5380  40.6762  40.7382
    40.9665  41.0793  41.1189  41.5412  41.6849  41.7412  41.8379  41.9682
    42.1414  42.2060  42.4684  42.5198  42.7592  42.9932  43.0681  43.3240

     occupation numbers 
     1.0000   1.0000   1.0000   1.0000   1.0000   1.0000   1.0000   1.0000
     1.0000   1.0000   1.0000   1.0000   1.0000   1.0000   1.0000   1.0000
     1.0000   1.0000   1.0000   1.0000   1.0000   1.0000   1.0000   1.0000
     1.0000   1.0000   1.0000   1.0000   1.0000   1.0000   1.0000   1.0000
     1.0000   1.0000   1.0000   1.0000   1.0000   1.0000   1.0000   1.0000
     1.0000   1.0000   1.0000   1.0000   1.0000   1.0000   1.0000   1.0000
     1.0000   1.0000   1.0000   1.0000   1.0000   1.0000   1.0000   1.0000
     1.0000   1.0000   1.0000   1.0000   1.0000   1.0000   1.0000   1.0000
     1.0000   1.0000   1.0000   1.0000   1.0000   1.0000   1.0000   1.0000
     1.0000   1.0000   1.0000   1.0000   0.0000   0.0000   0.0000   0.0000
     0.0000   0.0000   0.0000   0.0000   0.0000   0.0000   0.0000   0.0000
     0.0000   0.0000   0.0000   0.0000   0.0000   0.0000   0.0000   0.0000
     0.0000   0.0000   0.0000   0.0000   0.0000   0.0000   0.0000   0.0000
     0.0000   0.0000   0.0000   0.0000   0.0000   0.0000   0.0000   0.0000
     0.0000   0.0000   0.0000   0.0000   0.0000   0.0000   0.0000   0.0000
     0.0000   0.0000   0.0000   0.0000   0.0000   0.0000   0.0000   0.0000
     0.0000   0.0000   0.0000   0.0000   0.0000   0.0000   0.0000   0.0000
     0.0000   0.0000   0.0000   0.0000   0.0000   0.0000   0.0000   0.0000
     0.0000   0.0000   0.0000   0.0000   0.0000   0.0000   0.0000   0.0000
     0.0000   0.0000   0.0000   0.0000   0.0000   0.0000   0.0000   0.0000
     0.0000   0.0000   0.0000   0.0000   0.0000   0.0000   0.0000   0.0000
     0.0000   0.0000   0.0000   0.0000   0.0000   0.0000   0.0000   0.0000
     0.0000   0.0000   0.0000   0.0000   0.0000   0.0000   0.0000   0.0000
     0.0000   0.0000   0.0000   0.0000   0.0000   0.0000   0.0000   0.0000
     0.0000   0.0000   0.0000   0.0000   0.0000   0.0000   0.0000   0.0000
     0.0000   0.0000   0.0000   0.0000   0.0000   0.0000   0.0000   0.0000
     0.0000   0.0000   0.0000   0.0000   0.0000   0.0000   0.0000   0.0000
     0.0000   0.0000   0.0000   0.0000   0.0000   0.0000   0.0000   0.0000
     0.0000   0.0000   0.0000   0.0000   0.0000   0.0000   0.0000   0.0000
     0.0000   0.0000   0.0000   0.0000   0.0000   0.0000   0.0000   0.0000
     0.0000   0.0000   0.0000   0.0000   0.0000   0.0000   0.0000   0.0000
     0.0000   0.0000   0.0000   0.0000   0.0000   0.0000   0.0000   0.0000

          k = 0.0000 0.3421-0.3918 (  5445 PWs)   bands (ev):

   -30.5651 -30.5556 -30.5427 -30.5396 -30.3040 -30.2958 -11.8060 -11.7836
   -11.7698 -11.7563 -11.7169 -11.6916 -11.6675 -11.6570 -11.5836 -11.5769
   -11.5219 -11.4733 -11.4484 -11.4440 -11.3752 -11.3607 -11.2952 -11.2571
    -5.3703  -5.3132  -5.2514  -5.2093  -5.1741  -5.1502  -4.8974  -4.8877
    -4.6537  -4.6443  -4.5474  -4.5289  -4.5015  -4.4941  -4.4610  -4.4541
    -4.4065  -4.4025  -4.2639  -4.2438  -3.6519  -3.3297  -2.8264  -2.6398
    -2.3915  -2.3589  -2.2006  -2.0995   4.0409   4.1767   4.6544   4.6915
     5.8038   6.1062   6.4534   6.6628   6.7880   6.9516   7.1729   7.3098
     7.5534   7.5784   7.6890   7.7715   7.8147   7.9881   8.0775   8.2019
     8.2797   8.3209   8.5003   8.7777  11.6266  11.9979  12.1205  12.1975
    12.3778  12.6087  12.7246  12.9294  13.0934  13.2149  13.2873  13.5085
    13.6623  13.8294  13.9512  14.1164  14.2811  14.4227  14.5413  14.6084
    14.8137  14.9256  14.9886  15.1825  15.2160  15.3579  15.4425  15.4727
    15.7028  15.8859  15.9581  16.0551  16.1416  16.1999  16.4744  16.5096
    16.6089  16.9136  16.9950  17.1649  17.3692  17.5211  17.8149  18.0588
    18.3101  18.4743  18.7154  18.9964  19.1573  19.4013  19.4635  19.8261
    20.2879  20.5975  20.7447  20.7860  21.3472  21.3607  21.6335  21.8994
    22.1890  22.4495  22.7399  22.9769  23.4455  23.5153  23.6720  23.8805
    24.1906  24.2292  24.5802  24.7938  25.3067  25.4043  25.7333  26.1821
    26.2698  26.4640  26.6928  26.8427  26.9087  27.1745  27.3089  27.4779
    27.6584  27.9123  28.3837  28.4643  28.6113  28.8267  29.0763  29.1740
    29.3573  29.6082  29.6741  29.8737  30.1445  30.2438  30.4949  30.6576
    30.8763  30.9819  31.0884  31.2223  31.5059  31.6000  31.7795  31.8812
    32.1625  32.2805  32.4745  32.7080  32.7966  32.9641  33.0465  33.1925
    33.4157  33.5818  33.8983  34.0244  34.1317  34.3603  34.5777  34.8134
    34.8568  35.1694  35.2224  35.2863  35.3568  35.6410  35.6742  35.9229
    36.0428  36.3318  36.3439  36.5460  36.6910  36.8506  37.0362  37.1273
    37.3857  37.4949  37.6908  37.8507  37.8716  38.0127  38.2005  38.3640
    38.5616  38.6819  38.8390  38.8742  39.0069  39.2774  39.4381  39.5646
    39.6829  39.8017  39.8980  39.9812  40.2385  40.4403  40.7467  40.8334
    40.8961  40.9407  41.2410  41.3107  41.5322  41.8467  42.0139  42.0649
    42.1878  42.3618  42.5643  42.6562  42.8499  43.0990  43.2227  43.3357

     occupation numbers 
     1.0000   1.0000   1.0000   1.0000   1.0000   1.0000   1.0000   1.0000
     1.0000   1.0000   1.0000   1.0000   1.0000   1.0000   1.0000   1.0000
     1.0000   1.0000   1.0000   1.0000   1.0000   1.0000   1.0000   1.0000
     1.0000   1.0000   1.0000   1.0000   1.0000   1.0000   1.0000   1.0000
     1.0000   1.0000   1.0000   1.0000   1.0000   1.0000   1.0000   1.0000
     1.0000   1.0000   1.0000   1.0000   1.0000   1.0000   1.0000   1.0000
     1.0000   1.0000   1.0000   1.0000   1.0000   1.0000   1.0000   1.0000
     1.0000   1.0000   1.0000   1.0000   1.0000   1.0000   1.0000   1.0000
     1.0000   1.0000   1.0000   1.0000   1.0000   1.0000   1.0000   1.0000
     1.0000   1.0000   1.0000   1.0000   0.0000   0.0000   0.0000   0.0000
     0.0000   0.0000   0.0000   0.0000   0.0000   0.0000   0.0000   0.0000
     0.0000   0.0000   0.0000   0.0000   0.0000   0.0000   0.0000   0.0000
     0.0000   0.0000   0.0000   0.0000   0.0000   0.0000   0.0000   0.0000
     0.0000   0.0000   0.0000   0.0000   0.0000   0.0000   0.0000   0.0000
     0.0000   0.0000   0.0000   0.0000   0.0000   0.0000   0.0000   0.0000
     0.0000   0.0000   0.0000   0.0000   0.0000   0.0000   0.0000   0.0000
     0.0000   0.0000   0.0000   0.0000   0.0000   0.0000   0.0000   0.0000
     0.0000   0.0000   0.0000   0.0000   0.0000   0.0000   0.0000   0.0000
     0.0000   0.0000   0.0000   0.0000   0.0000   0.0000   0.0000   0.0000
     0.0000   0.0000   0.0000   0.0000   0.0000   0.0000   0.0000   0.0000
     0.0000   0.0000   0.0000   0.0000   0.0000   0.0000   0.0000   0.0000
     0.0000   0.0000   0.0000   0.0000   0.0000   0.0000   0.0000   0.0000
     0.0000   0.0000   0.0000   0.0000   0.0000   0.0000   0.0000   0.0000
     0.0000   0.0000   0.0000   0.0000   0.0000   0.0000   0.0000   0.0000
     0.0000   0.0000   0.0000   0.0000   0.0000   0.0000   0.0000   0.0000
     0.0000   0.0000   0.0000   0.0000   0.0000   0.0000   0.0000   0.0000
     0.0000   0.0000   0.0000   0.0000   0.0000   0.0000   0.0000   0.0000
     0.0000   0.0000   0.0000   0.0000   0.0000   0.0000   0.0000   0.0000
     0.0000   0.0000   0.0000   0.0000   0.0000   0.0000   0.0000   0.0000
     0.0000   0.0000   0.0000   0.0000   0.0000   0.0000   0.0000   0.0000
     0.0000   0.0000   0.0000   0.0000   0.0000   0.0000   0.0000   0.0000
     0.0000   0.0000   0.0000   0.0000   0.0000   0.0000   0.0000   0.0000

          k = 0.3333 0.2651-0.0026 (  5423 PWs)   bands (ev):

   -30.5688 -30.5509 -30.5428 -30.5403 -30.3084 -30.2916 -11.7937 -11.7575
   -11.7466 -11.7294 -11.7154 -11.6936 -11.6784 -11.6769 -11.5885 -11.5776
   -11.5457 -11.5181 -11.4463 -11.4308 -11.3851 -11.3283 -11.3236 -11.2475
    -5.4320  -5.3225  -5.2418  -5.2030  -5.1508  -5.0724  -4.9432  -4.8418
    -4.6771  -4.6625  -4.5183  -4.5176  -4.5135  -4.4777  -4.4501  -4.4397
    -4.4063  -4.4051  -4.2885  -4.2172  -3.9326  -3.1835  -3.1442  -2.3900
    -2.3656  -2.3548  -2.1344  -2.0039   3.8406   3.9654   4.8397   5.1894
     5.7628   6.1862   6.2091   6.3442   6.5819   6.8171   7.2737   7.4496
     7.7183   7.7693   7.8269   7.8669   7.9763   8.0327   8.0653   8.1973
     8.3655   8.3772   8.5227   8.7487  11.0135  11.8970  11.9002  12.0185
    12.1880  12.2308  12.5796  12.7884  12.9767  13.0862  13.2159  13.3929
    13.4964  13.9759  14.0880  14.1317  14.2729  14.6163  14.6470  14.6954
    14.7791  14.8698  15.0011  15.1160  15.4044  15.4537  15.4919  15.5224
    15.9370  15.9417  16.1038  16.1157  16.1612  16.5139  16.5996  16.6407
    16.6832  16.8007  17.0623  17.3820  17.4445  17.7824  17.8359  18.0741
    18.5860  18.6215  18.8610  19.0075  19.1201  19.3355  19.6041  19.7818
    20.3311  20.5775  20.7561  20.8944  21.1228  21.4433  21.6137  21.6369
    21.9224  22.0150  22.3266  22.7363  23.3464  23.7461  24.1097  24.2073
    24.2307  24.4859  24.6791  25.0027  25.2305  25.4678  25.6905  26.1860
    26.2532  26.4851  26.5412  26.6378  26.9254  27.2005  27.2183  27.5240
    27.6406  27.9181  28.2836  28.5240  28.7244  28.8494  29.0679  29.1051
    29.3418  29.4682  29.8605  30.0033  30.0163  30.1790  30.1838  30.4714
    30.7070  30.8173  30.9060  31.1385  31.3251  31.5758  31.5970  31.8561
    32.0070  32.0694  32.4050  32.5935  32.7292  32.8827  32.9085  33.1272
    33.4009  33.4120  33.6826  33.9058  33.9614  34.0428  34.1329  34.2690
    34.3604  34.6929  34.8329  35.1483  35.1500  35.3874  35.6987  35.7292
    36.2685  36.3457  36.4277  36.9439  36.9879  37.0644  37.1430  37.1736
    37.4851  37.8364  37.9529  37.9936  38.3266  38.4744  38.5107  38.6993
    38.8238  38.8908  39.0829  39.2894  39.3759  39.5451  39.7844  39.8259
    39.8936  40.2068  40.4745  40.5116  40.6774  40.8493  40.9819  41.0070
    41.1565  41.3922  41.4136  41.5370  41.7524  41.9752  42.0680  42.1332
    42.4000  42.6386  42.8708  43.0063  43.1700  43.1801  43.3365  43.4933

     occupation numbers 
     1.0000   1.0000   1.0000   1.0000   1.0000   1.0000   1.0000   1.0000
     1.0000   1.0000   1.0000   1.0000   1.0000   1.0000   1.0000   1.0000
     1.0000   1.0000   1.0000   1.0000   1.0000   1.0000   1.0000   1.0000
     1.0000   1.0000   1.0000   1.0000   1.0000   1.0000   1.0000   1.0000
     1.0000   1.0000   1.0000   1.0000   1.0000   1.0000   1.0000   1.0000
     1.0000   1.0000   1.0000   1.0000   1.0000   1.0000   1.0000   1.0000
     1.0000   1.0000   1.0000   1.0000   1.0000   1.0000   1.0000   1.0000
     1.0000   1.0000   1.0000   1.0000   1.0000   1.0000   1.0000   1.0000
     1.0000   1.0000   1.0000   1.0000   1.0000   1.0000   1.0000   1.0000
     1.0000   1.0000   1.0000   1.0000   0.0000   0.0000   0.0000   0.0000
     0.0000   0.0000   0.0000   0.0000   0.0000   0.0000   0.0000   0.0000
     0.0000   0.0000   0.0000   0.0000   0.0000   0.0000   0.0000   0.0000
     0.0000   0.0000   0.0000   0.0000   0.0000   0.0000   0.0000   0.0000
     0.0000   0.0000   0.0000   0.0000   0.0000   0.0000   0.0000   0.0000
     0.0000   0.0000   0.0000   0.0000   0.0000   0.0000   0.0000   0.0000
     0.0000   0.0000   0.0000   0.0000   0.0000   0.0000   0.0000   0.0000
     0.0000   0.0000   0.0000   0.0000   0.0000   0.0000   0.0000   0.0000
     0.0000   0.0000   0.0000   0.0000   0.0000   0.0000   0.0000   0.0000
     0.0000   0.0000   0.0000   0.0000   0.0000   0.0000   0.0000   0.0000
     0.0000   0.0000   0.0000   0.0000   0.0000   0.0000   0.0000   0.0000
     0.0000   0.0000   0.0000   0.0000   0.0000   0.0000   0.0000   0.0000
     0.0000   0.0000   0.0000   0.0000   0.0000   0.0000   0.0000   0.0000
     0.0000   0.0000   0.0000   0.0000   0.0000   0.0000   0.0000   0.0000
     0.0000   0.0000   0.0000   0.0000   0.0000   0.0000   0.0000   0.0000
     0.0000   0.0000   0.0000   0.0000   0.0000   0.0000   0.0000   0.0000
     0.0000   0.0000   0.0000   0.0000   0.0000   0.0000   0.0000   0.0000
     0.0000   0.0000   0.0000   0.0000   0.0000   0.0000   0.0000   0.0000
     0.0000   0.0000   0.0000   0.0000   0.0000   0.0000   0.0000   0.0000
     0.0000   0.0000   0.0000   0.0000   0.0000   0.0000   0.0000   0.0000
     0.0000   0.0000   0.0000   0.0000   0.0000   0.0000   0.0000   0.0000
     0.0000   0.0000   0.0000   0.0000   0.0000   0.0000   0.0000   0.0000
     0.0000   0.0000   0.0000   0.0000   0.0000   0.0000   0.0000   0.0000

          k = 0.3333 0.2651 0.3880 (  5426 PWs)   bands (ev):

   -30.5647 -30.5519 -30.5458 -30.5406 -30.3042 -30.2957 -11.7943 -11.7884
   -11.7654 -11.7567 -11.7198 -11.6812 -11.6510 -11.6501 -11.5958 -11.5605
   -11.5328 -11.5119 -11.4500 -11.4413 -11.3847 -11.3581 -11.2875 -11.2617
    -5.3835  -5.2678  -5.2588  -5.1901  -5.1866  -5.1533  -4.9240  -4.8709
    -4.6795  -4.6792  -4.5147  -4.5041  -4.4945  -4.4711  -4.4692  -4.4469
    -4.4045  -4.4008  -4.2727  -4.2393  -3.6773  -3.2300  -2.9618  -2.4493
    -2.4483  -2.3542  -2.2355  -2.1896   4.0632   4.2105   4.3968   4.8528
     5.9291   6.0076   6.3463   6.7181   6.9767   6.9863   7.2299   7.3942
     7.4205   7.5799   7.6465   7.7488   7.7986   8.0339   8.1492   8.1843
     8.2424   8.2916   8.4535   8.5696  11.5538  12.0009  12.2027  12.2437
    12.5239  12.7159  12.8270  12.9001  13.0926  13.1720  13.4465  13.4669
    13.6665  13.7811  13.8201  14.0865  14.2968  14.4213  14.5814  14.6555
    14.7161  14.7369  15.1193  15.1520  15.2358  15.3265  15.4478  15.6459
    15.6852  15.8096  16.0012  16.1187  16.2170  16.3238  16.4523  16.5104
    16.6315  16.7075  16.9535  17.1784  17.3740  17.6131  17.9758  18.0297
    18.2717  18.3332  18.7354  18.8471  19.1396  19.2137  19.7019  19.7766
    20.1422  20.2670  20.8524  21.0487  21.4053  21.5633  21.7403  22.0750
    22.1101  22.5821  22.6683  23.0539  23.1562  23.4342  23.4441  23.8358
    24.4964  24.5651  24.8015  24.9001  24.9275  25.2865  25.5514  25.7067
    26.0845  26.2072  26.5204  26.6064  26.8647  27.0126  27.4576  27.6433
    27.9709  28.0165  28.0267  28.1747  28.4724  28.6632  28.9921  29.1715
    29.3081  29.8700  29.9269  29.9792  30.3131  30.3571  30.5875  31.0267
    31.1663  31.2272  31.3146  31.4547  31.4789  31.7130  31.9722  31.9829
    32.0859  32.1463  32.4273  32.5048  32.7857  32.8293  33.3887  33.5296
    33.5680  33.7283  33.8038  34.1336  34.2040  34.3876  34.4649  34.5166
    34.6627  35.0609  35.1638  35.3068  35.4109  35.4882  35.6231  35.7135
    35.7715  35.9395  36.3346  36.4757  36.5671  36.8828  37.1520  37.1947
    37.2296  37.3475  37.5711  37.6217  37.6616  38.2843  38.3410  38.4944
    38.5708  38.8514  38.8815  39.2523  39.2853  39.3213  39.4394  39.6594
    39.6614  40.0237  40.1598  40.4560  40.4942  40.6066  40.6755  40.7698
    40.8503  40.9447  41.3135  41.5403  41.6373  41.6844  41.9291  42.0401
    42.1485  42.2349  42.4130  42.6356  43.1456  43.2038  43.2821  43.3380

     occupation numbers 
     1.0000   1.0000   1.0000   1.0000   1.0000   1.0000   1.0000   1.0000
     1.0000   1.0000   1.0000   1.0000   1.0000   1.0000   1.0000   1.0000
     1.0000   1.0000   1.0000   1.0000   1.0000   1.0000   1.0000   1.0000
     1.0000   1.0000   1.0000   1.0000   1.0000   1.0000   1.0000   1.0000
     1.0000   1.0000   1.0000   1.0000   1.0000   1.0000   1.0000   1.0000
     1.0000   1.0000   1.0000   1.0000   1.0000   1.0000   1.0000   1.0000
     1.0000   1.0000   1.0000   1.0000   1.0000   1.0000   1.0000   1.0000
     1.0000   1.0000   1.0000   1.0000   1.0000   1.0000   1.0000   1.0000
     1.0000   1.0000   1.0000   1.0000   1.0000   1.0000   1.0000   1.0000
     1.0000   1.0000   1.0000   1.0000   0.0000   0.0000   0.0000   0.0000
     0.0000   0.0000   0.0000   0.0000   0.0000   0.0000   0.0000   0.0000
     0.0000   0.0000   0.0000   0.0000   0.0000   0.0000   0.0000   0.0000
     0.0000   0.0000   0.0000   0.0000   0.0000   0.0000   0.0000   0.0000
     0.0000   0.0000   0.0000   0.0000   0.0000   0.0000   0.0000   0.0000
     0.0000   0.0000   0.0000   0.0000   0.0000   0.0000   0.0000   0.0000
     0.0000   0.0000   0.0000   0.0000   0.0000   0.0000   0.0000   0.0000
     0.0000   0.0000   0.0000   0.0000   0.0000   0.0000   0.0000   0.0000
     0.0000   0.0000   0.0000   0.0000   0.0000   0.0000   0.0000   0.0000
     0.0000   0.0000   0.0000   0.0000   0.0000   0.0000   0.0000   0.0000
     0.0000   0.0000   0.0000   0.0000   0.0000   0.0000   0.0000   0.0000
     0.0000   0.0000   0.0000   0.0000   0.0000   0.0000   0.0000   0.0000
     0.0000   0.0000   0.0000   0.0000   0.0000   0.0000   0.0000   0.0000
     0.0000   0.0000   0.0000   0.0000   0.0000   0.0000   0.0000   0.0000
     0.0000   0.0000   0.0000   0.0000   0.0000   0.0000   0.0000   0.0000
     0.0000   0.0000   0.0000   0.0000   0.0000   0.0000   0.0000   0.0000
     0.0000   0.0000   0.0000   0.0000   0.0000   0.0000   0.0000   0.0000
     0.0000   0.0000   0.0000   0.0000   0.0000   0.0000   0.0000   0.0000
     0.0000   0.0000   0.0000   0.0000   0.0000   0.0000   0.0000   0.0000
     0.0000   0.0000   0.0000   0.0000   0.0000   0.0000   0.0000   0.0000
     0.0000   0.0000   0.0000   0.0000   0.0000   0.0000   0.0000   0.0000
     0.0000   0.0000   0.0000   0.0000   0.0000   0.0000   0.0000   0.0000
     0.0000   0.0000   0.0000   0.0000   0.0000   0.0000   0.0000   0.0000

          k = 0.3333 0.2651-0.3931 (  5442 PWs)   bands (ev):

   -30.5628 -30.5561 -30.5426 -30.5415 -30.3041 -30.2958 -11.8071 -11.7891
   -11.7705 -11.7388 -11.6984 -11.6971 -11.6548 -11.6544 -11.5824 -11.5685
   -11.5448 -11.5045 -11.4471 -11.4377 -11.3835 -11.3652 -11.2908 -11.2563
    -5.3884  -5.2946  -5.2453  -5.2066  -5.1812  -5.1173  -4.9199  -4.8808
    -4.6789  -4.6779  -4.5169  -4.5034  -4.4963  -4.4702  -4.4656  -4.4521
    -4.4048  -4.4027  -4.2759  -4.2374  -3.6778  -3.2572  -2.8466  -2.4956
    -2.4820  -2.3536  -2.3169  -2.1186   3.9436   4.2553   4.5292   4.7838
     5.8123   6.1978   6.4711   6.8716   6.9540   6.9919   7.0921   7.2835
     7.4723   7.5088   7.6940   7.8656   7.9132   7.9677   8.0431   8.1298
     8.2807   8.2959   8.3397   8.3657  11.7962  12.0939  12.1518  12.3068
    12.5440  12.5655  12.9111  12.9311  13.0936  13.2716  13.3198  13.4859
    13.5180  13.5763  13.9009  13.9910  14.1437  14.3083  14.4459  14.4680
    14.8220  14.9401  15.0170  15.0470  15.2543  15.2651  15.5640  15.7024
    15.8697  15.9241  15.9940  16.1199  16.1952  16.5459  16.5763  16.6014
    16.7759  16.9717  17.1368  17.3739  17.4934  17.6443  17.7309  17.9522
    18.1586  18.6468  18.8243  18.8398  19.0794  19.1239  19.4427  19.4807
    19.9745  20.1143  20.6740  20.8274  21.2624  21.3789  21.9651  22.0170
    22.2540  22.2842  22.7268  22.9690  23.2857  23.4179  23.6012  23.8152
    24.1156  24.1706  24.2666  25.0340  25.4433  25.7718  25.7937  25.8958
    26.2391  26.2449  26.5335  26.6060  26.8114  27.0677  27.5763  27.8161
    28.0715  28.1045  28.2781  28.4921  28.6387  28.7912  28.8049  28.9522
    29.4718  29.7868  29.8412  29.8439  30.2367  30.4260  30.8229  30.8647
    30.8778  31.1473  31.3180  31.3839  31.4078  31.6631  31.7950  32.0210
    32.2171  32.3277  32.4434  32.7072  32.9802  32.9879  33.0971  33.3222
    33.4600  33.5524  33.6550  33.8437  34.0171  34.1313  34.1849  34.6182
    34.8238  34.9170  34.9740  35.1977  35.2169  35.4119  35.5593  35.8487
    36.0791  36.2661  36.2708  36.5582  36.7843  36.8248  36.9825  37.0466
    37.0766  37.3998  37.5589  37.6743  37.6915  38.1338  38.1906  38.4344
    38.5105  38.7713  38.9490  39.0463  39.1115  39.4554  39.6272  39.7920
    39.9126  39.9569  40.3640  40.4203  40.5527  40.6805  40.7209  41.0997
    41.1361  41.2562  41.3595  41.4560  41.7736  41.8305  42.0618  42.0745
    42.4135  42.4401  42.7291  42.8459  42.8949  43.0211  43.0641  43.3124

     occupation numbers 
     1.0000   1.0000   1.0000   1.0000   1.0000   1.0000   1.0000   1.0000
     1.0000   1.0000   1.0000   1.0000   1.0000   1.0000   1.0000   1.0000
     1.0000   1.0000   1.0000   1.0000   1.0000   1.0000   1.0000   1.0000
     1.0000   1.0000   1.0000   1.0000   1.0000   1.0000   1.0000   1.0000
     1.0000   1.0000   1.0000   1.0000   1.0000   1.0000   1.0000   1.0000
     1.0000   1.0000   1.0000   1.0000   1.0000   1.0000   1.0000   1.0000
     1.0000   1.0000   1.0000   1.0000   1.0000   1.0000   1.0000   1.0000
     1.0000   1.0000   1.0000   1.0000   1.0000   1.0000   1.0000   1.0000
     1.0000   1.0000   1.0000   1.0000   1.0000   1.0000   1.0000   1.0000
     1.0000   1.0000   1.0000   1.0000   0.0000   0.0000   0.0000   0.0000
     0.0000   0.0000   0.0000   0.0000   0.0000   0.0000   0.0000   0.0000
     0.0000   0.0000   0.0000   0.0000   0.0000   0.0000   0.0000   0.0000
     0.0000   0.0000   0.0000   0.0000   0.0000   0.0000   0.0000   0.0000
     0.0000   0.0000   0.0000   0.0000   0.0000   0.0000   0.0000   0.0000
     0.0000   0.0000   0.0000   0.0000   0.0000   0.0000   0.0000   0.0000
     0.0000   0.0000   0.0000   0.0000   0.0000   0.0000   0.0000   0.0000
     0.0000   0.0000   0.0000   0.0000   0.0000   0.0000   0.0000   0.0000
     0.0000   0.0000   0.0000   0.0000   0.0000   0.0000   0.0000   0.0000
     0.0000   0.0000   0.0000   0.0000   0.0000   0.0000   0.0000   0.0000
     0.0000   0.0000   0.0000   0.0000   0.0000   0.0000   0.0000   0.0000
     0.0000   0.0000   0.0000   0.0000   0.0000   0.0000   0.0000   0.0000
     0.0000   0.0000   0.0000   0.0000   0.0000   0.0000   0.0000   0.0000
     0.0000   0.0000   0.0000   0.0000   0.0000   0.0000   0.0000   0.0000
     0.0000   0.0000   0.0000   0.0000   0.0000   0.0000   0.0000   0.0000
     0.0000   0.0000   0.0000   0.0000   0.0000   0.0000   0.0000   0.0000
     0.0000   0.0000   0.0000   0.0000   0.0000   0.0000   0.0000   0.0000
     0.0000   0.0000   0.0000   0.0000   0.0000   0.0000   0.0000   0.0000
     0.0000   0.0000   0.0000   0.0000   0.0000   0.0000   0.0000   0.0000
     0.0000   0.0000   0.0000   0.0000   0.0000   0.0000   0.0000   0.0000
     0.0000   0.0000   0.0000   0.0000   0.0000   0.0000   0.0000   0.0000
     0.0000   0.0000   0.0000   0.0000   0.0000   0.0000   0.0000   0.0000
     0.0000   0.0000   0.0000   0.0000   0.0000   0.0000   0.0000   0.0000

          k = 0.3333 0.6072-0.0039 (  5428 PWs)   bands (ev):

   -30.5687 -30.5503 -30.5445 -30.5394 -30.3083 -30.2917 -11.7962 -11.7679
   -11.7362 -11.7326 -11.7065 -11.6937 -11.6894 -11.6726 -11.5965 -11.5694
   -11.5326 -11.5149 -11.4499 -11.4357 -11.3861 -11.3292 -11.3288 -11.2452
    -5.3896  -5.3732  -5.2326  -5.2125  -5.1381  -5.1162  -4.9108  -4.8501
    -4.6482  -4.6094  -4.5713  -4.5166  -4.5118  -4.4888  -4.4570  -4.4493
    -4.4096  -4.4062  -4.2637  -4.2336  -3.6979  -3.6129  -2.8590  -2.4939
    -2.4517  -2.3429  -2.1061  -1.9593   3.8858   4.0466   4.9490   5.1125
     5.7242   6.1708   6.2907   6.5750   6.7318   6.9595   7.1117   7.3166
     7.4056   7.6082   7.6827   7.7697   7.9329   8.0231   8.0721   8.2355
     8.2591   8.4171   8.4967   8.6827  11.3614  11.6585  11.8133  12.2588
    12.3886  12.4115  12.5641  12.5958  12.8279  13.1814  13.4154  13.6352
    13.7693  13.8994  14.1730  14.2789  14.3176  14.4015  14.5726  14.7988
    14.8076  14.9224  15.0855  15.1384  15.2226  15.4682  15.5673  15.7426
    15.7742  15.8308  15.9203  16.1710  16.2150  16.2977  16.3205  16.6275
    16.9516  17.0144  17.0293  17.3725  17.5065  17.5781  17.8726  17.8994
    18.1072  18.5227  18.5944  19.0412  19.0604  19.3667  19.6687  20.0226
    20.3582  20.3958  20.6165  20.6398  20.8133  21.3162  21.4870  22.3293
    22.3956  22.5769  22.8751  22.9028  23.0407  23.3848  23.4426  23.5653
    24.4443  24.5819  24.8903  25.2026  25.3713  25.5537  25.7622  25.8581
    26.0457  26.3933  26.6370  26.9211  26.9618  27.3431  27.3560  27.7524
    27.8755  27.9707  28.0730  28.4310  28.5828  28.7400  28.7588  29.2002
    29.3123  29.7091  29.8199  30.0777  30.1033  30.3407  30.3432  30.5189
    30.6859  30.9684  31.1033  31.2679  31.2883  31.5556  31.7522  31.7795
    31.8526  32.0837  32.1421  32.4251  32.4617  32.6882  32.7110  33.3006
    33.3270  33.4686  33.7397  33.7856  33.9909  34.1393  34.2562  34.3816
    34.8513  34.9425  35.0840  35.2034  35.3473  35.5112  35.5312  35.7702
    35.9154  36.2302  36.3970  36.5600  36.6210  36.7346  36.8995  36.9891
    37.2571  37.5388  37.6768  37.7370  37.8431  38.3265  38.3538  38.4961
    38.6135  38.8516  38.9547  39.4557  39.4643  39.5210  39.6466  39.9325
    40.2134  40.3646  40.6763  40.6834  40.7389  40.9440  40.9757  41.3486
    41.3620  41.5789  41.6774  41.7817  41.8169  41.9046  42.0196  42.3924
    42.5539  42.7796  43.0484  43.1123  43.1320  43.4407  43.7005  43.7338

     occupation numbers 
     1.0000   1.0000   1.0000   1.0000   1.0000   1.0000   1.0000   1.0000
     1.0000   1.0000   1.0000   1.0000   1.0000   1.0000   1.0000   1.0000
     1.0000   1.0000   1.0000   1.0000   1.0000   1.0000   1.0000   1.0000
     1.0000   1.0000   1.0000   1.0000   1.0000   1.0000   1.0000   1.0000
     1.0000   1.0000   1.0000   1.0000   1.0000   1.0000   1.0000   1.0000
     1.0000   1.0000   1.0000   1.0000   1.0000   1.0000   1.0000   1.0000
     1.0000   1.0000   1.0000   1.0000   1.0000   1.0000   1.0000   1.0000
     1.0000   1.0000   1.0000   1.0000   1.0000   1.0000   1.0000   1.0000
     1.0000   1.0000   1.0000   1.0000   1.0000   1.0000   1.0000   1.0000
     1.0000   1.0000   1.0000   1.0000   0.0000   0.0000   0.0000   0.0000
     0.0000   0.0000   0.0000   0.0000   0.0000   0.0000   0.0000   0.0000
     0.0000   0.0000   0.0000   0.0000   0.0000   0.0000   0.0000   0.0000
     0.0000   0.0000   0.0000   0.0000   0.0000   0.0000   0.0000   0.0000
     0.0000   0.0000   0.0000   0.0000   0.0000   0.0000   0.0000   0.0000
     0.0000   0.0000   0.0000   0.0000   0.0000   0.0000   0.0000   0.0000
     0.0000   0.0000   0.0000   0.0000   0.0000   0.0000   0.0000   0.0000
     0.0000   0.0000   0.0000   0.0000   0.0000   0.0000   0.0000   0.0000
     0.0000   0.0000   0.0000   0.0000   0.0000   0.0000   0.0000   0.0000
     0.0000   0.0000   0.0000   0.0000   0.0000   0.0000   0.0000   0.0000
     0.0000   0.0000   0.0000   0.0000   0.0000   0.0000   0.0000   0.0000
     0.0000   0.0000   0.0000   0.0000   0.0000   0.0000   0.0000   0.0000
     0.0000   0.0000   0.0000   0.0000   0.0000   0.0000   0.0000   0.0000
     0.0000   0.0000   0.0000   0.0000   0.0000   0.0000   0.0000   0.0000
     0.0000   0.0000   0.0000   0.0000   0.0000   0.0000   0.0000   0.0000
     0.0000   0.0000   0.0000   0.0000   0.0000   0.0000   0.0000   0.0000
     0.0000   0.0000   0.0000   0.0000   0.0000   0.0000   0.0000   0.0000
     0.0000   0.0000   0.0000   0.0000   0.0000   0.0000   0.0000   0.0000
     0.0000   0.0000   0.0000   0.0000   0.0000   0.0000   0.0000   0.0000
     0.0000   0.0000   0.0000   0.0000   0.0000   0.0000   0.0000   0.0000
     0.0000   0.0000   0.0000   0.0000   0.0000   0.0000   0.0000   0.0000
     0.0000   0.0000   0.0000   0.0000   0.0000   0.0000   0.0000   0.0000
     0.0000   0.0000   0.0000   0.0000   0.0000   0.0000   0.0000   0.0000

          k = 0.3333 0.6072 0.3867 (  5429 PWs)   bands (ev):

   -30.5638 -30.5542 -30.5439 -30.5411 -30.3041 -30.2958 -11.7948 -11.7749
   -11.7696 -11.7540 -11.7154 -11.6992 -11.6608 -11.6499 -11.5867 -11.5684
   -11.5239 -11.5127 -11.4483 -11.4434 -11.3794 -11.3596 -11.2917 -11.2586
    -5.3680  -5.3058  -5.2396  -5.2122  -5.1907  -5.1512  -4.8972  -4.8681
    -4.6515  -4.6412  -4.5478  -4.5308  -4.5002  -4.4926  -4.4589  -4.4543
    -4.4053  -4.4034  -4.2594  -4.2436  -3.5054  -3.3930  -2.8517  -2.6645
    -2.4738  -2.3066  -2.2141  -2.1575   4.0752   4.2681   4.5705   4.9197
     5.9385   6.2140   6.3728   6.5339   6.6931   6.9876   7.1366   7.2905
     7.4927   7.5676   7.5903   7.7678   7.9277   8.0160   8.0449   8.1074
     8.2054   8.2773   8.3673   8.4773  11.8170  11.9482  12.2151  12.3216
    12.4288  12.7423  12.8445  13.0731  13.1314  13.1970  13.3658  13.5191
    13.7940  13.8631  14.0234  14.1434  14.2830  14.3306  14.6972  14.8166
    14.8857  14.9552  15.0072  15.1849  15.2267  15.3298  15.4408  15.5400
    15.6515  15.7315  15.8615  15.9907  16.0269  16.1706  16.3930  16.4188
    16.6138  16.8406  17.1698  17.1965  17.3089  17.4838  17.7639  18.1487
    18.3512  18.5649  18.6471  19.0318  19.2366  19.3392  19.6764  19.7845
    19.8569  20.1841  20.3568  20.7228  21.0336  21.2688  21.6343  22.1953
    22.2254  22.5133  22.6897  22.9063  23.2089  23.6631  23.7139  24.0474
    24.1777  24.4125  24.7153  25.0619  25.1314  25.3545  25.4266  26.0749
    26.1769  26.2783  26.6102  26.7677  27.1231  27.2948  27.4987  27.6993
    27.9100  28.0161  28.1659  28.4821  28.6704  28.8988  28.9961  29.1952
    29.3453  29.6298  29.7731  29.7790  29.9150  30.3635  30.6143  30.7676
    31.1301  31.2946  31.4280  31.4642  31.6582  31.7729  31.9926  32.0163
    32.1362  32.2719  32.3745  32.5532  32.8175  32.9737  33.1201  33.2157
    33.4398  33.6147  33.7313  33.8442  34.0740  34.2790  34.5333  34.5720
    34.8001  34.9508  35.0987  35.1561  35.3801  35.5150  35.5612  35.7977
    35.8509  36.0601  36.3215  36.3970  36.5956  36.6383  36.8660  36.9320
    37.2186  37.3495  37.5054  37.7496  37.8497  37.9631  38.2292  38.3412
    38.4269  38.5711  38.9681  39.0243  39.3170  39.4321  39.6183  39.7521
    39.7896  40.0343  40.1453  40.2016  40.4227  40.6623  40.9511  41.0165
    41.1291  41.3385  41.4559  41.5637  41.6003  41.6833  41.9493  42.0317
    42.1746  42.2961  42.3986  42.7017  42.8031  42.8925  43.0907  43.2811

     occupation numbers 
     1.0000   1.0000   1.0000   1.0000   1.0000   1.0000   1.0000   1.0000
     1.0000   1.0000   1.0000   1.0000   1.0000   1.0000   1.0000   1.0000
     1.0000   1.0000   1.0000   1.0000   1.0000   1.0000   1.0000   1.0000
     1.0000   1.0000   1.0000   1.0000   1.0000   1.0000   1.0000   1.0000
     1.0000   1.0000   1.0000   1.0000   1.0000   1.0000   1.0000   1.0000
     1.0000   1.0000   1.0000   1.0000   1.0000   1.0000   1.0000   1.0000
     1.0000   1.0000   1.0000   1.0000   1.0000   1.0000   1.0000   1.0000
     1.0000   1.0000   1.0000   1.0000   1.0000   1.0000   1.0000   1.0000
     1.0000   1.0000   1.0000   1.0000   1.0000   1.0000   1.0000   1.0000
     1.0000   1.0000   1.0000   1.0000   0.0000   0.0000   0.0000   0.0000
     0.0000   0.0000   0.0000   0.0000   0.0000   0.0000   0.0000   0.0000
     0.0000   0.0000   0.0000   0.0000   0.0000   0.0000   0.0000   0.0000
     0.0000   0.0000   0.0000   0.0000   0.0000   0.0000   0.0000   0.0000
     0.0000   0.0000   0.0000   0.0000   0.0000   0.0000   0.0000   0.0000
     0.0000   0.0000   0.0000   0.0000   0.0000   0.0000   0.0000   0.0000
     0.0000   0.0000   0.0000   0.0000   0.0000   0.0000   0.0000   0.0000
     0.0000   0.0000   0.0000   0.0000   0.0000   0.0000   0.0000   0.0000
     0.0000   0.0000   0.0000   0.0000   0.0000   0.0000   0.0000   0.0000
     0.0000   0.0000   0.0000   0.0000   0.0000   0.0000   0.0000   0.0000
     0.0000   0.0000   0.0000   0.0000   0.0000   0.0000   0.0000   0.0000
     0.0000   0.0000   0.0000   0.0000   0.0000   0.0000   0.0000   0.0000
     0.0000   0.0000   0.0000   0.0000   0.0000   0.0000   0.0000   0.0000
     0.0000   0.0000   0.0000   0.0000   0.0000   0.0000   0.0000   0.0000
     0.0000   0.0000   0.0000   0.0000   0.0000   0.0000   0.0000   0.0000
     0.0000   0.0000   0.0000   0.0000   0.0000   0.0000   0.0000   0.0000
     0.0000   0.0000   0.0000   0.0000   0.0000   0.0000   0.0000   0.0000
     0.0000   0.0000   0.0000   0.0000   0.0000   0.0000   0.0000   0.0000
     0.0000   0.0000   0.0000   0.0000   0.0000   0.0000   0.0000   0.0000
     0.0000   0.0000   0.0000   0.0000   0.0000   0.0000   0.0000   0.0000
     0.0000   0.0000   0.0000   0.0000   0.0000   0.0000   0.0000   0.0000
     0.0000   0.0000   0.0000   0.0000   0.0000   0.0000   0.0000   0.0000
     0.0000   0.0000   0.0000   0.0000   0.0000   0.0000   0.0000   0.0000

          k = 0.3333 0.6072-0.3944 (  5429 PWs)   bands (ev):

   -30.5638 -30.5542 -30.5439 -30.5411 -30.3041 -30.2958 -11.7948 -11.7749
   -11.7696 -11.7540 -11.7154 -11.6992 -11.6608 -11.6499 -11.5867 -11.5684
   -11.5239 -11.5127 -11.4483 -11.4434 -11.3794 -11.3596 -11.2917 -11.2586
    -5.3680  -5.3058  -5.2397  -5.2122  -5.1908  -5.1512  -4.8972  -4.8681
    -4.6515  -4.6413  -4.5478  -4.5308  -4.5002  -4.4926  -4.4589  -4.4543
    -4.4053  -4.4034  -4.2594  -4.2436  -3.5054  -3.3930  -2.8517  -2.6645
    -2.4738  -2.3066  -2.2141  -2.1575   4.0752   4.2681   4.5705   4.9197
     5.9385   6.2140   6.3728   6.5339   6.6931   6.9876   7.1366   7.2905
     7.4927   7.5676   7.5903   7.7678   7.9277   8.0160   8.0449   8.1074
     8.2054   8.2773   8.3673   8.4773  11.8170  11.9482  12.2151  12.3216
    12.4288  12.7423  12.8445  13.0731  13.1314  13.1970  13.3658  13.5191
    13.7940  13.8631  14.0234  14.1434  14.2830  14.3306  14.6972  14.8166
    14.8857  14.9552  15.0072  15.1849  15.2267  15.3298  15.4408  15.5400
    15.6515  15.7315  15.8615  15.9907  16.0269  16.1706  16.3930  16.4188
    16.6138  16.8406  17.1698  17.1965  17.3089  17.4838  17.7639  18.1487
    18.3512  18.5649  18.6471  19.0318  19.2365  19.3392  19.6764  19.7845
    19.8569  20.1841  20.3568  20.7228  21.0336  21.2688  21.6344  22.1953
    22.2254  22.5134  22.6897  22.9062  23.2089  23.6632  23.7138  24.0474
    24.1777  24.4125  24.7153  25.0619  25.1314  25.3545  25.4266  26.0749
    26.1769  26.2783  26.6102  26.7677  27.1231  27.2947  27.4987  27.6993
    27.9100  28.0161  28.1659  28.4821  28.6704  28.8988  28.9961  29.1952
    29.3453  29.6298  29.7731  29.7790  29.9150  30.3635  30.6143  30.7676
    31.1301  31.2946  31.4280  31.4642  31.6582  31.7729  31.9926  32.0163
    32.1362  32.2719  32.3744  32.5532  32.8175  32.9737  33.1201  33.2157
    33.4398  33.6147  33.7313  33.8442  34.0740  34.2790  34.5333  34.5720
    34.8001  34.9508  35.0987  35.1561  35.3801  35.5149  35.5612  35.7977
    35.8509  36.0601  36.3215  36.3970  36.5956  36.6383  36.8660  36.9320
    37.2186  37.3495  37.5054  37.7496  37.8497  37.9631  38.2292  38.3412
    38.4269  38.5711  38.9681  39.0243  39.3170  39.4321  39.6183  39.7521
    39.7896  40.0343  40.1453  40.2017  40.4227  40.6623  40.9511  41.0164
    41.1291  41.3385  41.4560  41.5637  41.6003  41.6833  41.9494  42.0317
    42.1746  42.2961  42.3986  42.7017  42.8032  42.8925  43.0907  43.2812

     occupation numbers 
     1.0000   1.0000   1.0000   1.0000   1.0000   1.0000   1.0000   1.0000
     1.0000   1.0000   1.0000   1.0000   1.0000   1.0000   1.0000   1.0000
     1.0000   1.0000   1.0000   1.0000   1.0000   1.0000   1.0000   1.0000
     1.0000   1.0000   1.0000   1.0000   1.0000   1.0000   1.0000   1.0000
     1.0000   1.0000   1.0000   1.0000   1.0000   1.0000   1.0000   1.0000
     1.0000   1.0000   1.0000   1.0000   1.0000   1.0000   1.0000   1.0000
     1.0000   1.0000   1.0000   1.0000   1.0000   1.0000   1.0000   1.0000
     1.0000   1.0000   1.0000   1.0000   1.0000   1.0000   1.0000   1.0000
     1.0000   1.0000   1.0000   1.0000   1.0000   1.0000   1.0000   1.0000
     1.0000   1.0000   1.0000   1.0000   0.0000   0.0000   0.0000   0.0000
     0.0000   0.0000   0.0000   0.0000   0.0000   0.0000   0.0000   0.0000
     0.0000   0.0000   0.0000   0.0000   0.0000   0.0000   0.0000   0.0000
     0.0000   0.0000   0.0000   0.0000   0.0000   0.0000   0.0000   0.0000
     0.0000   0.0000   0.0000   0.0000   0.0000   0.0000   0.0000   0.0000
     0.0000   0.0000   0.0000   0.0000   0.0000   0.0000   0.0000   0.0000
     0.0000   0.0000   0.0000   0.0000   0.0000   0.0000   0.0000   0.0000
     0.0000   0.0000   0.0000   0.0000   0.0000   0.0000   0.0000   0.0000
     0.0000   0.0000   0.0000   0.0000   0.0000   0.0000   0.0000   0.0000
     0.0000   0.0000   0.0000   0.0000   0.0000   0.0000   0.0000   0.0000
     0.0000   0.0000   0.0000   0.0000   0.0000   0.0000   0.0000   0.0000
     0.0000   0.0000   0.0000   0.0000   0.0000   0.0000   0.0000   0.0000
     0.0000   0.0000   0.0000   0.0000   0.0000   0.0000   0.0000   0.0000
     0.0000   0.0000   0.0000   0.0000   0.0000   0.0000   0.0000   0.0000
     0.0000   0.0000   0.0000   0.0000   0.0000   0.0000   0.0000   0.0000
     0.0000   0.0000   0.0000   0.0000   0.0000   0.0000   0.0000   0.0000
     0.0000   0.0000   0.0000   0.0000   0.0000   0.0000   0.0000   0.0000
     0.0000   0.0000   0.0000   0.0000   0.0000   0.0000   0.0000   0.0000
     0.0000   0.0000   0.0000   0.0000   0.0000   0.0000   0.0000   0.0000
     0.0000   0.0000   0.0000   0.0000   0.0000   0.0000   0.0000   0.0000
     0.0000   0.0000   0.0000   0.0000   0.0000   0.0000   0.0000   0.0000
     0.0000   0.0000   0.0000   0.0000   0.0000   0.0000   0.0000   0.0000
     0.0000   0.0000   0.0000   0.0000   0.0000   0.0000   0.0000   0.0000

          k = 0.3333-0.0770-0.0013 (  5421 PWs)   bands (ev):

   -30.5706 -30.5494 -30.5448 -30.5381 -30.3082 -30.2917 -11.7939 -11.7688
   -11.7490 -11.7413 -11.7214 -11.7080 -11.6783 -11.6712 -11.5978 -11.5703
   -11.5251 -11.4779 -11.4476 -11.4378 -11.3822 -11.3324 -11.3297 -11.2439
    -5.4291  -5.3382  -5.2338  -5.2144  -5.1468  -5.0982  -4.9046  -4.8737
    -4.6424  -4.6064  -4.5797  -4.5209  -4.5072  -4.4923  -4.4654  -4.4426
    -4.4131  -4.4056  -4.2705  -4.2308  -3.9303  -3.4410  -2.7814  -2.5206
    -2.4251  -2.3179  -2.0436  -2.0043   3.7987   4.0412   4.8612   5.0479
     5.7661   6.0245   6.1011   6.6066   6.7633   7.1121   7.1995   7.3865
     7.5180   7.6619   7.8199   7.8993   7.9124   8.0395   8.0897   8.1382
     8.2725   8.4206   8.6476   8.8552  10.8346  11.7038  11.7975  12.0525
    12.2632  12.4849  12.7977  12.9014  12.9549  13.1944  13.3899  13.6273
    13.6677  13.7546  13.7876  14.0393  14.3381  14.4227  14.5109  14.6547
    14.7883  15.0071  15.1362  15.2213  15.3513  15.5155  15.5300  15.6487
    15.7654  15.9283  15.9825  16.0623  16.0977  16.2845  16.3075  16.5035
    16.6632  16.9149  16.9414  17.2930  17.4518  17.5830  17.6987  18.1552
    18.2522  18.5750  18.7231  18.9165  18.9540  19.2613  19.6586  20.1071
    20.4124  20.8595  21.0519  21.1290  21.4572  21.7215  21.8319  21.9911
    22.1320  22.2084  22.6151  22.9110  23.4205  23.4730  23.6585  24.0380
    24.1913  24.3439  25.0229  25.0635  25.4586  25.6371  25.7668  25.8060
    26.1287  26.3750  26.4389  26.7379  26.8330  27.0654  27.3063  27.3881
    27.5315  27.8474  27.9508  28.1606  28.4647  28.5673  28.7978  29.1532
    29.3686  29.5656  29.7088  29.8983  30.0508  30.2901  30.5010  30.6890
    30.7758  30.8770  31.1704  31.2637  31.3563  31.3948  31.6581  31.7947
    31.9156  32.0837  32.2675  32.4488  32.5573  32.6601  32.9800  33.2522
    33.2700  33.4505  33.6271  33.9476  34.2379  34.2953  34.4092  34.5199
    34.6374  35.0290  35.0714  35.2414  35.3123  35.4365  35.5836  35.9499
    36.1101  36.1706  36.3363  36.5961  36.6293  36.9405  37.1687  37.2817
    37.3859  37.4845  37.7809  37.8505  38.1096  38.2232  38.3489  38.5953
    38.6450  38.8064  39.1050  39.2886  39.4257  39.4885  39.7015  39.7850
    40.0272  40.1604  40.3362  40.4389  40.4888  40.7452  41.0595  41.1972
    41.2946  41.3552  41.4670  41.6317  41.8473  42.0279  42.2790  42.4087
    42.6063  42.6767  42.8563  42.9242  42.9645  43.2954  43.5200  43.5571

     occupation numbers 
     1.0000   1.0000   1.0000   1.0000   1.0000   1.0000   1.0000   1.0000
     1.0000   1.0000   1.0000   1.0000   1.0000   1.0000   1.0000   1.0000
     1.0000   1.0000   1.0000   1.0000   1.0000   1.0000   1.0000   1.0000
     1.0000   1.0000   1.0000   1.0000   1.0000   1.0000   1.0000   1.0000
     1.0000   1.0000   1.0000   1.0000   1.0000   1.0000   1.0000   1.0000
     1.0000   1.0000   1.0000   1.0000   1.0000   1.0000   1.0000   1.0000
     1.0000   1.0000   1.0000   1.0000   1.0000   1.0000   1.0000   1.0000
     1.0000   1.0000   1.0000   1.0000   1.0000   1.0000   1.0000   1.0000
     1.0000   1.0000   1.0000   1.0000   1.0000   1.0000   1.0000   1.0000
     1.0000   1.0000   1.0000   1.0000   0.0000   0.0000   0.0000   0.0000
     0.0000   0.0000   0.0000   0.0000   0.0000   0.0000   0.0000   0.0000
     0.0000   0.0000   0.0000   0.0000   0.0000   0.0000   0.0000   0.0000
     0.0000   0.0000   0.0000   0.0000   0.0000   0.0000   0.0000   0.0000
     0.0000   0.0000   0.0000   0.0000   0.0000   0.0000   0.0000   0.0000
     0.0000   0.0000   0.0000   0.0000   0.0000   0.0000   0.0000   0.0000
     0.0000   0.0000   0.0000   0.0000   0.0000   0.0000   0.0000   0.0000
     0.0000   0.0000   0.0000   0.0000   0.0000   0.0000   0.0000   0.0000
     0.0000   0.0000   0.0000   0.0000   0.0000   0.0000   0.0000   0.0000
     0.0000   0.0000   0.0000   0.0000   0.0000   0.0000   0.0000   0.0000
     0.0000   0.0000   0.0000   0.0000   0.0000   0.0000   0.0000   0.0000
     0.0000   0.0000   0.0000   0.0000   0.0000   0.0000   0.0000   0.0000
     0.0000   0.0000   0.0000   0.0000   0.0000   0.0000   0.0000   0.0000
     0.0000   0.0000   0.0000   0.0000   0.0000   0.0000   0.0000   0.0000
     0.0000   0.0000   0.0000   0.0000   0.0000   0.0000   0.0000   0.0000
     0.0000   0.0000   0.0000   0.0000   0.0000   0.0000   0.0000   0.0000
     0.0000   0.0000   0.0000   0.0000   0.0000   0.0000   0.0000   0.0000
     0.0000   0.0000   0.0000   0.0000   0.0000   0.0000   0.0000   0.0000
     0.0000   0.0000   0.0000   0.0000   0.0000   0.0000   0.0000   0.0000
     0.0000   0.0000   0.0000   0.0000   0.0000   0.0000   0.0000   0.0000
     0.0000   0.0000   0.0000   0.0000   0.0000   0.0000   0.0000   0.0000
     0.0000   0.0000   0.0000   0.0000   0.0000   0.0000   0.0000   0.0000
     0.0000   0.0000   0.0000   0.0000   0.0000   0.0000   0.0000   0.0000

          k = 0.3333-0.0770 0.3893 (  5442 PWs)   bands (ev):

   -30.5660 -30.5534 -30.5448 -30.5387 -30.3041 -30.2958 -11.7968 -11.7942
   -11.7631 -11.7571 -11.7251 -11.6847 -11.6731 -11.6521 -11.5957 -11.5655
   -11.5238 -11.4721 -11.4502 -11.4455 -11.3762 -11.3565 -11.2934 -11.2600
    -5.3598  -5.3192  -5.2428  -5.2057  -5.1772  -5.1659  -4.9030  -4.8795
    -4.6504  -4.6496  -4.5486  -4.5277  -4.4990  -4.4941  -4.4670  -4.4484
    -4.4049  -4.4029  -4.2628  -4.2440  -3.6512  -3.3280  -2.8686  -2.6462
    -2.3628  -2.3177  -2.1691  -2.1530   4.0816   4.1765   4.5429   4.7273
     5.9179   6.1444   6.2692   6.5316   6.7919   7.0217   7.2938   7.3501
     7.4191   7.6297   7.6793   7.7664   7.8724   7.9540   8.0756   8.1591
     8.2936   8.3682   8.6261   8.7258  11.5526  11.9613  12.0424  12.1780
    12.3814  12.5766  12.7138  13.0470  13.1516  13.3153  13.4615  13.5417
    13.6055  13.9155  13.9806  14.0601  14.2104  14.3119  14.5102  14.7888
    14.8302  14.9112  14.9623  15.1524  15.2163  15.3335  15.4572  15.5421
    15.6699  15.7904  15.9149  15.9622  16.1910  16.2912  16.3648  16.4064
    16.5981  16.7491  16.7896  17.1463  17.3395  17.5170  17.7658  18.1043
    18.4439  18.7042  18.8026  18.8878  19.1549  19.3739  19.6859  19.8291
    20.1327  20.3335  20.8805  21.0453  21.2805  21.4204  21.6752  22.0735
    22.3390  22.5261  22.6212  23.0182  23.1904  23.4048  23.7768  23.9978
    24.2209  24.3902  24.9172  25.0311  25.1587  25.4784  25.7785  25.8125
    25.9010  26.3143  26.5409  26.7255  27.0373  27.0678  27.2568  27.4868
    27.8455  27.9892  28.1881  28.3844  28.5142  28.6692  28.7994  29.2369
    29.3887  29.4207  29.8330  29.9862  30.1923  30.3168  30.5270  30.6966
    30.7615  30.9310  31.0423  31.1987  31.2799  31.6228  31.9214  31.9770
    32.0892  32.2189  32.5363  32.7326  32.8272  33.0791  33.2542  33.4454
    33.7069  33.8767  34.0491  34.1489  34.2436  34.3381  34.5011  34.6883
    34.7641  35.0880  35.3063  35.3453  35.5339  35.7260  35.8032  35.8582
    36.0188  36.1361  36.3958  36.5647  36.6363  36.7743  36.9817  37.0856
    37.1937  37.3503  37.6647  37.7762  37.8313  37.9597  38.1369  38.3379
    38.4214  38.5990  38.6811  38.8097  39.0892  39.2695  39.4284  39.6322
    39.7375  39.7550  40.0851  40.1776  40.2515  40.5380  40.6762  40.7383
    40.9665  41.0793  41.1189  41.5413  41.6850  41.7413  41.8379  41.9682
    42.1414  42.2060  42.4684  42.5199  42.7591  42.9932  43.0681  43.3238

     occupation numbers 
     1.0000   1.0000   1.0000   1.0000   1.0000   1.0000   1.0000   1.0000
     1.0000   1.0000   1.0000   1.0000   1.0000   1.0000   1.0000   1.0000
     1.0000   1.0000   1.0000   1.0000   1.0000   1.0000   1.0000   1.0000
     1.0000   1.0000   1.0000   1.0000   1.0000   1.0000   1.0000   1.0000
     1.0000   1.0000   1.0000   1.0000   1.0000   1.0000   1.0000   1.0000
     1.0000   1.0000   1.0000   1.0000   1.0000   1.0000   1.0000   1.0000
     1.0000   1.0000   1.0000   1.0000   1.0000   1.0000   1.0000   1.0000
     1.0000   1.0000   1.0000   1.0000   1.0000   1.0000   1.0000   1.0000
     1.0000   1.0000   1.0000   1.0000   1.0000   1.0000   1.0000   1.0000
     1.0000   1.0000   1.0000   1.0000   0.0000   0.0000   0.0000   0.0000
     0.0000   0.0000   0.0000   0.0000   0.0000   0.0000   0.0000   0.0000
     0.0000   0.0000   0.0000   0.0000   0.0000   0.0000   0.0000   0.0000
     0.0000   0.0000   0.0000   0.0000   0.0000   0.0000   0.0000   0.0000
     0.0000   0.0000   0.0000   0.0000   0.0000   0.0000   0.0000   0.0000
     0.0000   0.0000   0.0000   0.0000   0.0000   0.0000   0.0000   0.0000
     0.0000   0.0000   0.0000   0.0000   0.0000   0.0000   0.0000   0.0000
     0.0000   0.0000   0.0000   0.0000   0.0000   0.0000   0.0000   0.0000
     0.0000   0.0000   0.0000   0.0000   0.0000   0.0000   0.0000   0.0000
     0.0000   0.0000   0.0000   0.0000   0.0000   0.0000   0.0000   0.0000
     0.0000   0.0000   0.0000   0.0000   0.0000   0.0000   0.0000   0.0000
     0.0000   0.0000   0.0000   0.0000   0.0000   0.0000   0.0000   0.0000
     0.0000   0.0000   0.0000   0.0000   0.0000   0.0000   0.0000   0.0000
     0.0000   0.0000   0.0000   0.0000   0.0000   0.0000   0.0000   0.0000
     0.0000   0.0000   0.0000   0.0000   0.0000   0.0000   0.0000   0.0000
     0.0000   0.0000   0.0000   0.0000   0.0000   0.0000   0.0000   0.0000
     0.0000   0.0000   0.0000   0.0000   0.0000   0.0000   0.0000   0.0000
     0.0000   0.0000   0.0000   0.0000   0.0000   0.0000   0.0000   0.0000
     0.0000   0.0000   0.0000   0.0000   0.0000   0.0000   0.0000   0.0000
     0.0000   0.0000   0.0000   0.0000   0.0000   0.0000   0.0000   0.0000
     0.0000   0.0000   0.0000   0.0000   0.0000   0.0000   0.0000   0.0000
     0.0000   0.0000   0.0000   0.0000   0.0000   0.0000   0.0000   0.0000
     0.0000   0.0000   0.0000   0.0000   0.0000   0.0000   0.0000   0.0000

          k = 0.3333-0.0770-0.3918 (  5445 PWs)   bands (ev):

   -30.5651 -30.5556 -30.5427 -30.5396 -30.3040 -30.2958 -11.8060 -11.7836
   -11.7698 -11.7563 -11.7169 -11.6916 -11.6675 -11.6570 -11.5836 -11.5769
   -11.5219 -11.4733 -11.4484 -11.4440 -11.3752 -11.3607 -11.2952 -11.2571
    -5.3703  -5.3132  -5.2514  -5.2093  -5.1741  -5.1502  -4.8974  -4.8877
    -4.6537  -4.6443  -4.5474  -4.5289  -4.5015  -4.4941  -4.4610  -4.4541
    -4.4065  -4.4025  -4.2639  -4.2438  -3.6519  -3.3297  -2.8264  -2.6398
    -2.3915  -2.3588  -2.2007  -2.0995   4.0409   4.1767   4.6544   4.6915
     5.8038   6.1061   6.4534   6.6628   6.7880   6.9516   7.1729   7.3099
     7.5534   7.5784   7.6890   7.7715   7.8147   7.9881   8.0775   8.2019
     8.2797   8.3209   8.5003   8.7778  11.6266  11.9979  12.1205  12.1975
    12.3778  12.6087  12.7246  12.9294  13.0934  13.2149  13.2873  13.5085
    13.6623  13.8294  13.9512  14.1164  14.2811  14.4227  14.5413  14.6084
    14.8137  14.9255  14.9886  15.1825  15.2160  15.3579  15.4425  15.4727
    15.7028  15.8859  15.9581  16.0551  16.1416  16.1999  16.4744  16.5096
    16.6089  16.9136  16.9950  17.1649  17.3692  17.5211  17.8149  18.0588
    18.3101  18.4743  18.7154  18.9964  19.1572  19.4013  19.4635  19.8261
    20.2879  20.5975  20.7447  20.7860  21.3472  21.3607  21.6335  21.8994
    22.1890  22.4495  22.7399  22.9769  23.4455  23.5153  23.6720  23.8805
    24.1906  24.2292  24.5802  24.7938  25.3067  25.4043  25.7333  26.1821
    26.2698  26.4640  26.6928  26.8427  26.9087  27.1745  27.3089  27.4779
    27.6584  27.9123  28.3837  28.4643  28.6113  28.8266  29.0763  29.1740
    29.3573  29.6082  29.6741  29.8737  30.1445  30.2437  30.4949  30.6576
    30.8763  30.9819  31.0884  31.2223  31.5059  31.6000  31.7795  31.8813
    32.1625  32.2805  32.4745  32.7080  32.7966  32.9641  33.0465  33.1925
    33.4157  33.5818  33.8983  34.0244  34.1317  34.3603  34.5777  34.8134
    34.8568  35.1694  35.2224  35.2863  35.3569  35.6410  35.6742  35.9229
    36.0428  36.3318  36.3440  36.5460  36.6910  36.8506  37.0362  37.1273
    37.3857  37.4948  37.6908  37.8507  37.8716  38.0127  38.2005  38.3641
    38.5616  38.6819  38.8390  38.8742  39.0069  39.2774  39.4381  39.5646
    39.6829  39.8017  39.8980  39.9812  40.2385  40.4403  40.7467  40.8334
    40.8962  40.9407  41.2410  41.3107  41.5322  41.8467  42.0140  42.0650
    42.1879  42.3618  42.5642  42.6560  42.8499  43.0988  43.2227  43.3358

     occupation numbers 
     1.0000   1.0000   1.0000   1.0000   1.0000   1.0000   1.0000   1.0000
     1.0000   1.0000   1.0000   1.0000   1.0000   1.0000   1.0000   1.0000
     1.0000   1.0000   1.0000   1.0000   1.0000   1.0000   1.0000   1.0000
     1.0000   1.0000   1.0000   1.0000   1.0000   1.0000   1.0000   1.0000
     1.0000   1.0000   1.0000   1.0000   1.0000   1.0000   1.0000   1.0000
     1.0000   1.0000   1.0000   1.0000   1.0000   1.0000   1.0000   1.0000
     1.0000   1.0000   1.0000   1.0000   1.0000   1.0000   1.0000   1.0000
     1.0000   1.0000   1.0000   1.0000   1.0000   1.0000   1.0000   1.0000
     1.0000   1.0000   1.0000   1.0000   1.0000   1.0000   1.0000   1.0000
     1.0000   1.0000   1.0000   1.0000   0.0000   0.0000   0.0000   0.0000
     0.0000   0.0000   0.0000   0.0000   0.0000   0.0000   0.0000   0.0000
     0.0000   0.0000   0.0000   0.0000   0.0000   0.0000   0.0000   0.0000
     0.0000   0.0000   0.0000   0.0000   0.0000   0.0000   0.0000   0.0000
     0.0000   0.0000   0.0000   0.0000   0.0000   0.0000   0.0000   0.0000
     0.0000   0.0000   0.0000   0.0000   0.0000   0.0000   0.0000   0.0000
     0.0000   0.0000   0.0000   0.0000   0.0000   0.0000   0.0000   0.0000
     0.0000   0.0000   0.0000   0.0000   0.0000   0.0000   0.0000   0.0000
     0.0000   0.0000   0.0000   0.0000   0.0000   0.0000   0.0000   0.0000
     0.0000   0.0000   0.0000   0.0000   0.0000   0.0000   0.0000   0.0000
     0.0000   0.0000   0.0000   0.0000   0.0000   0.0000   0.0000   0.0000
     0.0000   0.0000   0.0000   0.0000   0.0000   0.0000   0.0000   0.0000
     0.0000   0.0000   0.0000   0.0000   0.0000   0.0000   0.0000   0.0000
     0.0000   0.0000   0.0000   0.0000   0.0000   0.0000   0.0000   0.0000
     0.0000   0.0000   0.0000   0.0000   0.0000   0.0000   0.0000   0.0000
     0.0000   0.0000   0.0000   0.0000   0.0000   0.0000   0.0000   0.0000
     0.0000   0.0000   0.0000   0.0000   0.0000   0.0000   0.0000   0.0000
     0.0000   0.0000   0.0000   0.0000   0.0000   0.0000   0.0000   0.0000
     0.0000   0.0000   0.0000   0.0000   0.0000   0.0000   0.0000   0.0000
     0.0000   0.0000   0.0000   0.0000   0.0000   0.0000   0.0000   0.0000
     0.0000   0.0000   0.0000   0.0000   0.0000   0.0000   0.0000   0.0000
     0.0000   0.0000   0.0000   0.0000   0.0000   0.0000   0.0000   0.0000
     0.0000   0.0000   0.0000   0.0000   0.0000   0.0000   0.0000   0.0000

     highest occupied, lowest unoccupied level (ev):     9.0913    9.9225

!    total energy              =   -1190.85902196 Ry
     estimated scf accuracy    <       0.00000011 Ry

     The total energy is the sum of the following terms:
     one-electron contribution =    -340.29477961 Ry
     hartree contribution      =     264.38147702 Ry
     xc contribution           =    -306.04127334 Ry
     ewald contribution        =    -808.90444602 Ry

     convergence has been achieved in  10 iterations

     Writing all to output data dir bands_nm/myprefix.save/
