
     Program PWSCF v.7.0 starts on 23Jun2023 at  7:12:35 

     This program is part of the open-source Quantum ESPRESSO suite
     for quantum simulation of materials; please cite
         "P. Giannozzi et al., J. Phys.:Condens. Matter 21 395502 (2009);
         "P. Giannozzi et al., J. Phys.:Condens. Matter 29 465901 (2017);
         "P. Giannozzi et al., J. Chem. Phys. 152 154105 (2020);
          URL http://www.quantum-espresso.org", 
     in publications or presentations arising from this work. More details at
     http://www.quantum-espresso.org/quote

     Parallel version (MPI & OpenMP), running on      32 processor cores
     Number of MPI processes:                 8
     Threads/MPI process:                     4

     MPI processes distributed on     1 nodes
     K-points division:     npool     =       2
     R & G space division:  proc/nbgrp/npool/nimage =       4
     76044 MiB available memory on the printing compute node when the environment starts
 
     Reading input from espresso_2464.pwi
Warning: card &CELL ignored
Warning: card / ignored

     Current dimensions of program PWSCF are:
     Max number of different atomic species (ntypx) = 10
     Max number of k-points (npk) =  40000
     Max angular momentum in pseudopotentials (lmaxx) =  4
     file Ba.pbe-spn-kjpaw_psl.1.0.0.UPF: wavefunction(s)  5S 6S renormalized
     file O.pbe-n-kjpaw_psl.0.1.UPF: wavefunction(s)  2P renormalized
     Message from routine setup:
     using ibrav=0 with symmetry is DISCOURAGED, use correct ibrav instead

     Subspace diagonalization in iterative solution of the eigenvalue problem:
     one sub-group per band group will be used
     scalapack distributed-memory algorithm (size of sub-group:  2*  2 procs)

 
     Parallelization info
     --------------------
     sticks:   dense  smooth     PW     G-vecs:    dense   smooth      PW
     Min         486     244     68                30472    10778    1594
     Max         487     245     69                30475    10781    1597
     Sum        1947     979    273               121895    43121    6383
 
     Using Slab Decomposition
 


     bravais-lattice index     =            0
     lattice parameter (alat)  =       9.3203  a.u.
     unit-cell volume          =    1942.1032 (a.u.)^3
     number of atoms/cell      =           20
     number of atomic types    =            3
     number of electrons       =       172.00
     number of Kohn-Sham states=           90
     kinetic-energy cutoff     =      30.0000  Ry
     charge density cutoff     =     240.0000  Ry
     scf convergence threshold =      1.0E-06
     mixing beta               =       0.7000
     number of iterations used =            8  plain     mixing
     Exchange-correlation= SLA  PW   PBX  PBC
                           (   1   4   3   4   0   0   0)

     celldm(1)=   9.320258  celldm(2)=   0.000000  celldm(3)=   0.000000
     celldm(4)=   0.000000  celldm(5)=   0.000000  celldm(6)=   0.000000

     crystal axes: (cart. coord. in units of alat)
               a(1) = (   1.000000   0.000000   0.000000 )  
               a(2) = (   0.000000   1.176937   0.000000 )  
               a(3) = (   0.000000  -0.000008   2.038146 )  

     reciprocal axes: (cart. coord. in units 2 pi/alat)
               b(1) = (  1.000000  0.000000 -0.000000 )  
               b(2) = (  0.000000  0.849663  0.000003 )  
               b(3) = (  0.000000  0.000000  0.490642 )  


     PseudoPot. # 1 for Ba read from file:
     /home/pragov/projects/rrg-bengioy-ad/pragov/crystal_structure_design/SSSP/Ba.pbe-spn-kjpaw_psl.1.0.0.UPF
     MD5 check sum: c432291d3e53af55f19d5e8866385beb
     Pseudo is Projector augmented-wave + core cor, Zval = 10.0
     Generated using "atomic" code by A. Dal Corso  v.5.1
     Shape of augmentation charge: PSQ
     Using radial grid of 1251 points,  7 beta functions with: 
                l(1) =   0
                l(2) =   0
                l(3) =   0
                l(4) =   1
                l(5) =   1
                l(6) =   2
                l(7) =   2
     Q(r) pseudized with 0 coefficients 


     PseudoPot. # 2 for Mn read from file:
     /home/pragov/projects/rrg-bengioy-ad/pragov/crystal_structure_design/SSSP/mn_pbe_v1.5.uspp.F.UPF
     MD5 check sum: 82ef2b46521d7a7d9e736dc3972e4928
     Pseudo is Ultrasoft + core correction, Zval = 15.0
     Generated by new atomic code, or converted to UPF format
     Using radial grid of  859 points,  6 beta functions with: 
                l(1) =   0
                l(2) =   0
                l(3) =   1
                l(4) =   1
                l(5) =   2
                l(6) =   2
     Q(r) pseudized with  8 coefficients,  rinner =    0.950   0.950   0.950
                                                       0.950   0.950

     PseudoPot. # 3 for O  read from file:
     /home/pragov/projects/rrg-bengioy-ad/pragov/crystal_structure_design/SSSP/O.pbe-n-kjpaw_psl.0.1.UPF
     MD5 check sum: 0234752ac141de4415c5fc33072bef88
     Pseudo is Projector augmented-wave + core cor, Zval =  6.0
     Generated using "atomic" code by A. Dal Corso  v.5.0.99 svn rev. 10869
     Shape of augmentation charge: BESSEL
     Using radial grid of 1095 points,  4 beta functions with: 
                l(1) =   0
                l(2) =   0
                l(3) =   1
                l(4) =   1
     Q(r) pseudized with 0 coefficients 


     atomic species   valence    mass     pseudopotential
        Ba            10.00   137.32700     Ba( 1.00)
        Mn            15.00    54.93804     Mn( 1.00)
        O              6.00    15.99900     O ( 1.00)

      2 Sym. Ops. (no inversion) found ( 1 have fractional translation)


                                    s                        frac. trans.

      isym =  1     identity                                     

 cryst.   s( 1) = (     1          0          0      )
                  (     0          1          0      )
                  (     0          0          1      )

 cart.    s( 1) = (  1.0000000  0.0000000 -0.0000000 )
                  (  0.0000000  1.0000000 -0.0000000 )
                  (  0.0000000  0.0000000  1.0000000 )


      isym =  2     180 deg rotation - cart. axis [1,0,0]        

 cryst.   s( 2) = (     1          0          0      )    f =( -0.4999980 )
                  (     0         -1          0      )       ( -0.5000000 )
                  (     0          0         -1      )       (  0.4999990 )

 cart.    s( 2) = (  1.0000000  0.0000000 -0.0000002 )    f =( -0.4999979 )
                  (  0.0000000 -1.0000000  0.0000000 )       ( -0.5884725 )
                  (  0.0000000  0.0000000 -1.0000000 )       (  1.0190711 )


   Cartesian axes

     site n.     atom                  positions (alat units)
         1           Ba  tau(   1) = (   0.2678001   0.0000008   0.6793672  )
         2           Ba  tau(   2) = (   0.2677992   0.5884653   1.6984403  )
         3           Ba  tau(   3) = (   0.7678020   0.5884636   0.3397080  )
         4           Ba  tau(   4) = (   0.7678001   1.1769280   1.3587771  )
         5           Mn  tau(   5) = (   0.5335931   0.5884632   1.0190752  )
         6           Mn  tau(   6) = (   0.0335972  -0.0000057   2.0381423  )
         7           Mn  tau(   7) = (   0.5335740   1.1769357   0.0000061  )
         8           Mn  tau(   8) = (   0.0335801   0.5884668   1.0190671  )
         9           O   tau(   9) = (   0.2842021   0.5884621   0.7163310  )
        10           O   tau(  10) = (   0.2842102   1.1769265   1.7354021  )
        11           O   tau(  11) = (   0.2842080   0.9147277   0.1513874  )
        12           O   tau(  12) = (   0.2842031   0.3262517   1.1704646  )
        13           O   tau(  13) = (   0.2842100   0.2622056   0.1513894  )
        14           O   tau(  14) = (   0.2842051   0.8506736   1.1704667  )
        15           O   tau(  15) = (   0.7842000   0.0000023   0.3027442  )
        16           O   tau(  16) = (   0.7842071   0.5884667   1.3218174  )
        17           O   tau(  17) = (   0.7842071   0.8506736   0.8676858  )
        18           O   tau(  18) = (   0.7842002   0.2622058   1.8867549  )
        19           O   tau(  19) = (   0.7842091   0.3262588   0.8676837  )
        20           O   tau(  20) = (   0.7842022   0.9147185   1.8867508  )

   Crystallographic axes

     site n.     atom                  positions (cryst. coord.)
         1           Ba  tau(   1) = (  0.2678000  0.0000030  0.3333260  )
         2           Ba  tau(   2) = (  0.2677990  0.5000030  0.8333260  )
         3           Ba  tau(   3) = (  0.7678020  0.4999970  0.1666750  )
         4           Ba  tau(   4) = (  0.7678000  0.9999970  0.6666730  )
         5           Mn  tau(   5) = (  0.5335930  0.4999990  0.5000010  )
         6           Mn  tau(   6) = (  0.0335970  0.0000020  0.9999980  )
         7           Mn  tau(   7) = (  0.5335740  0.9999990  0.0000030  )
         8           Mn  tau(   8) = (  0.0335800  0.5000020  0.4999970  )
         9           O   tau(   9) = (  0.2842020  0.4999970  0.3514620  )
        10           O   tau(  10) = (  0.2842100  0.9999970  0.8514610  )
        11           O   tau(  11) = (  0.2842080  0.7772110  0.0742770  )
        12           O   tau(  12) = (  0.2842030  0.2772080  0.5742790  )
        13           O   tau(  13) = (  0.2842100  0.2227870  0.0742780  )
        14           O   tau(  14) = (  0.2842050  0.7227900  0.5742800  )
        15           O   tau(  15) = (  0.7842000  0.0000030  0.1485390  )
        16           O   tau(  16) = (  0.7842070  0.5000030  0.6485390  )
        17           O   tau(  17) = (  0.7842070  0.7227890  0.4257230  )
        18           O   tau(  18) = (  0.7842000  0.2227930  0.9257210  )
        19           O   tau(  19) = (  0.7842090  0.2772130  0.4257220  )
        20           O   tau(  20) = (  0.7842020  0.7772090  0.9257190  )

     number of k points=    10
                       cart. coord. in units 2pi/alat
        k(    1) = (   0.0000000   0.0000000   0.0000000), wk =   0.0740741
        k(    2) = (   0.0000000   0.0000000   0.1635473), wk =   0.1481481
        k(    3) = (   0.0000000   0.2832211   0.0000011), wk =   0.1481481
        k(    4) = (   0.0000000   0.2832211   0.1635484), wk =   0.1481481
        k(    5) = (   0.0000000   0.2832211  -0.1635462), wk =   0.1481481
        k(    6) = (   0.3333333   0.0000000  -0.0000000), wk =   0.1481481
        k(    7) = (   0.3333333   0.0000000   0.1635473), wk =   0.2962963
        k(    8) = (   0.3333333   0.2832211   0.0000011), wk =   0.2962963
        k(    9) = (   0.3333333   0.2832211   0.1635484), wk =   0.2962963
        k(   10) = (   0.3333333   0.2832211  -0.1635462), wk =   0.2962963

                       cryst. coord.
        k(    1) = (   0.0000000   0.0000000   0.0000000), wk =   0.0740741
        k(    2) = (   0.0000000   0.0000000   0.3333333), wk =   0.1481481
        k(    3) = (   0.0000000   0.3333333   0.0000000), wk =   0.1481481
        k(    4) = (   0.0000000   0.3333333   0.3333333), wk =   0.1481481
        k(    5) = (   0.0000000   0.3333333  -0.3333333), wk =   0.1481481
        k(    6) = (   0.3333333   0.0000000  -0.0000000), wk =   0.1481481
        k(    7) = (   0.3333333   0.0000000   0.3333333), wk =   0.2962963
        k(    8) = (   0.3333333   0.3333333  -0.0000000), wk =   0.2962963
        k(    9) = (   0.3333333   0.3333333   0.3333333), wk =   0.2962963
        k(   10) = (   0.3333333   0.3333333  -0.3333333), wk =   0.2962963

     Dense  grid:   121895 G-vectors     FFT dimensions: (  48,  60,  96)

     Smooth grid:    43121 G-vectors     FFT dimensions: (  36,  40,  72)

     Dynamical RAM for                 wfc:       1.85 MB

     Dynamical RAM for     wfc (w. buffer):      11.10 MB

     Dynamical RAM for           str. fact:       1.40 MB

     Dynamical RAM for           local pot:       0.00 MB

     Dynamical RAM for          nlocal pot:       5.02 MB

     Dynamical RAM for                qrad:       4.98 MB

     Dynamical RAM for          rho,v,vnew:       2.98 MB

     Dynamical RAM for               rhoin:       0.99 MB

     Dynamical RAM for            rho*nmix:       7.44 MB

     Dynamical RAM for           G-vectors:       1.83 MB

     Dynamical RAM for          h,s,v(r/c):       0.37 MB

     Dynamical RAM for          <psi|beta>:       0.34 MB

     Dynamical RAM for                 psi:       3.70 MB

     Dynamical RAM for                hpsi:       3.70 MB

     Dynamical RAM for                spsi:       3.70 MB

     Dynamical RAM for      wfcinit/wfcrot:       5.26 MB

     Dynamical RAM for           addusdens:      50.68 MB

     Estimated static dynamical RAM per process >      32.78 MB

     Estimated max dynamical RAM per process >      90.90 MB

     Estimated total dynamical RAM >     697.46 MB

     Check: negative core charge=   -0.000019

     Initial potential from superposition of free atoms

     starting charge     169.9316, renormalised to     172.0000
     Starting wfcs are  120 randomized atomic wfcs
     Checking if some PAW data can be deallocated... 
       PAW data deallocated on    6 nodes for type:  1
       PAW data deallocated on    2 nodes for type:  3

     total cpu time spent up to now is        5.1 secs

     Self-consistent Calculation

     iteration #  1     ecut=    30.00 Ry     beta= 0.70
     Davidson diagonalization with overlap

---- Real-time Memory Report at c_bands before calling an iterative solver
           197 MiB given to the printing process from OS
             0 MiB allocation reported by mallinfo(arena+hblkhd)
         75396 MiB available memory on the node where the printing process lives
------------------
     ethr =  1.00E-02,  avg # of iterations =  2.0

     negative rho (up, down):  1.232E-01 0.000E+00

     total cpu time spent up to now is        6.6 secs

     total energy              =   -3084.14220696 Ry
     estimated scf accuracy    <       9.40794101 Ry

     iteration #  2     ecut=    30.00 Ry     beta= 0.70
     Davidson diagonalization with overlap

---- Real-time Memory Report at c_bands before calling an iterative solver
           241 MiB given to the printing process from OS
             0 MiB allocation reported by mallinfo(arena+hblkhd)
         75310 MiB available memory on the node where the printing process lives
------------------
     ethr =  5.47E-03,  avg # of iterations =  7.3

     negative rho (up, down):  1.060E-01 0.000E+00

     total cpu time spent up to now is        8.9 secs

     total energy              =   -3077.70582438 Ry
     estimated scf accuracy    <     141.87034802 Ry

     iteration #  3     ecut=    30.00 Ry     beta= 0.70
     Davidson diagonalization with overlap

---- Real-time Memory Report at c_bands before calling an iterative solver
           254 MiB given to the printing process from OS
             0 MiB allocation reported by mallinfo(arena+hblkhd)
         75129 MiB available memory on the node where the printing process lives
------------------
     ethr =  5.47E-03,  avg # of iterations =  7.6

     negative rho (up, down):  6.547E-02 0.000E+00

     total cpu time spent up to now is       11.1 secs

     total energy              =   -3089.25420956 Ry
     estimated scf accuracy    <       0.94852636 Ry

     iteration #  4     ecut=    30.00 Ry     beta= 0.70
     Davidson diagonalization with overlap

---- Real-time Memory Report at c_bands before calling an iterative solver
           259 MiB given to the printing process from OS
             0 MiB allocation reported by mallinfo(arena+hblkhd)
         75071 MiB available memory on the node where the printing process lives
------------------
     ethr =  5.51E-04,  avg # of iterations =  6.4

     negative rho (up, down):  5.654E-02 0.000E+00

     total cpu time spent up to now is       13.2 secs

     total energy              =   -3089.76356780 Ry
     estimated scf accuracy    <       1.76703218 Ry

     iteration #  5     ecut=    30.00 Ry     beta= 0.70
     Davidson diagonalization with overlap

---- Real-time Memory Report at c_bands before calling an iterative solver
           266 MiB given to the printing process from OS
             0 MiB allocation reported by mallinfo(arena+hblkhd)
         75045 MiB available memory on the node where the printing process lives
------------------
     ethr =  5.51E-04,  avg # of iterations =  6.5

     negative rho (up, down):  1.330E-02 0.000E+00

     total cpu time spent up to now is       14.7 secs

     total energy              =   -3089.79345746 Ry
     estimated scf accuracy    <       9.01015787 Ry

     iteration #  6     ecut=    30.00 Ry     beta= 0.70
     Davidson diagonalization with overlap

---- Real-time Memory Report at c_bands before calling an iterative solver
           266 MiB given to the printing process from OS
             0 MiB allocation reported by mallinfo(arena+hblkhd)
         75023 MiB available memory on the node where the printing process lives
------------------
     ethr =  5.51E-04,  avg # of iterations =  4.0

     negative rho (up, down):  1.129E-03 0.000E+00

     total cpu time spent up to now is       16.2 secs

     total energy              =   -3089.86409677 Ry
     estimated scf accuracy    <       1.12998045 Ry

     iteration #  7     ecut=    30.00 Ry     beta= 0.70
     Davidson diagonalization with overlap

---- Real-time Memory Report at c_bands before calling an iterative solver
           267 MiB given to the printing process from OS
             0 MiB allocation reported by mallinfo(arena+hblkhd)
         75072 MiB available memory on the node where the printing process lives
------------------
     ethr =  5.51E-04,  avg # of iterations =  2.3

     total cpu time spent up to now is       17.6 secs

     total energy              =   -3089.90581365 Ry
     estimated scf accuracy    <       0.05985302 Ry

     iteration #  8     ecut=    30.00 Ry     beta= 0.70
     Davidson diagonalization with overlap

---- Real-time Memory Report at c_bands before calling an iterative solver
           268 MiB given to the printing process from OS
             0 MiB allocation reported by mallinfo(arena+hblkhd)
         75064 MiB available memory on the node where the printing process lives
------------------
     ethr =  3.48E-05,  avg # of iterations = 10.2

     total cpu time spent up to now is       20.2 secs

     total energy              =   -3090.12089534 Ry
     estimated scf accuracy    <       1.17460843 Ry

     iteration #  9     ecut=    30.00 Ry     beta= 0.70
     Davidson diagonalization with overlap

---- Real-time Memory Report at c_bands before calling an iterative solver
           270 MiB given to the printing process from OS
             0 MiB allocation reported by mallinfo(arena+hblkhd)
         75008 MiB available memory on the node where the printing process lives
------------------
     ethr =  3.48E-05,  avg # of iterations =  1.2

     total cpu time spent up to now is       21.5 secs

     total energy              =   -3090.12046249 Ry
     estimated scf accuracy    <       0.79497881 Ry

     iteration # 10     ecut=    30.00 Ry     beta= 0.70
     Davidson diagonalization with overlap

---- Real-time Memory Report at c_bands before calling an iterative solver
           272 MiB given to the printing process from OS
             0 MiB allocation reported by mallinfo(arena+hblkhd)
         75120 MiB available memory on the node where the printing process lives
------------------
     ethr =  3.48E-05,  avg # of iterations =  1.9

     total cpu time spent up to now is       22.9 secs

     total energy              =   -3090.12375119 Ry
     estimated scf accuracy    <       0.76565521 Ry

     iteration # 11     ecut=    30.00 Ry     beta= 0.70
     Davidson diagonalization with overlap

---- Real-time Memory Report at c_bands before calling an iterative solver
           274 MiB given to the printing process from OS
             0 MiB allocation reported by mallinfo(arena+hblkhd)
         75105 MiB available memory on the node where the printing process lives
------------------
     ethr =  3.48E-05,  avg # of iterations =  1.1

     total cpu time spent up to now is       24.2 secs

     total energy              =   -3090.10933580 Ry
     estimated scf accuracy    <       1.02118666 Ry

     iteration # 12     ecut=    30.00 Ry     beta= 0.70
     Davidson diagonalization with overlap

---- Real-time Memory Report at c_bands before calling an iterative solver
           274 MiB given to the printing process from OS
             0 MiB allocation reported by mallinfo(arena+hblkhd)
         75094 MiB available memory on the node where the printing process lives
------------------
     ethr =  3.48E-05,  avg # of iterations =  5.9

     total cpu time spent up to now is       25.7 secs

     total energy              =   -3090.11862522 Ry
     estimated scf accuracy    <       0.24777010 Ry

     iteration # 13     ecut=    30.00 Ry     beta= 0.70
     Davidson diagonalization with overlap

---- Real-time Memory Report at c_bands before calling an iterative solver
           274 MiB given to the printing process from OS
             0 MiB allocation reported by mallinfo(arena+hblkhd)
         75028 MiB available memory on the node where the printing process lives
------------------
     ethr =  3.48E-05,  avg # of iterations =  1.0

     total cpu time spent up to now is       27.0 secs

     total energy              =   -3090.11076532 Ry
     estimated scf accuracy    <       0.19483870 Ry

     iteration # 14     ecut=    30.00 Ry     beta= 0.70
     Davidson diagonalization with overlap

---- Real-time Memory Report at c_bands before calling an iterative solver
           274 MiB given to the printing process from OS
             0 MiB allocation reported by mallinfo(arena+hblkhd)
         75004 MiB available memory on the node where the printing process lives
------------------
     ethr =  3.48E-05,  avg # of iterations =  2.3

     total cpu time spent up to now is       28.5 secs

     total energy              =   -3090.10767620 Ry
     estimated scf accuracy    <       0.11866543 Ry

     iteration # 15     ecut=    30.00 Ry     beta= 0.70
     Davidson diagonalization with overlap

---- Real-time Memory Report at c_bands before calling an iterative solver
           274 MiB given to the printing process from OS
             0 MiB allocation reported by mallinfo(arena+hblkhd)
         74993 MiB available memory on the node where the printing process lives
------------------
     ethr =  3.48E-05,  avg # of iterations =  2.0

     total cpu time spent up to now is       29.9 secs

     total energy              =   -3090.10352731 Ry
     estimated scf accuracy    <       0.14188912 Ry

     iteration # 16     ecut=    30.00 Ry     beta= 0.70
     Davidson diagonalization with overlap

---- Real-time Memory Report at c_bands before calling an iterative solver
           275 MiB given to the printing process from OS
             0 MiB allocation reported by mallinfo(arena+hblkhd)
         74982 MiB available memory on the node where the printing process lives
------------------
     ethr =  3.48E-05,  avg # of iterations =  6.6

     total cpu time spent up to now is       31.4 secs

     total energy              =   -3090.10859865 Ry
     estimated scf accuracy    <       0.01944720 Ry

     iteration # 17     ecut=    30.00 Ry     beta= 0.70
     Davidson diagonalization with overlap

---- Real-time Memory Report at c_bands before calling an iterative solver
           275 MiB given to the printing process from OS
             0 MiB allocation reported by mallinfo(arena+hblkhd)
         74962 MiB available memory on the node where the printing process lives
------------------
     ethr =  1.13E-05,  avg # of iterations =  2.3

     total cpu time spent up to now is       32.8 secs

     total energy              =   -3090.10820708 Ry
     estimated scf accuracy    <       0.01419167 Ry

     iteration # 18     ecut=    30.00 Ry     beta= 0.70
     Davidson diagonalization with overlap

---- Real-time Memory Report at c_bands before calling an iterative solver
           275 MiB given to the printing process from OS
             0 MiB allocation reported by mallinfo(arena+hblkhd)
         74957 MiB available memory on the node where the printing process lives
------------------
     ethr =  8.25E-06,  avg # of iterations =  4.5

     total cpu time spent up to now is       34.2 secs

     total energy              =   -3090.10864293 Ry
     estimated scf accuracy    <       0.00421293 Ry

     iteration # 19     ecut=    30.00 Ry     beta= 0.70
     Davidson diagonalization with overlap

---- Real-time Memory Report at c_bands before calling an iterative solver
           275 MiB given to the printing process from OS
             0 MiB allocation reported by mallinfo(arena+hblkhd)
         74942 MiB available memory on the node where the printing process lives
------------------
     ethr =  2.45E-06,  avg # of iterations =  7.2

     total cpu time spent up to now is       35.8 secs

     total energy              =   -3090.10869423 Ry
     estimated scf accuracy    <       0.00471062 Ry

     iteration # 20     ecut=    30.00 Ry     beta= 0.70
     Davidson diagonalization with overlap

---- Real-time Memory Report at c_bands before calling an iterative solver
           275 MiB given to the printing process from OS
             0 MiB allocation reported by mallinfo(arena+hblkhd)
         74926 MiB available memory on the node where the printing process lives
------------------
     ethr =  2.45E-06,  avg # of iterations =  3.6

     total cpu time spent up to now is       37.3 secs

     total energy              =   -3090.10880609 Ry
     estimated scf accuracy    <       0.00282515 Ry

     iteration # 21     ecut=    30.00 Ry     beta= 0.70
     Davidson diagonalization with overlap

---- Real-time Memory Report at c_bands before calling an iterative solver
           275 MiB given to the printing process from OS
             0 MiB allocation reported by mallinfo(arena+hblkhd)
         74935 MiB available memory on the node where the printing process lives
------------------
     ethr =  1.64E-06,  avg # of iterations =  2.0

     total cpu time spent up to now is       38.7 secs

     total energy              =   -3090.10880848 Ry
     estimated scf accuracy    <       0.00530891 Ry

     iteration # 22     ecut=    30.00 Ry     beta= 0.70
     Davidson diagonalization with overlap

---- Real-time Memory Report at c_bands before calling an iterative solver
           275 MiB given to the printing process from OS
             0 MiB allocation reported by mallinfo(arena+hblkhd)
         74920 MiB available memory on the node where the printing process lives
------------------
     ethr =  1.64E-06,  avg # of iterations =  6.2

     total cpu time spent up to now is       41.1 secs

     total energy              =   -3090.10896641 Ry
     estimated scf accuracy    <       0.00152810 Ry

     iteration # 23     ecut=    30.00 Ry     beta= 0.70
     Davidson diagonalization with overlap

---- Real-time Memory Report at c_bands before calling an iterative solver
           275 MiB given to the printing process from OS
             0 MiB allocation reported by mallinfo(arena+hblkhd)
         74882 MiB available memory on the node where the printing process lives
------------------
     ethr =  8.88E-07,  avg # of iterations =  2.0

     total cpu time spent up to now is       43.4 secs

     total energy              =   -3090.10900975 Ry
     estimated scf accuracy    <       0.00041261 Ry

     iteration # 24     ecut=    30.00 Ry     beta= 0.70
     Davidson diagonalization with overlap

---- Real-time Memory Report at c_bands before calling an iterative solver
           275 MiB given to the printing process from OS
             0 MiB allocation reported by mallinfo(arena+hblkhd)
         74840 MiB available memory on the node where the printing process lives
------------------
     ethr =  2.40E-07,  avg # of iterations =  2.0

     total cpu time spent up to now is       45.6 secs

     total energy              =   -3090.10903233 Ry
     estimated scf accuracy    <       0.00009658 Ry

     iteration # 25     ecut=    30.00 Ry     beta= 0.70
     Davidson diagonalization with overlap

---- Real-time Memory Report at c_bands before calling an iterative solver
           275 MiB given to the printing process from OS
             0 MiB allocation reported by mallinfo(arena+hblkhd)
         74811 MiB available memory on the node where the printing process lives
------------------
     ethr =  5.62E-08,  avg # of iterations =  6.0

     total cpu time spent up to now is       47.2 secs

     total energy              =   -3090.10903974 Ry
     estimated scf accuracy    <       0.00000291 Ry

     iteration # 26     ecut=    30.00 Ry     beta= 0.70
     Davidson diagonalization with overlap

---- Real-time Memory Report at c_bands before calling an iterative solver
           275 MiB given to the printing process from OS
             0 MiB allocation reported by mallinfo(arena+hblkhd)
         74791 MiB available memory on the node where the printing process lives
------------------
     ethr =  1.69E-09,  avg # of iterations =  7.1

     total cpu time spent up to now is       49.0 secs

     total energy              =   -3090.10904079 Ry
     estimated scf accuracy    <       0.00000523 Ry

     iteration # 27     ecut=    30.00 Ry     beta= 0.70
     Davidson diagonalization with overlap

---- Real-time Memory Report at c_bands before calling an iterative solver
           275 MiB given to the printing process from OS
             0 MiB allocation reported by mallinfo(arena+hblkhd)
         74782 MiB available memory on the node where the printing process lives
------------------
     ethr =  1.69E-09,  avg # of iterations =  4.9

     total cpu time spent up to now is       50.5 secs

     total energy              =   -3090.10904050 Ry
     estimated scf accuracy    <       0.00000493 Ry

     iteration # 28     ecut=    30.00 Ry     beta= 0.70
     Davidson diagonalization with overlap

---- Real-time Memory Report at c_bands before calling an iterative solver
           275 MiB given to the printing process from OS
             0 MiB allocation reported by mallinfo(arena+hblkhd)
         74764 MiB available memory on the node where the printing process lives
------------------
     ethr =  1.69E-09,  avg # of iterations =  5.0

     total cpu time spent up to now is       52.0 secs

     total energy              =   -3090.10904091 Ry
     estimated scf accuracy    <       0.00000296 Ry

     iteration # 29     ecut=    30.00 Ry     beta= 0.70
     Davidson diagonalization with overlap

---- Real-time Memory Report at c_bands before calling an iterative solver
           275 MiB given to the printing process from OS
             0 MiB allocation reported by mallinfo(arena+hblkhd)
         74772 MiB available memory on the node where the printing process lives
------------------
     ethr =  1.69E-09,  avg # of iterations =  2.9

     total cpu time spent up to now is       53.3 secs

     total energy              =   -3090.10904103 Ry
     estimated scf accuracy    <       0.00000156 Ry

     iteration # 30     ecut=    30.00 Ry     beta= 0.70
     Davidson diagonalization with overlap

---- Real-time Memory Report at c_bands before calling an iterative solver
           275 MiB given to the printing process from OS
             0 MiB allocation reported by mallinfo(arena+hblkhd)
         74766 MiB available memory on the node where the printing process lives
------------------
     ethr =  9.05E-10,  avg # of iterations =  3.5

     total cpu time spent up to now is       54.6 secs

     total energy              =   -3090.10904109 Ry
     estimated scf accuracy    <       0.00000125 Ry

     iteration # 31     ecut=    30.00 Ry     beta= 0.70
     Davidson diagonalization with overlap

---- Real-time Memory Report at c_bands before calling an iterative solver
           275 MiB given to the printing process from OS
             0 MiB allocation reported by mallinfo(arena+hblkhd)
         74727 MiB available memory on the node where the printing process lives
------------------
     ethr =  7.27E-10,  avg # of iterations =  2.4

     total cpu time spent up to now is       55.9 secs

     End of self-consistent calculation

          k = 0.0000 0.0000 0.0000 (  5371 PWs)   bands (ev):

   -70.3587 -70.3573 -70.3023 -70.3011 -39.3337 -39.3306 -39.0432 -39.0431
   -39.0361 -39.0315 -38.9795 -38.9794 -38.9719 -38.9698 -38.8817 -38.8753
   -17.0613 -17.0120 -16.9716 -16.9350  -9.1708  -9.0670  -8.0402  -8.0298
    -8.0239  -7.9571  -7.9378  -7.9372  -7.9219  -7.9058  -7.8894  -7.8889
    -2.5240  -2.5239  -2.4503  -2.2839  -2.2427  -2.1437  -2.0600  -2.0581
    -2.0580  -1.9887  -1.9806  -1.9334   3.5133   3.9298   4.1912   4.3129
     4.5603   4.6850   4.8755   4.8760   5.2185   5.2995   5.3002   5.3825
     5.4571   5.6464   5.7589   5.8983   6.0477   6.0483   6.2258   6.3205
     6.3535   6.5000   6.5003   6.5035   6.5969   6.5976   7.0999   7.3543
     7.6345   7.9887   8.0175   8.0196   8.0781   8.0783   8.1299   8.3860
     8.4335   8.7360   9.1971   9.1972   9.2270   9.2430  10.1104  10.2348
    10.2348  10.3769

     occupation numbers 
     1.0000   1.0000   1.0000   1.0000   1.0000   1.0000   1.0000   1.0000
     1.0000   1.0000   1.0000   1.0000   1.0000   1.0000   1.0000   1.0000
     1.0000   1.0000   1.0000   1.0000   1.0000   1.0000   1.0000   1.0000
     1.0000   1.0000   1.0000   1.0000   1.0000   1.0000   1.0000   1.0000
     1.0000   1.0000   1.0000   1.0000   1.0000   1.0000   1.0000   1.0000
     1.0000   1.0000   1.0000   1.0000   1.0000   1.0000   1.0000   1.0000
     1.0000   1.0000   1.0000   1.0000   1.0000   1.0000   1.0000   1.0000
     1.0000   1.0000   1.0000   1.0000   1.0000   1.0000   1.0000   1.0000
     1.0000   1.0000   1.0000   1.0000   1.0000   1.0000   1.0000   1.0000
     1.0000   1.0000   1.0000   1.0000   1.0000   1.0000   1.0000   1.0000
     1.0000   1.0000   1.0000   1.0000   1.0000   1.0000   0.0000   0.0000
     0.0000   0.0000

          k = 0.0000 0.0000 0.1635 (  5397 PWs)   bands (ev):

   -70.3585 -70.3574 -70.3027 -70.3016 -39.3353 -39.3331 -39.0414 -39.0402
   -39.0392 -39.0327 -38.9795 -38.9793 -38.9784 -38.9782 -38.8800 -38.8762
   -17.0521 -17.0294 -16.9574 -16.9410  -9.1445  -9.0926  -8.0608  -8.0518
    -7.9642  -7.9521  -7.9421  -7.9380  -7.9141  -7.9140  -7.9026  -7.8972
    -2.4642  -2.4277  -2.3926  -2.3460  -2.3290  -2.1362  -2.0837  -2.0490
    -2.0448  -2.0220  -2.0155  -1.9526   3.6209   3.8435   4.2675   4.4018
     4.4559   4.6820   4.7371   4.8364   5.3196   5.3382   5.3506   5.3587
     5.4179   5.5157   5.9355   5.9723   6.0115   6.0958   6.1897   6.3232
     6.3585   6.3628   6.4426   6.4959   6.5410   6.6071   7.3104   7.3741
     7.5159   7.7692   7.9842   7.9921   7.9968   8.0424   8.2251   8.3551
     8.5896   8.7059   9.2025   9.2086   9.2146   9.2320  10.1267  10.1898
    10.2822  10.3487

     occupation numbers 
     1.0000   1.0000   1.0000   1.0000   1.0000   1.0000   1.0000   1.0000
     1.0000   1.0000   1.0000   1.0000   1.0000   1.0000   1.0000   1.0000
     1.0000   1.0000   1.0000   1.0000   1.0000   1.0000   1.0000   1.0000
     1.0000   1.0000   1.0000   1.0000   1.0000   1.0000   1.0000   1.0000
     1.0000   1.0000   1.0000   1.0000   1.0000   1.0000   1.0000   1.0000
     1.0000   1.0000   1.0000   1.0000   1.0000   1.0000   1.0000   1.0000
     1.0000   1.0000   1.0000   1.0000   1.0000   1.0000   1.0000   1.0000
     1.0000   1.0000   1.0000   1.0000   1.0000   1.0000   1.0000   1.0000
     1.0000   1.0000   1.0000   1.0000   1.0000   1.0000   1.0000   1.0000
     1.0000   1.0000   1.0000   1.0000   1.0000   1.0000   1.0000   1.0000
     1.0000   1.0000   1.0000   1.0000   1.0000   1.0000   0.0000   0.0000
     0.0000   0.0000

          k = 0.0000 0.2832 0.0000 (  5397 PWs)   bands (ev):

   -70.3583 -70.3572 -70.3029 -70.3017 -39.3400 -39.3349 -39.0410 -39.0353
   -39.0340 -39.0337 -38.9815 -38.9813 -38.9794 -38.9749 -38.8795 -38.8752
   -17.0359 -16.9912 -16.9908 -16.9524  -9.1827  -9.1313  -8.0683  -8.0474
    -8.0460  -7.9701  -7.9445  -7.9395  -7.9288  -7.9062  -7.8980  -7.8966
    -2.3693  -2.3617  -2.2135  -2.2133  -2.2113  -2.1466  -2.0641  -2.0253
    -2.0249  -2.0228  -1.9863  -1.9023   3.7931   4.0805   4.1213   4.3014
     4.3449   4.3452   4.4705   4.7425   5.3478   5.3932   5.4159   5.4168
     5.4925   5.8256   5.8258   5.9306   5.9688   6.0782   6.0788   6.1487
     6.1526   6.1996   6.4534   6.4937   6.4938   6.6219   7.0712   7.3534
     7.4835   7.4941   7.4944   7.9476   7.9973   7.9997   8.0924   8.2653
     8.6995   8.8261   9.2129   9.2247   9.2322   9.2323  10.1474  10.2241
    10.2243  10.3081

     occupation numbers 
     1.0000   1.0000   1.0000   1.0000   1.0000   1.0000   1.0000   1.0000
     1.0000   1.0000   1.0000   1.0000   1.0000   1.0000   1.0000   1.0000
     1.0000   1.0000   1.0000   1.0000   1.0000   1.0000   1.0000   1.0000
     1.0000   1.0000   1.0000   1.0000   1.0000   1.0000   1.0000   1.0000
     1.0000   1.0000   1.0000   1.0000   1.0000   1.0000   1.0000   1.0000
     1.0000   1.0000   1.0000   1.0000   1.0000   1.0000   1.0000   1.0000
     1.0000   1.0000   1.0000   1.0000   1.0000   1.0000   1.0000   1.0000
     1.0000   1.0000   1.0000   1.0000   1.0000   1.0000   1.0000   1.0000
     1.0000   1.0000   1.0000   1.0000   1.0000   1.0000   1.0000   1.0000
     1.0000   1.0000   1.0000   1.0000   1.0000   1.0000   1.0000   1.0000
     1.0000   1.0000   1.0000   1.0000   1.0000   1.0000   0.0000   0.0000
     0.0000   0.0000

          k = 0.0000 0.2832 0.1635 (  5379 PWs)   bands (ev):

   -70.3582 -70.3572 -70.3026 -70.3016 -39.3358 -39.3347 -39.0396 -39.0390
   -39.0336 -39.0326 -38.9799 -38.9788 -38.9787 -38.9751 -38.8768 -38.8757
   -17.0294 -17.0124 -16.9712 -16.9574  -9.1704  -9.1445  -8.0628  -8.0607
    -8.0070  -7.9641  -7.9524  -7.9493  -7.9219  -7.9144  -7.9133  -7.8992
    -2.3460  -2.3292  -2.2875  -2.2305  -2.1403  -2.1364  -2.0837  -2.0484
    -2.0449  -2.0012  -1.9527  -1.9405   3.8431   3.9720   4.1748   4.2676
     4.3019   4.4020   4.5878   4.7374   5.3581   5.3836   5.4184   5.4382
     5.5154   5.6539   5.8691   5.9353   5.9622   5.9721   6.1298   6.1840
     6.1902   6.3586   6.3632   6.4168   6.5412   6.5437   7.2127   7.2535
     7.3105   7.3747   7.8340   7.9925   7.9967   8.0024   8.1252   8.2253
     8.7058   8.7752   9.2145   9.2250   9.2320   9.2374  10.1268  10.1398
    10.3180  10.3486

     occupation numbers 
     1.0000   1.0000   1.0000   1.0000   1.0000   1.0000   1.0000   1.0000
     1.0000   1.0000   1.0000   1.0000   1.0000   1.0000   1.0000   1.0000
     1.0000   1.0000   1.0000   1.0000   1.0000   1.0000   1.0000   1.0000
     1.0000   1.0000   1.0000   1.0000   1.0000   1.0000   1.0000   1.0000
     1.0000   1.0000   1.0000   1.0000   1.0000   1.0000   1.0000   1.0000
     1.0000   1.0000   1.0000   1.0000   1.0000   1.0000   1.0000   1.0000
     1.0000   1.0000   1.0000   1.0000   1.0000   1.0000   1.0000   1.0000
     1.0000   1.0000   1.0000   1.0000   1.0000   1.0000   1.0000   1.0000
     1.0000   1.0000   1.0000   1.0000   1.0000   1.0000   1.0000   1.0000
     1.0000   1.0000   1.0000   1.0000   1.0000   1.0000   1.0000   1.0000
     1.0000   1.0000   1.0000   1.0000   1.0000   1.0000   0.0000   0.0000
     0.0000   0.0000

          k = 0.0000 0.2832-0.1635 (  5379 PWs)   bands (ev):

   -70.3582 -70.3572 -70.3026 -70.3016 -39.3358 -39.3347 -39.0396 -39.0390
   -39.0337 -39.0325 -38.9799 -38.9788 -38.9787 -38.9751 -38.8768 -38.8757
   -17.0294 -17.0124 -16.9712 -16.9574  -9.1704  -9.1445  -8.0628  -8.0607
    -8.0070  -7.9640  -7.9525  -7.9493  -7.9219  -7.9145  -7.9132  -7.8992
    -2.3460  -2.3292  -2.2875  -2.2305  -2.1402  -2.1364  -2.0837  -2.0484
    -2.0449  -2.0011  -1.9528  -1.9405   3.8431   3.9720   4.1748   4.2676
     4.3019   4.4020   4.5877   4.7374   5.3581   5.3837   5.4184   5.4382
     5.5154   5.6539   5.8691   5.9352   5.9623   5.9721   6.1298   6.1839
     6.1903   6.3586   6.3632   6.4168   6.5412   6.5437   7.2127   7.2534
     7.3105   7.3747   7.8340   7.9925   7.9966   8.0024   8.1252   8.2253
     8.7058   8.7752   9.2145   9.2250   9.2321   9.2373  10.1268  10.1398
    10.3179  10.3487

     occupation numbers 
     1.0000   1.0000   1.0000   1.0000   1.0000   1.0000   1.0000   1.0000
     1.0000   1.0000   1.0000   1.0000   1.0000   1.0000   1.0000   1.0000
     1.0000   1.0000   1.0000   1.0000   1.0000   1.0000   1.0000   1.0000
     1.0000   1.0000   1.0000   1.0000   1.0000   1.0000   1.0000   1.0000
     1.0000   1.0000   1.0000   1.0000   1.0000   1.0000   1.0000   1.0000
     1.0000   1.0000   1.0000   1.0000   1.0000   1.0000   1.0000   1.0000
     1.0000   1.0000   1.0000   1.0000   1.0000   1.0000   1.0000   1.0000
     1.0000   1.0000   1.0000   1.0000   1.0000   1.0000   1.0000   1.0000
     1.0000   1.0000   1.0000   1.0000   1.0000   1.0000   1.0000   1.0000
     1.0000   1.0000   1.0000   1.0000   1.0000   1.0000   1.0000   1.0000
     1.0000   1.0000   1.0000   1.0000   1.0000   1.0000   0.0000   0.0000
     0.0000   0.0000

          k = 0.3333 0.0000-0.0000 (  5406 PWs)   bands (ev):

   -70.3446 -70.3436 -70.3168 -70.3155 -39.2257 -39.2229 -39.0250 -39.0232
   -39.0228 -39.0215 -38.9966 -38.9964 -38.9963 -38.9951 -38.9900 -38.9891
   -17.0246 -16.9966 -16.9763 -16.9614  -8.9025  -8.8580  -8.3568  -8.3231
    -8.0379  -7.9916  -7.9357  -7.9184  -7.9135  -7.9128  -7.8890  -7.8884
    -2.4493  -2.4492  -2.2980  -2.2580  -2.2404  -2.2207  -2.2206  -2.1776
    -2.1500  -2.1061  -1.9336  -1.9189   4.1449   4.3288   4.7154   4.7574
     4.8976   5.0155   5.0331   5.1281   5.1282   5.2434   5.2651   5.2990
     5.3131   5.3254   5.3259   5.3829   5.5193   5.5193   5.7556   5.9177
     5.9487   5.9492   6.5351   6.6913   7.0344   7.4395   7.4427   7.5685
     7.5686   7.5770   7.8111   7.8699   8.0646   8.1801   8.1802   8.1885
     9.2792   9.5310   9.5321   9.6004   9.6004   9.6388   9.9367  10.0667
    10.0668  10.1272

     occupation numbers 
     1.0000   1.0000   1.0000   1.0000   1.0000   1.0000   1.0000   1.0000
     1.0000   1.0000   1.0000   1.0000   1.0000   1.0000   1.0000   1.0000
     1.0000   1.0000   1.0000   1.0000   1.0000   1.0000   1.0000   1.0000
     1.0000   1.0000   1.0000   1.0000   1.0000   1.0000   1.0000   1.0000
     1.0000   1.0000   1.0000   1.0000   1.0000   1.0000   1.0000   1.0000
     1.0000   1.0000   1.0000   1.0000   1.0000   1.0000   1.0000   1.0000
     1.0000   1.0000   1.0000   1.0000   1.0000   1.0000   1.0000   1.0000
     1.0000   1.0000   1.0000   1.0000   1.0000   1.0000   1.0000   1.0000
     1.0000   1.0000   1.0000   1.0000   1.0000   1.0000   1.0000   1.0000
     1.0000   1.0000   1.0000   1.0000   1.0000   1.0000   1.0000   1.0000
     1.0000   1.0000   1.0000   1.0000   1.0000   1.0000   0.0000   0.0000
     0.0000   0.0000

          k = 0.3333 0.0000 0.1635 (  5411 PWs)   bands (ev):

   -70.3447 -70.3437 -70.3167 -70.3157 -39.2255 -39.2245 -39.0242 -39.0242
   -39.0231 -39.0230 -38.9979 -38.9953 -38.9946 -38.9940 -38.9921 -38.9914
   -17.0192 -17.0061 -16.9701 -16.9635  -8.8907  -8.8684  -8.3509  -8.3354
    -8.0003  -7.9707  -7.9416  -7.9302  -7.9186  -7.9169  -7.9109  -7.8962
    -2.4026  -2.3682  -2.3007  -2.2861  -2.2544  -2.2013  -2.1987  -2.1818
    -2.1608  -2.0683  -2.0583  -1.9536   4.1927   4.2995   4.7044   4.7541
     5.0042   5.0476   5.1047   5.1060   5.1124   5.2378   5.2467   5.2726
     5.3139   5.3209   5.3429   5.4071   5.4370   5.4758   5.7399   5.8511
     5.9312   5.9459   6.5879   6.6566   7.1767   7.4441   7.4607   7.5264
     7.5388   7.6947   7.7235   7.9056   8.0222   8.0476   8.1162   8.1931
     9.3568   9.4792   9.5468   9.5832   9.6116   9.6271   9.9561  10.0256
    10.0941  10.1218

     occupation numbers 
     1.0000   1.0000   1.0000   1.0000   1.0000   1.0000   1.0000   1.0000
     1.0000   1.0000   1.0000   1.0000   1.0000   1.0000   1.0000   1.0000
     1.0000   1.0000   1.0000   1.0000   1.0000   1.0000   1.0000   1.0000
     1.0000   1.0000   1.0000   1.0000   1.0000   1.0000   1.0000   1.0000
     1.0000   1.0000   1.0000   1.0000   1.0000   1.0000   1.0000   1.0000
     1.0000   1.0000   1.0000   1.0000   1.0000   1.0000   1.0000   1.0000
     1.0000   1.0000   1.0000   1.0000   1.0000   1.0000   1.0000   1.0000
     1.0000   1.0000   1.0000   1.0000   1.0000   1.0000   1.0000   1.0000
     1.0000   1.0000   1.0000   1.0000   1.0000   1.0000   1.0000   1.0000
     1.0000   1.0000   1.0000   1.0000   1.0000   1.0000   1.0000   1.0000
     1.0000   1.0000   1.0000   1.0000   1.0000   1.0000   0.0000   0.0000
     0.0000   0.0000

          k = 0.3333 0.2832 0.0000 (  5396 PWs)   bands (ev):

   -70.3445 -70.3435 -70.3168 -70.3157 -39.2266 -39.2225 -39.0227 -39.0217
   -39.0211 -39.0206 -38.9984 -38.9949 -38.9947 -38.9942 -38.9932 -38.9916
   -17.0098 -16.9858 -16.9855 -16.9680  -8.9020  -8.8842  -8.3391  -8.2981
    -8.0879  -8.0866  -7.9943  -7.9714  -7.9121  -7.9001  -7.8858  -7.8844
    -2.3175  -2.3037  -2.2271  -2.2270  -2.1900  -2.1517  -2.1329  -2.0917
    -2.0158  -2.0156  -1.9917  -1.9785   4.2847   4.4896   4.7102   4.7106
     4.7125   4.9605   5.0543   5.0597   5.1036   5.1040   5.1689   5.2232
     5.3241   5.3424   5.3427   5.3767   5.3959   5.4290   5.7360   5.7815
     5.7819   5.9580   6.6454   6.6507   7.2151   7.2155   7.2747   7.3518
     7.4681   7.5555   7.7709   7.7713   7.8038   7.8302   7.9273   8.1169
     9.4624   9.5635   9.5705   9.5706   9.6083   9.6123   9.9793  10.0155
    10.0157  10.1037

     occupation numbers 
     1.0000   1.0000   1.0000   1.0000   1.0000   1.0000   1.0000   1.0000
     1.0000   1.0000   1.0000   1.0000   1.0000   1.0000   1.0000   1.0000
     1.0000   1.0000   1.0000   1.0000   1.0000   1.0000   1.0000   1.0000
     1.0000   1.0000   1.0000   1.0000   1.0000   1.0000   1.0000   1.0000
     1.0000   1.0000   1.0000   1.0000   1.0000   1.0000   1.0000   1.0000
     1.0000   1.0000   1.0000   1.0000   1.0000   1.0000   1.0000   1.0000
     1.0000   1.0000   1.0000   1.0000   1.0000   1.0000   1.0000   1.0000
     1.0000   1.0000   1.0000   1.0000   1.0000   1.0000   1.0000   1.0000
     1.0000   1.0000   1.0000   1.0000   1.0000   1.0000   1.0000   1.0000
     1.0000   1.0000   1.0000   1.0000   1.0000   1.0000   1.0000   1.0000
     1.0000   1.0000   1.0000   1.0000   1.0000   1.0000   0.0000   0.0000
     0.0000   0.0000

          k = 0.3333 0.2832 0.1635 (  5401 PWs)   bands (ev):

   -70.3447 -70.3436 -70.3166 -70.3156 -39.2253 -39.2231 -39.0239 -39.0235
   -39.0229 -39.0203 -38.9983 -38.9972 -38.9941 -38.9926 -38.9919 -38.9913
   -17.0061 -16.9968 -16.9762 -16.9701  -8.8996  -8.8908  -8.3356  -8.3171
    -8.0588  -8.0312  -7.9997  -7.9700  -7.9305  -7.9113  -7.9059  -7.8963
    -2.3009  -2.2862  -2.2604  -2.2153  -2.1847  -2.1819  -2.1609  -2.0943
    -2.0684  -1.9861  -1.9537  -1.9447   4.2991   4.3834   4.6725   4.7044
     4.8947   5.0003   5.0038   5.0471   5.0640   5.1125   5.1961   5.2379
     5.3136   5.3185   5.3429   5.3571   5.3794   5.4070   5.7178   5.7398
     5.9132   5.9311   6.6565   6.6653   7.1118   7.1768   7.3798   7.4215
     7.4608   7.5264   7.6578   7.7221   7.8428   7.9050   7.9831   8.1163
     9.4789   9.5448   9.5467   9.5576   9.6105   9.6269   9.9562   9.9584
    10.0938  10.1214

     occupation numbers 
     1.0000   1.0000   1.0000   1.0000   1.0000   1.0000   1.0000   1.0000
     1.0000   1.0000   1.0000   1.0000   1.0000   1.0000   1.0000   1.0000
     1.0000   1.0000   1.0000   1.0000   1.0000   1.0000   1.0000   1.0000
     1.0000   1.0000   1.0000   1.0000   1.0000   1.0000   1.0000   1.0000
     1.0000   1.0000   1.0000   1.0000   1.0000   1.0000   1.0000   1.0000
     1.0000   1.0000   1.0000   1.0000   1.0000   1.0000   1.0000   1.0000
     1.0000   1.0000   1.0000   1.0000   1.0000   1.0000   1.0000   1.0000
     1.0000   1.0000   1.0000   1.0000   1.0000   1.0000   1.0000   1.0000
     1.0000   1.0000   1.0000   1.0000   1.0000   1.0000   1.0000   1.0000
     1.0000   1.0000   1.0000   1.0000   1.0000   1.0000   1.0000   1.0000
     1.0000   1.0000   1.0000   1.0000   1.0000   1.0000   0.0000   0.0000
     0.0000   0.0000

          k = 0.3333 0.2832-0.1635 (  5401 PWs)   bands (ev):

   -70.3447 -70.3436 -70.3166 -70.3156 -39.2253 -39.2231 -39.0239 -39.0235
   -39.0228 -39.0203 -38.9983 -38.9972 -38.9941 -38.9926 -38.9919 -38.9913
   -17.0061 -16.9968 -16.9762 -16.9701  -8.8996  -8.8908  -8.3356  -8.3171
    -8.0589  -8.0312  -7.9996  -7.9699  -7.9306  -7.9114  -7.9059  -7.8962
    -2.3008  -2.2862  -2.2604  -2.2153  -2.1847  -2.1819  -2.1609  -2.0943
    -2.0685  -1.9860  -1.9537  -1.9447   4.2991   4.3835   4.6724   4.7044
     4.8948   5.0003   5.0037   5.0472   5.0640   5.1125   5.1961   5.2380
     5.3135   5.3185   5.3429   5.3572   5.3794   5.4070   5.7178   5.7399
     5.9132   5.9311   6.6565   6.6653   7.1117   7.1769   7.3798   7.4214
     7.4608   7.5264   7.6577   7.7222   7.8428   7.9051   7.9831   8.1163
     9.4789   9.5448   9.5467   9.5576   9.6105   9.6268   9.9561   9.9584
    10.0938  10.1214

     occupation numbers 
     1.0000   1.0000   1.0000   1.0000   1.0000   1.0000   1.0000   1.0000
     1.0000   1.0000   1.0000   1.0000   1.0000   1.0000   1.0000   1.0000
     1.0000   1.0000   1.0000   1.0000   1.0000   1.0000   1.0000   1.0000
     1.0000   1.0000   1.0000   1.0000   1.0000   1.0000   1.0000   1.0000
     1.0000   1.0000   1.0000   1.0000   1.0000   1.0000   1.0000   1.0000
     1.0000   1.0000   1.0000   1.0000   1.0000   1.0000   1.0000   1.0000
     1.0000   1.0000   1.0000   1.0000   1.0000   1.0000   1.0000   1.0000
     1.0000   1.0000   1.0000   1.0000   1.0000   1.0000   1.0000   1.0000
     1.0000   1.0000   1.0000   1.0000   1.0000   1.0000   1.0000   1.0000
     1.0000   1.0000   1.0000   1.0000   1.0000   1.0000   1.0000   1.0000
     1.0000   1.0000   1.0000   1.0000   1.0000   1.0000   0.0000   0.0000
     0.0000   0.0000

     highest occupied, lowest unoccupied level (ev):     9.6388    9.9367

!    total energy              =   -3090.10904101 Ry
     estimated scf accuracy    <       0.00000023 Ry

     The total energy is the sum of the following terms:
     one-electron contribution =    -966.01499457 Ry
     hartree contribution      =     576.56111420 Ry
     xc contribution           =    -275.49024806 Ry
     ewald contribution        =    -811.00703152 Ry
     one-center paw contrib.   =   -1614.15788105 Ry
      -> PAW hartree energy AE =      85.59144424 Ry
      -> PAW hartree energy PS =     -85.25340453 Ry
      -> PAW xc energy AE      =   -1182.59754688 Ry
      -> PAW xc energy PS      =      57.40060101 Ry
      -> total E_H with PAW    =     576.89915391 Ry
      -> total E_XC with PAW   =   -1400.68719393 Ry

     convergence has been achieved in  31 iterations

     Writing all to output data dir calculations_bands/myprefix.save/
 
     init_run     :     12.09s CPU      4.58s WALL (       1 calls)
     electrons    :    189.18s CPU     50.83s WALL (       1 calls)

     Called by init_run:
     wfcinit      :      1.66s CPU      0.44s WALL (       1 calls)
     wfcinit:atom :      0.02s CPU      0.01s WALL (       5 calls)
     wfcinit:wfcr :      1.46s CPU      0.38s WALL (       5 calls)
     potinit      :      4.58s CPU      1.38s WALL (       1 calls)
     hinit0       :      5.03s CPU      2.36s WALL (       1 calls)

     Called by electrons:
     c_bands      :    114.24s CPU     30.04s WALL (      31 calls)
     sum_band     :     24.71s CPU      7.09s WALL (      31 calls)
     v_of_rho     :      2.96s CPU      0.80s WALL (      32 calls)
     v_h          :      0.21s CPU      0.06s WALL (      32 calls)
     v_xc         :      2.75s CPU      0.75s WALL (      32 calls)
     newd         :     12.78s CPU      3.88s WALL (      32 calls)
     PAW_pot      :     34.42s CPU      9.00s WALL (      32 calls)
     mix_rho      :      0.93s CPU      0.25s WALL (      31 calls)

     Called by c_bands:
     init_us_2    :      0.82s CPU      0.22s WALL (     315 calls)
     init_us_2:cp :      0.81s CPU      0.22s WALL (     315 calls)
     cegterg      :    102.71s CPU     26.94s WALL (     155 calls)

     Called by sum_band:
     sum_band:wei :      0.04s CPU      0.01s WALL (      31 calls)
     sum_band:loo :     14.79s CPU      3.81s WALL (      31 calls)
     sum_band:buf :      0.29s CPU      0.08s WALL (     155 calls)
     sum_band:ini :      0.37s CPU      0.10s WALL (     155 calls)
     sum_band:cal :      1.15s CPU      0.29s WALL (     155 calls)
     sum_band:bec :      0.23s CPU      0.06s WALL (     155 calls)
     addusdens    :      7.26s CPU      2.58s WALL (      31 calls)
     addusd:skk   :      0.07s CPU      0.03s WALL (      93 calls)
     addusd:dgemm :      1.02s CPU      0.84s WALL (      93 calls)
     addusd:qvan2 :      4.34s CPU      1.10s WALL (      93 calls)

     Called by *egterg:
     cdiaghg      :     20.70s CPU      5.45s WALL (     780 calls)
     cegterg:over :      3.99s CPU      1.05s WALL (     625 calls)
     cegterg:upda :      2.19s CPU      0.58s WALL (     625 calls)
     cegterg:last :      4.28s CPU      1.09s WALL (     316 calls)
     cdiaghg:chol :      1.32s CPU      0.35s WALL (     780 calls)
     cdiaghg:inve :      0.28s CPU      0.07s WALL (     780 calls)
     cdiaghg:para :      3.50s CPU      0.94s WALL (    1560 calls)
     h_psi        :     67.93s CPU     17.80s WALL (     785 calls)
     s_psi        :      2.62s CPU      0.68s WALL (     785 calls)
     g_psi        :      0.13s CPU      0.03s WALL (     625 calls)

     Called by h_psi:
     h_psi:calbec :      3.33s CPU      0.87s WALL (     785 calls)
     vloc_psi     :     61.45s CPU     16.10s WALL (     785 calls)
     add_vuspsi   :      2.89s CPU      0.74s WALL (     785 calls)

     General routines
     calbec       :      4.44s CPU      1.16s WALL (     940 calls)
     fft          :      2.95s CPU      1.02s WALL (     414 calls)
     ffts         :      1.40s CPU      0.39s WALL (      63 calls)
     fftw         :     64.93s CPU     17.01s WALL (   79960 calls)
     interpolate  :      1.51s CPU      0.42s WALL (      32 calls)
 
     Parallel routines

     PAW routines
     PAW_pot      :     34.42s CPU      9.00s WALL (      32 calls)
     PAW_symme    :      0.10s CPU      0.03s WALL (      63 calls)
 
     PWSCF        :   3m23.23s CPU     56.40s WALL

 
   This run was terminated on:   7:13:32  23Jun2023            

=------------------------------------------------------------------------------=
   JOB DONE.
=------------------------------------------------------------------------------=
