
     Program PWSCF v.7.1 starts on 16Jul2023 at 17:52:10 

     This program is part of the open-source Quantum ESPRESSO suite
     for quantum simulation of materials; please cite
         "P. Giannozzi et al., J. Phys.:Condens. Matter 21 395502 (2009);
         "P. Giannozzi et al., J. Phys.:Condens. Matter 29 465901 (2017);
         "P. Giannozzi et al., J. Chem. Phys. 152 154105 (2020);
          URL http://www.quantum-espresso.org", 
     in publications or presentations arising from this work. More details at
     http://www.quantum-espresso.org/quote

     Parallel version (MPI & OpenMP), running on      32 processor cores
     Number of MPI processes:                 8
     Threads/MPI process:                     4

     MPI processes distributed on     1 nodes
     110469 MiB available memory on the printing compute node when the environment starts
 
     Reading input from espresso_25831.pwi
Warning: card &CELL ignored
Warning: card / ignored

     Current dimensions of program PWSCF are:
     Max number of different atomic species (ntypx) = 10
     Max number of k-points (npk) =  40000
     Max angular momentum in pseudopotentials (lmaxx) =  4
     file Fe.pbe-spn-kjpaw_psl.0.2.1.UPF: wavefunction(s)  3D renormalized
     file O.pbe-n-kjpaw_psl.0.1.UPF: wavefunction(s)  2P renormalized
 
     K-points division:     npool     =       2
     R & G space division:  proc/nbgrp/npool/nimage =       4
     Subspace diagonalization in iterative solution of the eigenvalue problem:
     one sub-group per band group will be used
     scalapack distributed-memory algorithm (size of sub-group:  2*  2 procs)

 
     Parallelization info
     --------------------
     sticks:   dense  smooth     PW     G-vecs:    dense   smooth      PW
     Min         507     254     71                24350     8615    1281
     Max         508     255     72                24351     8616    1284
     Sum        2029    1019    287                97403    34463    5131
 
     Using Slab Decomposition
 


     bravais-lattice index     =            0
     lattice parameter (alat)  =      10.1654  a.u.
     unit-cell volume          =    1552.4270 (a.u.)^3
     number of atoms/cell      =           19
     number of atomic types    =            4
     number of electrons       =       164.00
     number of Kohn-Sham states=          256
     kinetic-energy cutoff     =      30.0000  Ry
     charge density cutoff     =     240.0000  Ry
     scf convergence threshold =      1.0E-06
     mixing beta               =       0.7000
     number of iterations used =            8  plain     mixing
     Exchange-correlation= SLA  PW   PBX  PBC
                           (   1   4   3   4   0   0   0)

     celldm(1)=  10.165389  celldm(2)=   0.000000  celldm(3)=   0.000000
     celldm(4)=   0.000000  celldm(5)=   0.000000  celldm(6)=   0.000000

     crystal axes: (cart. coord. in units of alat)
               a(1) = (   1.000000   0.000000   0.000000 )  
               a(2) = (   0.008074   1.029215   0.000000 )  
               a(3) = (   0.000344   0.000455   1.435929 )  

     reciprocal axes: (cart. coord. in units 2 pi/alat)
               b(1) = (  1.000000 -0.007845 -0.000237 )  
               b(2) = (  0.000000  0.971614 -0.000308 )  
               b(3) = (  0.000000  0.000000  0.696413 )  


     PseudoPot. # 1 for Ca read from file:
     /lustre07/scratch/pragov/crystal_structure_design/utils/SSSP/Ca_pbe_v1.uspp.F.UPF
     MD5 check sum: 403a4c14b9e4d4dfdc3024c9a3812218
     Pseudo is Ultrasoft + core correction, Zval = 10.0
     Generated by new atomic code, or converted to UPF format
     Using radial grid of  845 points,  6 beta functions with: 
                l(1) =   0
                l(2) =   0
                l(3) =   1
                l(4) =   1
                l(5) =   2
                l(6) =   2
     Q(r) pseudized with  8 coefficients,  rinner =    1.500   1.500   1.500
                                                       1.500   1.500

     PseudoPot. # 2 for Fe read from file:
     /lustre07/scratch/pragov/crystal_structure_design/utils/SSSP/Fe.pbe-spn-kjpaw_psl.0.2.1.UPF
     MD5 check sum: e86618425769142926afa95317d90200
     Pseudo is Projector augmented-wave + core cor, Zval = 16.0
     Generated using "atomic" code by A. Dal Corso  v.5.0.99 svn rev. 10869
     Shape of augmentation charge: PSQ
     Using radial grid of 1191 points,  6 beta functions with: 
                l(1) =   0
                l(2) =   0
                l(3) =   1
                l(4) =   1
                l(5) =   2
                l(6) =   2
     Q(r) pseudized with 0 coefficients 


     PseudoPot. # 3 for Re read from file:
     /lustre07/scratch/pragov/crystal_structure_design/utils/SSSP/Re_pbe_v1.2.uspp.F.UPF
     MD5 check sum: 85f993410f3e006da9d71c142b4ad953
     Pseudo is Ultrasoft + core correction, Zval = 15.0
     Generated by new atomic code, or converted to UPF format
     Using radial grid of  981 points,  8 beta functions with: 
                l(1) =   0
                l(2) =   0
                l(3) =   1
                l(4) =   1
                l(5) =   2
                l(6) =   2
                l(7) =   3
                l(8) =   3
     Q(r) pseudized with  8 coefficients,  rinner =    1.150   1.150   1.150
                                                       1.150   1.150   1.150
                                                       1.150

     PseudoPot. # 4 for O  read from file:
     /lustre07/scratch/pragov/crystal_structure_design/utils/SSSP/O.pbe-n-kjpaw_psl.0.1.UPF
     MD5 check sum: 0234752ac141de4415c5fc33072bef88
     Pseudo is Projector augmented-wave + core cor, Zval =  6.0
     Generated using "atomic" code by A. Dal Corso  v.5.0.99 svn rev. 10869
     Shape of augmentation charge: BESSEL
     Using radial grid of 1095 points,  4 beta functions with: 
                l(1) =   0
                l(2) =   0
                l(3) =   1
                l(4) =   1
     Q(r) pseudized with 0 coefficients 


     atomic species   valence    mass     pseudopotential
        Ca            10.00    40.07800     Ca( 1.00)
        Fe            16.00    55.84500     Fe( 1.00)
        Re            15.00   186.20700     Re( 1.00)
        O              6.00    15.99900     O ( 1.00)

     No symmetry found


                                    s                        frac. trans.

      isym =  1     identity                                     

 cryst.   s( 1) = (     1          0          0      )
                  (     0          1          0      )
                  (     0          0          1      )

 cart.    s( 1) = (  1.0000000  0.0000000  0.0000000 )
                  (  0.0000000  1.0000000  0.0000000 )
                  (  0.0000000  0.0000000  1.0000000 )


   Cartesian axes

     site n.     atom                  positions (alat units)
         1           Ca  tau(   1) = (   0.0233706   0.9705138   1.0810954  )
         2           Ca  tau(   2) = (   0.4939105   0.4624483   1.0760323  )
         3           Ca  tau(   3) = (   0.5154188   0.5694809   0.3625449  )
         4           Fe  tau(   4) = (   0.0040190   0.5038263   0.0057911  )
         5           Fe  tau(   5) = (   0.5034784   0.0009225   0.7123617  )
         6           Re  tau(   6) = (   0.5041907   0.0027592   0.0126592  )
         7           Re  tau(   7) = (   1.0016591   0.5070991   0.7067946  )
         8           O   tau(   8) = (   0.0857683   0.4896603   0.3698365  )
         9           O   tau(   9) = (   0.4328034   1.0128290   0.3471876  )
        10           O   tau(  10) = (   0.9235885   0.5378650   1.0690580  )
        11           O   tau(  11) = (   0.5895229   0.0226997   1.0858282  )
        12           O   tau(  12) = (   0.7876638   0.8191299   0.0524890  )
        13           O   tau(  13) = (   0.7063446   0.3144813   0.6672074  )
        14           O   tau(  14) = (   0.2211737   0.2086772   1.3629066  )
        15           O   tau(  15) = (   0.2943184   0.7179451   0.7747341  )
        16           O   tau(  16) = (   0.3081583   0.7370383   1.3732065  )
        17           O   tau(  17) = (   0.2012435   0.2248663   0.7933423  )
        18           O   tau(  18) = (   0.8037835   0.7971398   0.6601915  )
        19           O   tau(  19) = (   0.6889265   0.3045816   0.0545653  )

   Crystallographic axes

     site n.     atom                  positions (cryst. coord.)
         1           Ca  tau(   1) = (  0.0155000  0.9426320  0.7528890  )
         2           Ca  tau(   2) = (  0.4900270  0.4489900  0.7493630  )
         3           Ca  tau(   3) = (  0.5108650  0.5532040  0.2524810  )
         4           Fe  tau(   4) = (  0.0000650  0.4895230  0.0040330  )
         5           Fe  tau(   5) = (  0.5033020  0.0006770  0.4960980  )
         6           Re  tau(   6) = (  0.5041660  0.0026770  0.0088160  )
         7           Re  tau(   7) = (  0.9975130  0.4924870  0.4922210  )
         8           O   tau(   8) = (  0.0818390  0.4756470  0.2575590  )
         9           O   tau(   9) = (  0.4247750  0.9839720  0.2417860  )
        10           O   tau(  10) = (  0.9191150  0.5222680  0.7445060  )
        11           O   tau(  11) = (  0.5890870  0.0217210  0.7561850  )
        12           O   tau(  12) = (  0.7812250  0.7958620  0.0365540  )
        13           O   tau(  13) = (  0.7037190  0.3053490  0.4646520  )
        14           O   tau(  14) = (  0.2192130  0.2023340  0.9491460  )
        15           O   tau(  15) = (  0.2885020  0.6973270  0.5395350  )
        16           O   tau(  16) = (  0.3020500  0.7156940  0.9563190  )
        17           O   tau(  17) = (  0.1992910  0.2182390  0.5524940  )
        18           O   tau(  18) = (  0.7973730  0.7743090  0.4597660  )
        19           O   tau(  19) = (  0.6865240  0.2959190  0.0380000  )

     number of k points=    14
                       cart. coord. in units 2pi/alat
        k(    1) = (   0.0000000   0.0000000   0.0000000), wk =   0.0740741
        k(    2) = (   0.0000000   0.0000000   0.2321377), wk =   0.1481481
        k(    3) = (   0.0000000   0.3238714  -0.0001026), wk =   0.1481481
        k(    4) = (   0.0000000   0.3238714   0.2320351), wk =   0.1481481
        k(    5) = (   0.0000000   0.3238714  -0.2322403), wk =   0.1481481
        k(    6) = (   0.3333333  -0.0026151  -0.0000791), wk =   0.1481481
        k(    7) = (   0.3333333  -0.0026151   0.2320586), wk =   0.1481481
        k(    8) = (   0.3333333  -0.0026151  -0.2322168), wk =   0.1481481
        k(    9) = (   0.3333333   0.3212563  -0.0001818), wk =   0.1481481
        k(   10) = (   0.3333333   0.3212563   0.2319559), wk =   0.1481481
        k(   11) = (   0.3333333   0.3212563  -0.2323195), wk =   0.1481481
        k(   12) = (   0.3333333  -0.3264865   0.0000235), wk =   0.1481481
        k(   13) = (   0.3333333  -0.3264865   0.2321612), wk =   0.1481481
        k(   14) = (   0.3333333  -0.3264865  -0.2321142), wk =   0.1481481

                       cryst. coord.
        k(    1) = (   0.0000000   0.0000000   0.0000000), wk =   0.0740741
        k(    2) = (   0.0000000   0.0000000   0.3333333), wk =   0.1481481
        k(    3) = (   0.0000000   0.3333333   0.0000000), wk =   0.1481481
        k(    4) = (   0.0000000   0.3333333   0.3333333), wk =   0.1481481
        k(    5) = (   0.0000000   0.3333333  -0.3333333), wk =   0.1481481
        k(    6) = (   0.3333333   0.0000000  -0.0000000), wk =   0.1481481
        k(    7) = (   0.3333333   0.0000000   0.3333333), wk =   0.1481481
        k(    8) = (   0.3333333   0.0000000  -0.3333333), wk =   0.1481481
        k(    9) = (   0.3333333   0.3333333   0.0000000), wk =   0.1481481
        k(   10) = (   0.3333333   0.3333333   0.3333333), wk =   0.1481481
        k(   11) = (   0.3333333   0.3333333  -0.3333333), wk =   0.1481481
        k(   12) = (   0.3333333  -0.3333333  -0.0000000), wk =   0.1481481
        k(   13) = (   0.3333333  -0.3333333   0.3333333), wk =   0.1481481
        k(   14) = (   0.3333333  -0.3333333  -0.3333333), wk =   0.1481481

     Dense  grid:    97403 G-vectors     FFT dimensions: (  54,  54,  72)

     Smooth grid:    34463 G-vectors     FFT dimensions: (  36,  40,  54)

     Dynamical RAM for                 wfc:       4.21 MB

     Dynamical RAM for     wfc (w. buffer):      33.66 MB

     Dynamical RAM for           str. fact:       1.49 MB

     Dynamical RAM for           local pot:       0.00 MB

     Dynamical RAM for          nlocal pot:       4.11 MB

     Dynamical RAM for                qrad:      11.94 MB

     Dynamical RAM for          rho,v,vnew:       2.32 MB

     Dynamical RAM for               rhoin:       0.77 MB

     Dynamical RAM for            rho*nmix:       5.95 MB

     Dynamical RAM for           G-vectors:       1.46 MB

     Dynamical RAM for          h,s,v(r/c):       3.00 MB

     Dynamical RAM for          <psi|beta>:       0.98 MB

     Dynamical RAM for                 psi:       8.41 MB

     Dynamical RAM for                hpsi:       8.41 MB

     Dynamical RAM for                spsi:       8.41 MB

     Dynamical RAM for      wfcinit/wfcrot:       9.92 MB

     Dynamical RAM for           addusdens:     105.52 MB

     Estimated static dynamical RAM per process >      59.60 MB

     Estimated max dynamical RAM per process >     171.07 MB

     Estimated total dynamical RAM >       1.31 GB

     Check: negative core charge=   -0.000069

     Initial potential from superposition of free atoms

     starting charge     162.9826, renormalised to     164.0000

     negative rho (up, down):  2.595E-01 0.000E+00
     Starting wfcs are  130 randomized atomic wfcs +  126 random wfcs
     Checking if some PAW data can be deallocated... 
       PAW data deallocated on    7 nodes for type:  2
       PAW data deallocated on    2 nodes for type:  4

     total cpu time spent up to now is        4.0 secs

     Self-consistent Calculation

     iteration #  1     ecut=    30.00 Ry     beta= 0.70
     Davidson diagonalization with overlap

---- Real-time Memory Report at c_bands before calling an iterative solver
           343 MiB given to the printing process from OS
             0 MiB allocation reported by mallinfo(arena+hblkhd)
        109646 MiB available memory on the node where the printing process lives
------------------
     ethr =  1.00E-02,  avg # of iterations =  6.0

     negative rho (up, down):  2.951E-01 0.000E+00

     total cpu time spent up to now is       18.6 secs

     total energy              =   -1760.74541666 Ry
     estimated scf accuracy    <       6.01610641 Ry

     iteration #  2     ecut=    30.00 Ry     beta= 0.70
     Davidson diagonalization with overlap

---- Real-time Memory Report at c_bands before calling an iterative solver
           440 MiB given to the printing process from OS
             0 MiB allocation reported by mallinfo(arena+hblkhd)
        109288 MiB available memory on the node where the printing process lives
------------------
     ethr =  3.67E-03,  avg # of iterations =  2.0

     negative rho (up, down):  2.717E-01 0.000E+00

     total cpu time spent up to now is       25.5 secs

     total energy              =   -1756.68979183 Ry
     estimated scf accuracy    <      59.85578005 Ry

     iteration #  3     ecut=    30.00 Ry     beta= 0.70
     Davidson diagonalization with overlap

---- Real-time Memory Report at c_bands before calling an iterative solver
           444 MiB given to the printing process from OS
             0 MiB allocation reported by mallinfo(arena+hblkhd)
        109243 MiB available memory on the node where the printing process lives
------------------
     ethr =  3.67E-03,  avg # of iterations =  1.6

     negative rho (up, down):  2.630E-01 0.000E+00

     total cpu time spent up to now is       31.1 secs

     total energy              =   -1762.05023561 Ry
     estimated scf accuracy    <      37.61104234 Ry

     iteration #  4     ecut=    30.00 Ry     beta= 0.70
     Davidson diagonalization with overlap

---- Real-time Memory Report at c_bands before calling an iterative solver
           449 MiB given to the printing process from OS
             0 MiB allocation reported by mallinfo(arena+hblkhd)
        109202 MiB available memory on the node where the printing process lives
------------------
     ethr =  3.67E-03,  avg # of iterations =  1.0

     negative rho (up, down):  2.661E-01 0.000E+00

     total cpu time spent up to now is       37.1 secs

     total energy              =   -1764.25359417 Ry
     estimated scf accuracy    <       2.80210916 Ry

     iteration #  5     ecut=    30.00 Ry     beta= 0.70
     Davidson diagonalization with overlap

---- Real-time Memory Report at c_bands before calling an iterative solver
           449 MiB given to the printing process from OS
             0 MiB allocation reported by mallinfo(arena+hblkhd)
        109207 MiB available memory on the node where the printing process lives
------------------
     ethr =  1.71E-03,  avg # of iterations =  1.0

     negative rho (up, down):  2.711E-01 0.000E+00

     total cpu time spent up to now is       41.8 secs

     total energy              =   -1764.31914729 Ry
     estimated scf accuracy    <       1.17883049 Ry

     iteration #  6     ecut=    30.00 Ry     beta= 0.70
     Davidson diagonalization with overlap

---- Real-time Memory Report at c_bands before calling an iterative solver
           449 MiB given to the printing process from OS
             0 MiB allocation reported by mallinfo(arena+hblkhd)
        109214 MiB available memory on the node where the printing process lives
------------------
     ethr =  7.19E-04,  avg # of iterations =  1.0

     negative rho (up, down):  2.734E-01 0.000E+00

     total cpu time spent up to now is       46.6 secs

     total energy              =   -1764.30199496 Ry
     estimated scf accuracy    <       0.95146520 Ry

     iteration #  7     ecut=    30.00 Ry     beta= 0.70
     Davidson diagonalization with overlap

---- Real-time Memory Report at c_bands before calling an iterative solver
           449 MiB given to the printing process from OS
             0 MiB allocation reported by mallinfo(arena+hblkhd)
        109209 MiB available memory on the node where the printing process lives
------------------
     ethr =  5.80E-04,  avg # of iterations =  1.0

     negative rho (up, down):  2.778E-01 0.000E+00

     total cpu time spent up to now is       51.7 secs

     total energy              =   -1764.28392733 Ry
     estimated scf accuracy    <       0.86507348 Ry

     iteration #  8     ecut=    30.00 Ry     beta= 0.70
     Davidson diagonalization with overlap

---- Real-time Memory Report at c_bands before calling an iterative solver
           449 MiB given to the printing process from OS
             0 MiB allocation reported by mallinfo(arena+hblkhd)
        109210 MiB available memory on the node where the printing process lives
------------------
     ethr =  5.27E-04,  avg # of iterations =  1.0

     negative rho (up, down):  2.799E-01 0.000E+00

     total cpu time spent up to now is       56.7 secs

     total energy              =   -1764.29847016 Ry
     estimated scf accuracy    <       0.35540957 Ry

     iteration #  9     ecut=    30.00 Ry     beta= 0.70
     Davidson diagonalization with overlap

---- Real-time Memory Report at c_bands before calling an iterative solver
           449 MiB given to the printing process from OS
             0 MiB allocation reported by mallinfo(arena+hblkhd)
        109210 MiB available memory on the node where the printing process lives
------------------
     ethr =  2.17E-04,  avg # of iterations =  1.1

     negative rho (up, down):  2.807E-01 0.000E+00

     total cpu time spent up to now is       61.4 secs

     total energy              =   -1764.29624770 Ry
     estimated scf accuracy    <       0.16190458 Ry

     iteration # 10     ecut=    30.00 Ry     beta= 0.70
     Davidson diagonalization with overlap

---- Real-time Memory Report at c_bands before calling an iterative solver
           449 MiB given to the printing process from OS
             0 MiB allocation reported by mallinfo(arena+hblkhd)
        109207 MiB available memory on the node where the printing process lives
------------------
     ethr =  9.87E-05,  avg # of iterations =  1.5

     negative rho (up, down):  2.811E-01 0.000E+00

     total cpu time spent up to now is       67.8 secs

     total energy              =   -1764.29522678 Ry
     estimated scf accuracy    <       0.06367791 Ry

     iteration # 11     ecut=    30.00 Ry     beta= 0.70
     Davidson diagonalization with overlap

---- Real-time Memory Report at c_bands before calling an iterative solver
           449 MiB given to the printing process from OS
             0 MiB allocation reported by mallinfo(arena+hblkhd)
        109205 MiB available memory on the node where the printing process lives
------------------
     ethr =  3.88E-05,  avg # of iterations =  2.9

     negative rho (up, down):  2.815E-01 0.000E+00

     total cpu time spent up to now is       74.7 secs

     total energy              =   -1764.29462389 Ry
     estimated scf accuracy    <       0.02467238 Ry

     iteration # 12     ecut=    30.00 Ry     beta= 0.70
     Davidson diagonalization with overlap

---- Real-time Memory Report at c_bands before calling an iterative solver
           449 MiB given to the printing process from OS
             0 MiB allocation reported by mallinfo(arena+hblkhd)
        109207 MiB available memory on the node where the printing process lives
------------------
     ethr =  1.50E-05,  avg # of iterations =  4.1

     negative rho (up, down):  2.821E-01 0.000E+00

     total cpu time spent up to now is       80.8 secs

     total energy              =   -1764.29435241 Ry
     estimated scf accuracy    <       0.00607253 Ry

     iteration # 13     ecut=    30.00 Ry     beta= 0.70
     Davidson diagonalization with overlap

---- Real-time Memory Report at c_bands before calling an iterative solver
           449 MiB given to the printing process from OS
             0 MiB allocation reported by mallinfo(arena+hblkhd)
        109206 MiB available memory on the node where the printing process lives
------------------
     ethr =  3.70E-06,  avg # of iterations =  6.8

     negative rho (up, down):  2.819E-01 0.000E+00

     total cpu time spent up to now is       87.9 secs

     total energy              =   -1764.29505720 Ry
     estimated scf accuracy    <       0.00129060 Ry

     iteration # 14     ecut=    30.00 Ry     beta= 0.70
     Davidson diagonalization with overlap

---- Real-time Memory Report at c_bands before calling an iterative solver
           451 MiB given to the printing process from OS
             0 MiB allocation reported by mallinfo(arena+hblkhd)
        109175 MiB available memory on the node where the printing process lives
------------------
     ethr =  7.87E-07,  avg # of iterations =  4.6

     negative rho (up, down):  2.818E-01 0.000E+00

     total cpu time spent up to now is       94.3 secs

     total energy              =   -1764.29512352 Ry
     estimated scf accuracy    <       0.00031652 Ry

     iteration # 15     ecut=    30.00 Ry     beta= 0.70
     Davidson diagonalization with overlap

---- Real-time Memory Report at c_bands before calling an iterative solver
           455 MiB given to the printing process from OS
             0 MiB allocation reported by mallinfo(arena+hblkhd)
        109167 MiB available memory on the node where the printing process lives
------------------
     ethr =  1.93E-07,  avg # of iterations =  1.0

     negative rho (up, down):  2.819E-01 0.000E+00

     total cpu time spent up to now is      100.7 secs

     total energy              =   -1764.29515573 Ry
     estimated scf accuracy    <       0.00008372 Ry

     iteration # 16     ecut=    30.00 Ry     beta= 0.70
     Davidson diagonalization with overlap

---- Real-time Memory Report at c_bands before calling an iterative solver
           455 MiB given to the printing process from OS
             0 MiB allocation reported by mallinfo(arena+hblkhd)
        109172 MiB available memory on the node where the printing process lives
------------------
     ethr =  5.10E-08,  avg # of iterations =  1.2

     negative rho (up, down):  2.819E-01 0.000E+00

     total cpu time spent up to now is      106.8 secs

     total energy              =   -1764.29514307 Ry
     estimated scf accuracy    <       0.00031483 Ry

     iteration # 17     ecut=    30.00 Ry     beta= 0.70
     Davidson diagonalization with overlap

---- Real-time Memory Report at c_bands before calling an iterative solver
           455 MiB given to the printing process from OS
             0 MiB allocation reported by mallinfo(arena+hblkhd)
        109176 MiB available memory on the node where the printing process lives
------------------
     ethr =  5.10E-08,  avg # of iterations =  1.0

     negative rho (up, down):  2.819E-01 0.000E+00

     total cpu time spent up to now is      112.2 secs

     total energy              =   -1764.29516817 Ry
     estimated scf accuracy    <       0.00006668 Ry

     iteration # 18     ecut=    30.00 Ry     beta= 0.70
     Davidson diagonalization with overlap

---- Real-time Memory Report at c_bands before calling an iterative solver
           455 MiB given to the printing process from OS
             0 MiB allocation reported by mallinfo(arena+hblkhd)
        109167 MiB available memory on the node where the printing process lives
------------------
     ethr =  4.07E-08,  avg # of iterations =  1.0

     negative rho (up, down):  2.819E-01 0.000E+00

     total cpu time spent up to now is      118.3 secs

     total energy              =   -1764.29517030 Ry
     estimated scf accuracy    <       0.00001691 Ry

     iteration # 19     ecut=    30.00 Ry     beta= 0.70
     Davidson diagonalization with overlap

---- Real-time Memory Report at c_bands before calling an iterative solver
           455 MiB given to the printing process from OS
             0 MiB allocation reported by mallinfo(arena+hblkhd)
        109166 MiB available memory on the node where the printing process lives
------------------
     ethr =  1.03E-08,  avg # of iterations =  1.0

     negative rho (up, down):  2.819E-01 0.000E+00

     total cpu time spent up to now is      123.1 secs

     total energy              =   -1764.29517246 Ry
     estimated scf accuracy    <       0.00000677 Ry

     iteration # 20     ecut=    30.00 Ry     beta= 0.70
     Davidson diagonalization with overlap

---- Real-time Memory Report at c_bands before calling an iterative solver
           455 MiB given to the printing process from OS
             0 MiB allocation reported by mallinfo(arena+hblkhd)
        109172 MiB available memory on the node where the printing process lives
------------------
     ethr =  4.13E-09,  avg # of iterations =  1.0

     negative rho (up, down):  2.819E-01 0.000E+00

     total cpu time spent up to now is      127.5 secs

     total energy              =   -1764.29517350 Ry
     estimated scf accuracy    <       0.00000127 Ry

     iteration # 21     ecut=    30.00 Ry     beta= 0.70
     Davidson diagonalization with overlap

---- Real-time Memory Report at c_bands before calling an iterative solver
           455 MiB given to the printing process from OS
             0 MiB allocation reported by mallinfo(arena+hblkhd)
        109176 MiB available memory on the node where the printing process lives
------------------
     ethr =  7.73E-10,  avg # of iterations =  1.0

     negative rho (up, down):  2.819E-01 0.000E+00

     total cpu time spent up to now is      131.9 secs

     total energy              =   -1764.29517359 Ry
     estimated scf accuracy    <       0.00000112 Ry

     iteration # 22     ecut=    30.00 Ry     beta= 0.70
     Davidson diagonalization with overlap

---- Real-time Memory Report at c_bands before calling an iterative solver
           455 MiB given to the printing process from OS
             0 MiB allocation reported by mallinfo(arena+hblkhd)
        109176 MiB available memory on the node where the printing process lives
------------------
     ethr =  6.82E-10,  avg # of iterations =  1.0

     negative rho (up, down):  2.819E-01 0.000E+00

     total cpu time spent up to now is      138.2 secs

     End of self-consistent calculation

          k = 0.0000 0.0000 0.0000 (  4299 PWs)   bands (ev):

   -77.3745 -77.3131 -73.0317 -73.0146 -42.9630 -42.9259 -42.9000 -42.8812
   -42.8599 -42.8556 -34.8202 -34.8008 -34.7794 -34.7632 -34.7422 -34.7322
   -29.9273 -29.5613 -29.4992 -11.2905 -11.1492 -11.1342 -10.9297 -10.8983
   -10.8273 -10.6360 -10.5991 -10.5761  -9.6984  -8.9865  -8.8294  -8.7111
    -8.6522  -8.5659  -8.1561  -8.1154  -8.0323  -8.0026  -7.8014  -7.7217
     2.2753   2.7934   3.0749   3.1009   3.1435   3.2737   3.4735   3.5448
     3.5967   3.6563   4.2224   4.2731   5.0953   5.3216   5.3731   5.4095
     5.6525   5.8237   6.1975   6.2107   6.3158   6.5005   6.6435   6.7159
     7.0867   7.2181   7.2223   7.3951   7.4551   7.5586   7.5779   7.6551
     7.7350   7.7419   7.8091   7.8881   8.5990   8.6266   8.7488   8.7748
     9.5468   9.6174  10.1462  10.1564  10.2586  10.6971  10.8764  11.1049
    11.2812  11.3877  11.4714  11.5727  14.5612  14.5803  15.2370  15.2629
    15.3499  15.4194  15.5847  15.6880  15.9663  16.0567  16.2280  16.3066
    16.4319  16.5094  16.5511  16.5691  16.7667  16.9113  16.9335  16.9972
    18.2638  18.6971  18.9244  19.7732  20.2222  20.6226  21.3101  22.0684
    22.3525  22.3763  22.6816  22.8269  22.9536  23.0405  23.2719  23.4431
    23.7706  23.8998  24.0693  24.1318  24.3114  24.5276  24.7148  25.0245
    25.2061  25.4038  25.5171  26.1893  26.4078  26.6120  26.7647  27.5351
    27.7620  28.2532  28.5260  28.8634  29.1045  29.4196  29.6861  29.8570
    30.1388  30.1570  30.5954  30.8114  31.1046  31.2645  31.7452  32.3097
    32.3351  32.5360  32.7865  32.8451  33.0465  33.0866  33.2020  33.3926
    33.4695  34.1845  34.2620  34.3200  34.5092  34.6955  35.3290  35.7045
    35.7388  35.9504  35.9962  36.4319  36.6662  36.8157  37.2215  37.5675
    37.7865  37.8486  38.1701  38.5896  38.6877  38.8589  38.9416  39.0932
    39.1638  39.5614  39.6479  39.7383  39.8600  39.8825  40.0401  40.3216
    40.6965  40.8260  40.9392  41.1344  41.2492  41.2978  41.5216  41.6815
    41.9470  42.2124  42.4191  42.6357  43.0513  43.2722  43.3985  43.5461
    43.6392  43.7966  43.9154  44.0396  44.1092  44.1953  44.3426  44.5787
    44.7694  44.8510  45.3630  45.4716  45.6129  45.7892  46.0099  46.1538
    46.2625  46.3751  46.5636  46.6635  46.7655  47.0719  47.2960  47.4021
    47.4380  47.5772  47.7373  47.9841  48.2494  48.4683  48.5840  48.6998
    48.9027  48.9740  49.1387  49.2684  49.4011  49.5535  49.9528  50.2009

     occupation numbers 
     1.0000   1.0000   1.0000   1.0000   1.0000   1.0000   1.0000   1.0000
     1.0000   1.0000   1.0000   1.0000   1.0000   1.0000   1.0000   1.0000
     1.0000   1.0000   1.0000   1.0000   1.0000   1.0000   1.0000   1.0000
     1.0000   1.0000   1.0000   1.0000   1.0000   1.0000   1.0000   1.0000
     1.0000   1.0000   1.0000   1.0000   1.0000   1.0000   1.0000   1.0000
     1.0000   1.0000   1.0000   1.0000   1.0000   1.0000   1.0000   1.0000
     1.0000   1.0000   1.0000   1.0000   1.0000   1.0000   1.0000   1.0000
     1.0000   1.0000   1.0000   1.0000   1.0000   1.0000   1.0000   1.0000
     1.0000   1.0000   1.0000   1.0000   1.0000   1.0000   1.0000   1.0000
     1.0000   1.0000   1.0000   1.0000   1.0000   1.0000   1.0000   1.0000
     1.0000   1.0000   0.0000   0.0000   0.0000   0.0000   0.0000   0.0000
     0.0000   0.0000   0.0000   0.0000   0.0000   0.0000   0.0000   0.0000
     0.0000   0.0000   0.0000   0.0000   0.0000   0.0000   0.0000   0.0000
     0.0000   0.0000   0.0000   0.0000   0.0000   0.0000   0.0000   0.0000
     0.0000   0.0000   0.0000   0.0000   0.0000   0.0000   0.0000   0.0000
     0.0000   0.0000   0.0000   0.0000   0.0000   0.0000   0.0000   0.0000
     0.0000   0.0000   0.0000   0.0000   0.0000   0.0000   0.0000   0.0000
     0.0000   0.0000   0.0000   0.0000   0.0000   0.0000   0.0000   0.0000
     0.0000   0.0000   0.0000   0.0000   0.0000   0.0000   0.0000   0.0000
     0.0000   0.0000   0.0000   0.0000   0.0000   0.0000   0.0000   0.0000
     0.0000   0.0000   0.0000   0.0000   0.0000   0.0000   0.0000   0.0000
     0.0000   0.0000   0.0000   0.0000   0.0000   0.0000   0.0000   0.0000
     0.0000   0.0000   0.0000   0.0000   0.0000   0.0000   0.0000   0.0000
     0.0000   0.0000   0.0000   0.0000   0.0000   0.0000   0.0000   0.0000
     0.0000   0.0000   0.0000   0.0000   0.0000   0.0000   0.0000   0.0000
     0.0000   0.0000   0.0000   0.0000   0.0000   0.0000   0.0000   0.0000
     0.0000   0.0000   0.0000   0.0000   0.0000   0.0000   0.0000   0.0000
     0.0000   0.0000   0.0000   0.0000   0.0000   0.0000   0.0000   0.0000
     0.0000   0.0000   0.0000   0.0000   0.0000   0.0000   0.0000   0.0000
     0.0000   0.0000   0.0000   0.0000   0.0000   0.0000   0.0000   0.0000
     0.0000   0.0000   0.0000   0.0000   0.0000   0.0000   0.0000   0.0000
     0.0000   0.0000   0.0000   0.0000   0.0000   0.0000   0.0000   0.0000

          k = 0.0000 0.0000 0.2321 (  4284 PWs)   bands (ev):

   -77.3729 -77.3117 -73.0317 -73.0146 -42.9581 -42.9179 -42.8945 -42.8769
   -42.8547 -42.8535 -34.8202 -34.8008 -34.7794 -34.7632 -34.7422 -34.7322
   -29.9273 -29.5613 -29.4992 -11.2314 -11.1433 -11.1330 -10.9496 -10.9112
   -10.8941 -10.6481 -10.6016 -10.5749  -9.4967  -9.1093  -8.8824  -8.6857
    -8.6556  -8.5675  -8.1361  -8.0893  -8.0519  -8.0028  -7.8365  -7.7431
     2.5291   2.8644   3.0997   3.1705   3.2932   3.3462   3.5187   3.5586
     3.6635   3.7247   4.0421   4.1240   5.0331   5.1816   5.2873   5.4225
     5.5227   5.6508   6.0352   6.1247   6.2836   6.4869   6.7679   6.8770
     6.9223   7.0796   7.1945   7.2718   7.4204   7.4695   7.5291   7.6051
     7.6794   7.7214   7.7984   7.9259   8.6295   8.7502   9.0607   9.1431
     9.5061   9.5698  10.1348  10.1665  10.5499  10.8055  10.8446  10.9965
    11.3759  11.4166  11.4950  11.5180  14.6906  15.0380  15.2111  15.2915
    15.4433  15.5350  15.5880  15.7910  15.9450  16.0392  16.1333  16.2007
    16.3176  16.3828  16.4952  16.5993  16.7146  16.7665  16.8096  16.9167
    17.1652  18.7703  19.6868  20.3351  20.5931  20.8689  21.2878  21.5265
    21.7798  22.1637  22.6091  22.7532  22.9588  23.1383  23.3518  23.5292
    23.7366  23.8273  23.9839  24.1568  24.4379  24.6239  24.7259  24.8480
    25.0577  25.3382  25.9788  26.1316  26.5609  26.6445  27.1817  27.4659
    27.9949  28.0703  28.3598  28.8921  29.1319  29.3952  29.4423  29.6177
    29.7818  30.0854  30.5651  30.6688  31.1335  31.4763  31.8125  31.8636
    32.3261  32.4670  32.6664  32.8489  32.9772  33.4494  33.5869  33.6963
    34.0365  34.2616  34.3369  34.7461  34.8479  35.0319  35.1993  35.5985
    35.9073  36.0823  36.3455  36.5417  36.6920  37.0530  37.1951  37.4782
    37.6297  37.8720  38.0620  38.2398  38.3948  38.5893  38.7165  38.8145
    38.9036  39.1473  39.2754  39.5013  39.7335  39.9329  39.9809  40.2538
    40.3166  40.5005  40.8075  41.0123  41.2154  41.4980  41.6837  41.8211
    42.0960  42.2745  42.3789  42.6535  42.7679  43.0893  43.3328  43.5132
    43.6830  43.8389  43.9756  44.1447  44.1968  44.4118  44.5131  44.6699
    44.8026  45.0130  45.2009  45.2809  45.4223  45.6827  45.7857  46.1126
    46.1630  46.5817  46.6818  46.8831  46.9329  47.0397  47.2656  47.4401
    47.6503  47.8175  48.0150  48.2396  48.3020  48.4503  48.6793  48.8265
    48.8854  49.0947  49.3804  49.6070  49.7045  49.8877  49.9604  50.1929

     occupation numbers 
     1.0000   1.0000   1.0000   1.0000   1.0000   1.0000   1.0000   1.0000
     1.0000   1.0000   1.0000   1.0000   1.0000   1.0000   1.0000   1.0000
     1.0000   1.0000   1.0000   1.0000   1.0000   1.0000   1.0000   1.0000
     1.0000   1.0000   1.0000   1.0000   1.0000   1.0000   1.0000   1.0000
     1.0000   1.0000   1.0000   1.0000   1.0000   1.0000   1.0000   1.0000
     1.0000   1.0000   1.0000   1.0000   1.0000   1.0000   1.0000   1.0000
     1.0000   1.0000   1.0000   1.0000   1.0000   1.0000   1.0000   1.0000
     1.0000   1.0000   1.0000   1.0000   1.0000   1.0000   1.0000   1.0000
     1.0000   1.0000   1.0000   1.0000   1.0000   1.0000   1.0000   1.0000
     1.0000   1.0000   1.0000   1.0000   1.0000   1.0000   1.0000   1.0000
     1.0000   1.0000   0.0000   0.0000   0.0000   0.0000   0.0000   0.0000
     0.0000   0.0000   0.0000   0.0000   0.0000   0.0000   0.0000   0.0000
     0.0000   0.0000   0.0000   0.0000   0.0000   0.0000   0.0000   0.0000
     0.0000   0.0000   0.0000   0.0000   0.0000   0.0000   0.0000   0.0000
     0.0000   0.0000   0.0000   0.0000   0.0000   0.0000   0.0000   0.0000
     0.0000   0.0000   0.0000   0.0000   0.0000   0.0000   0.0000   0.0000
     0.0000   0.0000   0.0000   0.0000   0.0000   0.0000   0.0000   0.0000
     0.0000   0.0000   0.0000   0.0000   0.0000   0.0000   0.0000   0.0000
     0.0000   0.0000   0.0000   0.0000   0.0000   0.0000   0.0000   0.0000
     0.0000   0.0000   0.0000   0.0000   0.0000   0.0000   0.0000   0.0000
     0.0000   0.0000   0.0000   0.0000   0.0000   0.0000   0.0000   0.0000
     0.0000   0.0000   0.0000   0.0000   0.0000   0.0000   0.0000   0.0000
     0.0000   0.0000   0.0000   0.0000   0.0000   0.0000   0.0000   0.0000
     0.0000   0.0000   0.0000   0.0000   0.0000   0.0000   0.0000   0.0000
     0.0000   0.0000   0.0000   0.0000   0.0000   0.0000   0.0000   0.0000
     0.0000   0.0000   0.0000   0.0000   0.0000   0.0000   0.0000   0.0000
     0.0000   0.0000   0.0000   0.0000   0.0000   0.0000   0.0000   0.0000
     0.0000   0.0000   0.0000   0.0000   0.0000   0.0000   0.0000   0.0000
     0.0000   0.0000   0.0000   0.0000   0.0000   0.0000   0.0000   0.0000
     0.0000   0.0000   0.0000   0.0000   0.0000   0.0000   0.0000   0.0000
     0.0000   0.0000   0.0000   0.0000   0.0000   0.0000   0.0000   0.0000
     0.0000   0.0000   0.0000   0.0000   0.0000   0.0000   0.0000   0.0000

          k = 0.0000 0.3239-0.0001 (  4309 PWs)   bands (ev):

   -77.3750 -77.3138 -73.0317 -73.0146 -42.9642 -42.9248 -42.9046 -42.8856
   -42.8646 -42.8565 -34.8202 -34.8008 -34.7794 -34.7633 -34.7423 -34.7322
   -29.9272 -29.5603 -29.5000 -11.2521 -11.1917 -11.1389 -10.9019 -10.8400
   -10.8009 -10.7225 -10.6830 -10.6669  -9.3771  -8.9734  -8.8082  -8.7387
    -8.6681  -8.6071  -8.2148  -8.1050  -8.0387  -7.9689  -7.8623  -7.7902
     2.5717   2.8867   3.2088   3.2604   3.3820   3.4606   3.5617   3.6683
     3.7962   3.9271   3.9976   4.0790   4.8637   5.0216   5.2129   5.3881
     5.4137   5.5854   6.1126   6.1636   6.2466   6.4214   6.5216   6.6262
     6.7311   6.9247   6.9611   7.1195   7.1685   7.2307   7.2795   7.3887
     7.5817   7.7297   7.8195   7.8986   9.0458   9.1333   9.2402   9.2981
     9.5052   9.5859  10.2974  10.4605  10.6305  10.6712  10.8522  10.9584
    11.3118  11.3595  11.5741  11.6764  14.9253  15.1106  15.2327  15.3438
    15.4701  15.6189  15.6691  15.8160  15.9143  16.0378  16.1692  16.1988
    16.3211  16.3625  16.4343  16.6332  16.7088  16.8645  16.8904  16.9768
    17.9480  18.8056  19.3784  19.5286  20.6293  20.9339  21.0242  21.6533
    21.8228  22.0360  22.3288  22.7743  22.9456  23.2730  23.3826  23.5349
    23.7294  23.8957  24.1169  24.3338  24.6261  24.7420  25.0379  25.1802
    25.3191  25.5491  26.0100  26.1173  26.4498  26.7064  27.0436  27.3084
    27.4970  27.8476  28.1176  28.2673  28.5543  28.9137  29.0615  29.4938
    29.7963  30.0471  30.3454  30.6205  30.8527  31.1420  31.7068  31.7684
    32.0266  32.2634  32.7479  32.8235  32.9703  33.4143  33.6820  33.8905
    34.0129  34.4307  34.7424  34.8778  34.9530  35.1286  35.2687  35.5769
    35.8087  36.1331  36.2942  36.5435  36.7427  36.8140  37.2212  37.4660
    37.6625  37.8970  38.0161  38.2459  38.4470  38.5778  38.7784  38.9473
    39.1286  39.5209  39.5565  39.7626  39.8719  40.0654  40.3137  40.3907
    40.6062  40.7713  40.9315  41.1064  41.3596  41.6270  41.6991  42.0476
    42.1840  42.2917  42.4680  42.6517  42.8171  43.0102  43.1354  43.4003
    43.6238  43.8322  44.0506  44.2208  44.4484  44.7665  44.9199  45.0429
    45.1544  45.3737  45.4681  45.6119  45.8133  45.9503  46.1123  46.1895
    46.3494  46.4919  46.6044  46.7590  46.8313  46.9773  47.1062  47.2838
    47.4851  47.6612  47.7500  47.9960  48.0857  48.3020  48.4048  48.5352
    48.7139  49.0015  49.1449  49.3002  49.4740  49.5899  49.7624  50.0288

     occupation numbers 
     1.0000   1.0000   1.0000   1.0000   1.0000   1.0000   1.0000   1.0000
     1.0000   1.0000   1.0000   1.0000   1.0000   1.0000   1.0000   1.0000
     1.0000   1.0000   1.0000   1.0000   1.0000   1.0000   1.0000   1.0000
     1.0000   1.0000   1.0000   1.0000   1.0000   1.0000   1.0000   1.0000
     1.0000   1.0000   1.0000   1.0000   1.0000   1.0000   1.0000   1.0000
     1.0000   1.0000   1.0000   1.0000   1.0000   1.0000   1.0000   1.0000
     1.0000   1.0000   1.0000   1.0000   1.0000   1.0000   1.0000   1.0000
     1.0000   1.0000   1.0000   1.0000   1.0000   1.0000   1.0000   1.0000
     1.0000   1.0000   1.0000   1.0000   1.0000   1.0000   1.0000   1.0000
     1.0000   1.0000   1.0000   1.0000   1.0000   1.0000   1.0000   1.0000
     1.0000   1.0000   0.0000   0.0000   0.0000   0.0000   0.0000   0.0000
     0.0000   0.0000   0.0000   0.0000   0.0000   0.0000   0.0000   0.0000
     0.0000   0.0000   0.0000   0.0000   0.0000   0.0000   0.0000   0.0000
     0.0000   0.0000   0.0000   0.0000   0.0000   0.0000   0.0000   0.0000
     0.0000   0.0000   0.0000   0.0000   0.0000   0.0000   0.0000   0.0000
     0.0000   0.0000   0.0000   0.0000   0.0000   0.0000   0.0000   0.0000
     0.0000   0.0000   0.0000   0.0000   0.0000   0.0000   0.0000   0.0000
     0.0000   0.0000   0.0000   0.0000   0.0000   0.0000   0.0000   0.0000
     0.0000   0.0000   0.0000   0.0000   0.0000   0.0000   0.0000   0.0000
     0.0000   0.0000   0.0000   0.0000   0.0000   0.0000   0.0000   0.0000
     0.0000   0.0000   0.0000   0.0000   0.0000   0.0000   0.0000   0.0000
     0.0000   0.0000   0.0000   0.0000   0.0000   0.0000   0.0000   0.0000
     0.0000   0.0000   0.0000   0.0000   0.0000   0.0000   0.0000   0.0000
     0.0000   0.0000   0.0000   0.0000   0.0000   0.0000   0.0000   0.0000
     0.0000   0.0000   0.0000   0.0000   0.0000   0.0000   0.0000   0.0000
     0.0000   0.0000   0.0000   0.0000   0.0000   0.0000   0.0000   0.0000
     0.0000   0.0000   0.0000   0.0000   0.0000   0.0000   0.0000   0.0000
     0.0000   0.0000   0.0000   0.0000   0.0000   0.0000   0.0000   0.0000
     0.0000   0.0000   0.0000   0.0000   0.0000   0.0000   0.0000   0.0000
     0.0000   0.0000   0.0000   0.0000   0.0000   0.0000   0.0000   0.0000
     0.0000   0.0000   0.0000   0.0000   0.0000   0.0000   0.0000   0.0000
     0.0000   0.0000   0.0000   0.0000   0.0000   0.0000   0.0000   0.0000

          k = 0.0000 0.3239 0.2320 (  4302 PWs)   bands (ev):

   -77.3744 -77.3132 -73.0317 -73.0146 -42.9630 -42.9246 -42.9003 -42.8822
   -42.8603 -42.8578 -34.8202 -34.8008 -34.7794 -34.7633 -34.7423 -34.7322
   -29.9272 -29.5603 -29.5000 -11.2392 -11.1607 -11.1369 -10.9075 -10.8467
   -10.8262 -10.7249 -10.6920 -10.6834  -9.2775  -9.0016  -8.8350  -8.7056
    -8.6631  -8.5919  -8.2530  -8.1654  -8.0276  -7.9591  -7.8867  -7.7968
     2.8613   3.1814   3.1988   3.2494   3.3584   3.3875   3.6797   3.7721
     3.8675   3.9341   4.0798   4.2182   4.7441   4.7761   5.1155   5.2116
     5.3837   5.4344   5.7392   5.8760   6.0732   6.1693   6.2281   6.4024
     6.9815   7.0518   7.1464   7.1924   7.2686   7.3550   7.4082   7.4958
     7.6212   7.7097   7.7951   7.9106   9.2034   9.2378   9.2652   9.3276
     9.4885   9.5311  10.4841  10.5447  10.6478  10.7131  10.7630  10.8522
    11.3991  11.5049  11.5951  11.6549  14.8605  15.1333  15.2503  15.4163
    15.5470  15.6572  15.7097  15.8368  15.8808  16.0168  16.0593  16.2041
    16.2829  16.3917  16.4351  16.5774  16.7203  16.8344  16.8802  17.0509
    17.7321  18.3974  19.1414  20.4122  20.8141  20.9129  21.2781  21.6154
    21.7972  22.1009  22.3309  22.6549  22.7411  22.9359  23.1275  23.2808
    23.6524  23.7154  24.1259  24.2915  24.6412  24.9799  25.0459  25.2305
    25.5006  25.6055  26.0556  26.3206  26.4758  26.7413  26.9718  27.0386
    27.5329  27.8644  27.9816  28.3741  28.6840  28.9431  29.1604  29.4815
    29.7362  29.8661  30.3249  30.7374  30.8631  31.2515  31.4569  31.7307
    32.0656  32.4842  32.8004  32.8917  33.2138  33.4524  33.8047  33.9914
    34.1321  34.2935  34.6170  34.7932  35.1761  35.3153  35.5426  35.6274
    35.7874  36.1581  36.3046  36.6708  36.8055  37.0019  37.1474  37.2892
    37.4125  37.6097  37.7809  38.0327  38.3338  38.6416  38.7539  38.9382
    39.1851  39.3308  39.4843  39.8070  39.9282  40.1104  40.2379  40.3752
    40.4556  40.7168  41.0295  41.1855  41.3002  41.5440  41.6694  41.8104
    42.1277  42.3129  42.5321  42.8013  42.9376  43.0688  43.2594  43.4492
    43.7332  43.8916  43.9844  44.1579  44.3267  44.5452  44.6735  44.8092
    44.9959  45.1855  45.2657  45.3967  45.5366  45.6554  45.9977  46.1623
    46.2529  46.4116  46.5661  46.8115  46.9125  47.0541  47.1486  47.3906
    47.4673  47.5921  47.7013  47.9463  48.1198  48.2150  48.4679  48.6381
    48.9575  49.1345  49.2819  49.4298  49.6179  49.9457  50.1518  50.3175

     occupation numbers 
     1.0000   1.0000   1.0000   1.0000   1.0000   1.0000   1.0000   1.0000
     1.0000   1.0000   1.0000   1.0000   1.0000   1.0000   1.0000   1.0000
     1.0000   1.0000   1.0000   1.0000   1.0000   1.0000   1.0000   1.0000
     1.0000   1.0000   1.0000   1.0000   1.0000   1.0000   1.0000   1.0000
     1.0000   1.0000   1.0000   1.0000   1.0000   1.0000   1.0000   1.0000
     1.0000   1.0000   1.0000   1.0000   1.0000   1.0000   1.0000   1.0000
     1.0000   1.0000   1.0000   1.0000   1.0000   1.0000   1.0000   1.0000
     1.0000   1.0000   1.0000   1.0000   1.0000   1.0000   1.0000   1.0000
     1.0000   1.0000   1.0000   1.0000   1.0000   1.0000   1.0000   1.0000
     1.0000   1.0000   1.0000   1.0000   1.0000   1.0000   1.0000   1.0000
     1.0000   1.0000   0.0000   0.0000   0.0000   0.0000   0.0000   0.0000
     0.0000   0.0000   0.0000   0.0000   0.0000   0.0000   0.0000   0.0000
     0.0000   0.0000   0.0000   0.0000   0.0000   0.0000   0.0000   0.0000
     0.0000   0.0000   0.0000   0.0000   0.0000   0.0000   0.0000   0.0000
     0.0000   0.0000   0.0000   0.0000   0.0000   0.0000   0.0000   0.0000
     0.0000   0.0000   0.0000   0.0000   0.0000   0.0000   0.0000   0.0000
     0.0000   0.0000   0.0000   0.0000   0.0000   0.0000   0.0000   0.0000
     0.0000   0.0000   0.0000   0.0000   0.0000   0.0000   0.0000   0.0000
     0.0000   0.0000   0.0000   0.0000   0.0000   0.0000   0.0000   0.0000
     0.0000   0.0000   0.0000   0.0000   0.0000   0.0000   0.0000   0.0000
     0.0000   0.0000   0.0000   0.0000   0.0000   0.0000   0.0000   0.0000
     0.0000   0.0000   0.0000   0.0000   0.0000   0.0000   0.0000   0.0000
     0.0000   0.0000   0.0000   0.0000   0.0000   0.0000   0.0000   0.0000
     0.0000   0.0000   0.0000   0.0000   0.0000   0.0000   0.0000   0.0000
     0.0000   0.0000   0.0000   0.0000   0.0000   0.0000   0.0000   0.0000
     0.0000   0.0000   0.0000   0.0000   0.0000   0.0000   0.0000   0.0000
     0.0000   0.0000   0.0000   0.0000   0.0000   0.0000   0.0000   0.0000
     0.0000   0.0000   0.0000   0.0000   0.0000   0.0000   0.0000   0.0000
     0.0000   0.0000   0.0000   0.0000   0.0000   0.0000   0.0000   0.0000
     0.0000   0.0000   0.0000   0.0000   0.0000   0.0000   0.0000   0.0000
     0.0000   0.0000   0.0000   0.0000   0.0000   0.0000   0.0000   0.0000
     0.0000   0.0000   0.0000   0.0000   0.0000   0.0000   0.0000   0.0000

          k = 0.0000 0.3239-0.2322 (  4303 PWs)   bands (ev):

   -77.3745 -77.3133 -73.0317 -73.0146 -42.9640 -42.9235 -42.9015 -42.8817
   -42.8624 -42.8572 -34.8202 -34.8008 -34.7794 -34.7633 -34.7423 -34.7322
   -29.9272 -29.5603 -29.5000 -11.2245 -11.1753 -11.1366 -10.9054 -10.8540
   -10.8276 -10.7281 -10.6861 -10.6818  -9.2399  -9.0414  -8.8386  -8.6917
    -8.6802  -8.5949  -8.2480  -8.1457  -8.0335  -7.9625  -7.8866  -7.7985
     2.8818   3.1599   3.1908   3.2543   3.2929   3.4782   3.6936   3.7881
     3.8498   3.9742   4.0498   4.1161   4.7093   4.8499   5.1056   5.2975
     5.3362   5.4079   5.7611   5.9110   6.0735   6.1533   6.2454   6.3690
     6.9337   7.0455   7.1795   7.2427   7.2644   7.3085   7.4456   7.4655
     7.6040   7.7042   7.8046   7.9237   9.1951   9.2601   9.2634   9.3148
     9.4772   9.5466  10.4901  10.5279  10.6296  10.7348  10.7653  10.8696
    11.4303  11.4637  11.5736  11.6709  14.9741  15.0471  15.2625  15.3092
    15.5368  15.6783  15.7505  15.7935  15.9337  16.0317  16.0727  16.1888
    16.2827  16.3530  16.4844  16.5982  16.7143  16.8256  16.8897  17.0349
    17.7282  18.3874  19.1096  20.4512  20.7493  20.9415  21.3637  21.6417
    21.8002  22.0729  22.3767  22.4848  22.7943  22.9268  23.2011  23.2704
    23.5214  23.8680  24.0206  24.2956  24.6018  24.8895  25.1193  25.2531
    25.5485  25.8180  26.0381  26.3007  26.3601  26.6584  26.9824  27.1296
    27.4284  27.7404  28.1645  28.4495  28.6453  28.7849  29.2023  29.4735
    29.6661  29.8277  30.3992  30.6921  31.0409  31.1946  31.4586  31.8179
    32.0232  32.4739  32.7624  33.0809  33.2501  33.3793  33.8195  33.8877
    34.1818  34.4124  34.6043  34.8818  34.9938  35.2426  35.5026  35.7053
    35.8556  36.0674  36.2981  36.6022  36.7082  36.8509  37.0014  37.3109
    37.5033  37.6956  37.9195  38.1197  38.3825  38.6141  38.7864  38.9177
    39.2145  39.3496  39.6268  39.7798  39.8852  39.9893  40.1785  40.3743
    40.5288  40.7266  40.9934  41.2616  41.3036  41.4872  41.5947  41.8020
    42.2333  42.4119  42.5348  42.6850  42.8126  43.0928  43.2940  43.3452
    43.6066  43.8017  43.9891  44.2035  44.3794  44.4653  44.7828  44.8980
    45.0362  45.1587  45.3895  45.5090  45.6294  45.7847  45.9094  46.1422
    46.2380  46.4909  46.5001  46.7160  46.8559  46.9300  47.1465  47.3332
    47.4423  47.6670  47.8099  48.0480  48.1971  48.2494  48.4424  48.6397
    48.8659  49.1517  49.3697  49.4984  49.7074  49.8098  50.0100  50.2440

     occupation numbers 
     1.0000   1.0000   1.0000   1.0000   1.0000   1.0000   1.0000   1.0000
     1.0000   1.0000   1.0000   1.0000   1.0000   1.0000   1.0000   1.0000
     1.0000   1.0000   1.0000   1.0000   1.0000   1.0000   1.0000   1.0000
     1.0000   1.0000   1.0000   1.0000   1.0000   1.0000   1.0000   1.0000
     1.0000   1.0000   1.0000   1.0000   1.0000   1.0000   1.0000   1.0000
     1.0000   1.0000   1.0000   1.0000   1.0000   1.0000   1.0000   1.0000
     1.0000   1.0000   1.0000   1.0000   1.0000   1.0000   1.0000   1.0000
     1.0000   1.0000   1.0000   1.0000   1.0000   1.0000   1.0000   1.0000
     1.0000   1.0000   1.0000   1.0000   1.0000   1.0000   1.0000   1.0000
     1.0000   1.0000   1.0000   1.0000   1.0000   1.0000   1.0000   1.0000
     1.0000   1.0000   0.0000   0.0000   0.0000   0.0000   0.0000   0.0000
     0.0000   0.0000   0.0000   0.0000   0.0000   0.0000   0.0000   0.0000
     0.0000   0.0000   0.0000   0.0000   0.0000   0.0000   0.0000   0.0000
     0.0000   0.0000   0.0000   0.0000   0.0000   0.0000   0.0000   0.0000
     0.0000   0.0000   0.0000   0.0000   0.0000   0.0000   0.0000   0.0000
     0.0000   0.0000   0.0000   0.0000   0.0000   0.0000   0.0000   0.0000
     0.0000   0.0000   0.0000   0.0000   0.0000   0.0000   0.0000   0.0000
     0.0000   0.0000   0.0000   0.0000   0.0000   0.0000   0.0000   0.0000
     0.0000   0.0000   0.0000   0.0000   0.0000   0.0000   0.0000   0.0000
     0.0000   0.0000   0.0000   0.0000   0.0000   0.0000   0.0000   0.0000
     0.0000   0.0000   0.0000   0.0000   0.0000   0.0000   0.0000   0.0000
     0.0000   0.0000   0.0000   0.0000   0.0000   0.0000   0.0000   0.0000
     0.0000   0.0000   0.0000   0.0000   0.0000   0.0000   0.0000   0.0000
     0.0000   0.0000   0.0000   0.0000   0.0000   0.0000   0.0000   0.0000
     0.0000   0.0000   0.0000   0.0000   0.0000   0.0000   0.0000   0.0000
     0.0000   0.0000   0.0000   0.0000   0.0000   0.0000   0.0000   0.0000
     0.0000   0.0000   0.0000   0.0000   0.0000   0.0000   0.0000   0.0000
     0.0000   0.0000   0.0000   0.0000   0.0000   0.0000   0.0000   0.0000
     0.0000   0.0000   0.0000   0.0000   0.0000   0.0000   0.0000   0.0000
     0.0000   0.0000   0.0000   0.0000   0.0000   0.0000   0.0000   0.0000
     0.0000   0.0000   0.0000   0.0000   0.0000   0.0000   0.0000   0.0000
     0.0000   0.0000   0.0000   0.0000   0.0000   0.0000   0.0000   0.0000

          k = 0.3333-0.0026-0.0001 (  4303 PWs)   bands (ev):

   -77.3739 -77.3127 -73.0317 -73.0146 -42.9611 -42.9206 -42.9033 -42.8836
   -42.8627 -42.8491 -34.8204 -34.8008 -34.7794 -34.7633 -34.7422 -34.7323
   -29.9271 -29.5603 -29.4999 -11.2500 -11.2107 -11.1395 -10.9442 -10.8370
   -10.8168 -10.7736 -10.6439 -10.6200  -9.3495  -8.9636  -8.8179  -8.7427
    -8.6815  -8.5821  -8.1822  -8.1149  -8.0490  -7.9634  -7.8299  -7.8049
     2.5647   2.8778   3.1787   3.3023   3.3581   3.4776   3.5180   3.6748
     3.8029   3.8637   3.9865   4.0934   4.8003   4.9656   5.3107   5.3695
     5.4504   5.5778   5.9910   6.1103   6.3235   6.4021   6.5739   6.5956
     6.7577   6.8429   7.0371   7.1347   7.2254   7.2773   7.3449   7.4211
     7.6423   7.7364   7.8350   7.8704   9.0457   9.1188   9.1988   9.2706
     9.4814   9.5904  10.2803  10.5242  10.5349  10.6264  10.8522  10.9634
    11.2851  11.4773  11.5835  11.6375  14.9945  15.2156  15.2938  15.3320
    15.4739  15.6004  15.6572  15.7780  15.8726  16.0093  16.1587  16.2202
    16.3250  16.4479  16.4914  16.6082  16.7633  16.8089  17.0570  17.0896
    18.1349  18.7861  19.2879  19.5299  20.5732  20.9010  20.9699  21.1119
    21.6090  22.1615  22.3657  22.7791  22.9499  23.1538  23.4191  23.4992
    23.6359  23.6822  23.9686  24.1905  24.6629  24.7772  25.1385  25.3048
    25.4806  25.7573  25.8711  26.0519  26.3229  26.7198  27.0912  27.3540
    27.5487  27.8163  28.1576  28.2307  28.6046  28.8928  29.1271  29.6566
    30.1129  30.4064  30.5849  30.9010  30.9905  31.1528  31.5870  31.7867
    32.0860  32.3652  32.7303  32.9208  33.0648  33.3598  33.4803  33.6815
    33.9325  34.2614  34.4586  34.6351  35.0349  35.3098  35.4917  35.7010
    35.8620  36.1717  36.3782  36.6239  36.9976  37.2123  37.3254  37.4796
    37.7027  37.7545  37.9857  38.2307  38.3811  38.5817  38.6986  38.9431
    39.1102  39.2812  39.4276  39.5845  39.7875  40.0025  40.0858  40.3804
    40.5439  40.6651  40.8439  41.1486  41.3257  41.5102  41.7785  41.9575
    42.1565  42.3810  42.5780  42.7702  42.8874  43.0161  43.2780  43.3497
    43.4301  43.7965  43.8839  44.1327  44.2212  44.3923  44.5208  44.7203
    44.8766  45.0059  45.2044  45.3387  45.4973  45.6601  45.7585  45.8864
    46.2094  46.3694  46.4788  46.6762  46.8295  47.2133  47.3073  47.3648
    47.5916  47.7604  48.0160  48.1256  48.2185  48.3524  48.5851  48.7748
    48.9472  49.2298  49.3198  49.4642  49.8179  50.0002  50.0535  50.4122

     occupation numbers 
     1.0000   1.0000   1.0000   1.0000   1.0000   1.0000   1.0000   1.0000
     1.0000   1.0000   1.0000   1.0000   1.0000   1.0000   1.0000   1.0000
     1.0000   1.0000   1.0000   1.0000   1.0000   1.0000   1.0000   1.0000
     1.0000   1.0000   1.0000   1.0000   1.0000   1.0000   1.0000   1.0000
     1.0000   1.0000   1.0000   1.0000   1.0000   1.0000   1.0000   1.0000
     1.0000   1.0000   1.0000   1.0000   1.0000   1.0000   1.0000   1.0000
     1.0000   1.0000   1.0000   1.0000   1.0000   1.0000   1.0000   1.0000
     1.0000   1.0000   1.0000   1.0000   1.0000   1.0000   1.0000   1.0000
     1.0000   1.0000   1.0000   1.0000   1.0000   1.0000   1.0000   1.0000
     1.0000   1.0000   1.0000   1.0000   1.0000   1.0000   1.0000   1.0000
     1.0000   1.0000   0.0000   0.0000   0.0000   0.0000   0.0000   0.0000
     0.0000   0.0000   0.0000   0.0000   0.0000   0.0000   0.0000   0.0000
     0.0000   0.0000   0.0000   0.0000   0.0000   0.0000   0.0000   0.0000
     0.0000   0.0000   0.0000   0.0000   0.0000   0.0000   0.0000   0.0000
     0.0000   0.0000   0.0000   0.0000   0.0000   0.0000   0.0000   0.0000
     0.0000   0.0000   0.0000   0.0000   0.0000   0.0000   0.0000   0.0000
     0.0000   0.0000   0.0000   0.0000   0.0000   0.0000   0.0000   0.0000
     0.0000   0.0000   0.0000   0.0000   0.0000   0.0000   0.0000   0.0000
     0.0000   0.0000   0.0000   0.0000   0.0000   0.0000   0.0000   0.0000
     0.0000   0.0000   0.0000   0.0000   0.0000   0.0000   0.0000   0.0000
     0.0000   0.0000   0.0000   0.0000   0.0000   0.0000   0.0000   0.0000
     0.0000   0.0000   0.0000   0.0000   0.0000   0.0000   0.0000   0.0000
     0.0000   0.0000   0.0000   0.0000   0.0000   0.0000   0.0000   0.0000
     0.0000   0.0000   0.0000   0.0000   0.0000   0.0000   0.0000   0.0000
     0.0000   0.0000   0.0000   0.0000   0.0000   0.0000   0.0000   0.0000
     0.0000   0.0000   0.0000   0.0000   0.0000   0.0000   0.0000   0.0000
     0.0000   0.0000   0.0000   0.0000   0.0000   0.0000   0.0000   0.0000
     0.0000   0.0000   0.0000   0.0000   0.0000   0.0000   0.0000   0.0000
     0.0000   0.0000   0.0000   0.0000   0.0000   0.0000   0.0000   0.0000
     0.0000   0.0000   0.0000   0.0000   0.0000   0.0000   0.0000   0.0000
     0.0000   0.0000   0.0000   0.0000   0.0000   0.0000   0.0000   0.0000
     0.0000   0.0000   0.0000   0.0000   0.0000   0.0000   0.0000   0.0000

          k = 0.3333-0.0026 0.2321 (  4302 PWs)   bands (ev):

   -77.3737 -77.3125 -73.0317 -73.0146 -42.9613 -42.9209 -42.9017 -42.8862
   -42.8575 -42.8501 -34.8204 -34.8008 -34.7794 -34.7633 -34.7422 -34.7323
   -29.9271 -29.5603 -29.4999 -11.2272 -11.1902 -11.1319 -10.9546 -10.8766
   -10.8110 -10.7762 -10.6667 -10.6211  -9.2200  -9.0265  -8.8403  -8.7189
    -8.6972  -8.5545  -8.2346  -8.1004  -8.0403  -7.9927  -7.8430  -7.8240
     2.8601   3.1571   3.2026   3.2491   3.3431   3.4026   3.7031   3.7737
     3.8243   3.9316   4.0442   4.1480   4.6161   4.7197   5.1349   5.2968
     5.3956   5.5250   5.8043   5.8877   6.0060   6.1349   6.2611   6.3428
     6.9186   6.9697   7.1894   7.2323   7.2901   7.3433   7.4460   7.5825
     7.6828   7.7471   7.8461   7.9114   9.1679   9.2054   9.2738   9.2966
     9.4855   9.5400  10.4795  10.5275  10.5663  10.6520  10.8036  10.8850
    11.4245  11.5230  11.5703  11.6800  14.9875  15.1323  15.2623  15.3282
    15.4912  15.6524  15.6953  15.7978  15.9333  16.0042  16.1365  16.2215
    16.3166  16.4142  16.5208  16.6539  16.7866  16.8600  16.9958  17.1317
    17.7470  18.5441  19.2992  20.2011  20.3952  20.9167  21.1596  21.3799
    21.5451  21.9966  22.1333  22.5362  22.7239  22.8651  23.0731  23.3267
    23.4863  23.7827  23.9887  24.2769  24.9060  25.1482  25.3265  25.4724
    25.7531  25.8215  26.1194  26.1956  26.3657  26.5564  26.9353  27.0779
    27.4290  27.7365  28.0522  28.2740  28.7134  28.9202  29.1092  29.4009
    29.8058  30.2031  30.5669  30.6769  31.1171  31.4175  31.6456  31.9403
    32.1927  32.4563  32.8171  33.2210  33.2817  33.3967  33.7306  33.9228
    34.1490  34.2791  34.6092  34.8210  35.0417  35.2318  35.5092  35.7181
    35.7838  36.0871  36.4365  36.5846  36.8100  36.9902  37.2393  37.3821
    37.5179  37.5550  37.8951  38.0075  38.2056  38.2611  38.5740  39.0234
    39.1703  39.2676  39.3904  39.6419  39.8358  39.9665  40.1764  40.2990
    40.5006  40.8812  41.0532  41.1399  41.3221  41.3605  41.6097  41.7482
    42.0266  42.2460  42.2906  42.4879  42.7848  43.0644  43.1357  43.4370
    43.5673  43.7040  43.9470  44.1157  44.2517  44.4280  44.4825  44.6235
    44.9269  45.2626  45.4260  45.5162  45.7948  45.9023  45.9783  46.2180
    46.3584  46.4958  46.6354  46.7256  46.7798  47.0390  47.1817  47.3254
    47.4500  47.8023  47.9691  48.0979  48.3044  48.4548  48.5800  48.7121
    48.9068  49.1968  49.3380  49.5021  49.6576  49.7858  49.8719  50.2136

     occupation numbers 
     1.0000   1.0000   1.0000   1.0000   1.0000   1.0000   1.0000   1.0000
     1.0000   1.0000   1.0000   1.0000   1.0000   1.0000   1.0000   1.0000
     1.0000   1.0000   1.0000   1.0000   1.0000   1.0000   1.0000   1.0000
     1.0000   1.0000   1.0000   1.0000   1.0000   1.0000   1.0000   1.0000
     1.0000   1.0000   1.0000   1.0000   1.0000   1.0000   1.0000   1.0000
     1.0000   1.0000   1.0000   1.0000   1.0000   1.0000   1.0000   1.0000
     1.0000   1.0000   1.0000   1.0000   1.0000   1.0000   1.0000   1.0000
     1.0000   1.0000   1.0000   1.0000   1.0000   1.0000   1.0000   1.0000
     1.0000   1.0000   1.0000   1.0000   1.0000   1.0000   1.0000   1.0000
     1.0000   1.0000   1.0000   1.0000   1.0000   1.0000   1.0000   1.0000
     1.0000   1.0000   0.0000   0.0000   0.0000   0.0000   0.0000   0.0000
     0.0000   0.0000   0.0000   0.0000   0.0000   0.0000   0.0000   0.0000
     0.0000   0.0000   0.0000   0.0000   0.0000   0.0000   0.0000   0.0000
     0.0000   0.0000   0.0000   0.0000   0.0000   0.0000   0.0000   0.0000
     0.0000   0.0000   0.0000   0.0000   0.0000   0.0000   0.0000   0.0000
     0.0000   0.0000   0.0000   0.0000   0.0000   0.0000   0.0000   0.0000
     0.0000   0.0000   0.0000   0.0000   0.0000   0.0000   0.0000   0.0000
     0.0000   0.0000   0.0000   0.0000   0.0000   0.0000   0.0000   0.0000
     0.0000   0.0000   0.0000   0.0000   0.0000   0.0000   0.0000   0.0000
     0.0000   0.0000   0.0000   0.0000   0.0000   0.0000   0.0000   0.0000
     0.0000   0.0000   0.0000   0.0000   0.0000   0.0000   0.0000   0.0000
     0.0000   0.0000   0.0000   0.0000   0.0000   0.0000   0.0000   0.0000
     0.0000   0.0000   0.0000   0.0000   0.0000   0.0000   0.0000   0.0000
     0.0000   0.0000   0.0000   0.0000   0.0000   0.0000   0.0000   0.0000
     0.0000   0.0000   0.0000   0.0000   0.0000   0.0000   0.0000   0.0000
     0.0000   0.0000   0.0000   0.0000   0.0000   0.0000   0.0000   0.0000
     0.0000   0.0000   0.0000   0.0000   0.0000   0.0000   0.0000   0.0000
     0.0000   0.0000   0.0000   0.0000   0.0000   0.0000   0.0000   0.0000
     0.0000   0.0000   0.0000   0.0000   0.0000   0.0000   0.0000   0.0000
     0.0000   0.0000   0.0000   0.0000   0.0000   0.0000   0.0000   0.0000
     0.0000   0.0000   0.0000   0.0000   0.0000   0.0000   0.0000   0.0000
     0.0000   0.0000   0.0000   0.0000   0.0000   0.0000   0.0000   0.0000

          k = 0.3333-0.0026-0.2322 (  4302 PWs)   bands (ev):

   -77.3737 -77.3125 -73.0317 -73.0146 -42.9570 -42.9217 -42.9052 -42.8787
   -42.8651 -42.8493 -34.8204 -34.8008 -34.7794 -34.7633 -34.7422 -34.7323
   -29.9271 -29.5603 -29.4999 -11.2307 -11.1867 -11.1365 -10.9587 -10.8603
   -10.8168 -10.7769 -10.6633 -10.6242  -9.2484  -8.9935  -8.8290  -8.7175
    -8.6821  -8.5630  -8.2694  -8.1235  -8.0541  -7.9801  -7.8319  -7.8009
     2.8717   3.1321   3.1755   3.2470   3.3469   3.3897   3.6974   3.7523
     3.9053   3.9700   4.0052   4.1768   4.6320   4.7618   5.1590   5.2749
     5.4138   5.4517   5.6373   5.8715   6.0414   6.1749   6.2841   6.3952
     6.8304   7.0876   7.1444   7.2346   7.2899   7.3840   7.4268   7.5941
     7.6395   7.7540   7.8583   7.9182   9.1788   9.2132   9.2771   9.2860
     9.4409   9.5579  10.4243  10.5082  10.5973  10.6985  10.8279  10.8746
    11.4420  11.5206  11.5607  11.6590  14.9697  15.1858  15.3379  15.3607
    15.4472  15.5663  15.6887  15.8438  15.8768  16.0228  16.1320  16.2512
    16.3011  16.4040  16.5086  16.6310  16.7575  16.8791  17.0279  17.1470
    17.6824  18.5615  19.3244  20.2615  20.5354  20.7234  20.9826  21.2484
    21.7058  22.0929  22.2893  22.5676  22.7338  22.9300  23.1420  23.2523
    23.4488  23.8217  24.0914  24.3290  24.6690  25.0739  25.2205  25.4649
    25.5727  25.7015  25.9991  26.1360  26.4366  26.7130  27.0900  27.2725
    27.4996  27.7588  28.0094  28.1323  28.6529  28.7643  28.9394  29.6301
    30.0847  30.3573  30.4925  30.6925  30.9339  31.4502  31.8163  32.0809
    32.3121  32.5008  32.7300  32.9653  33.2540  33.5635  33.7253  33.9357
    33.9861  34.2279  34.4425  34.8453  35.0803  35.2529  35.6032  35.8016
    35.8690  36.1438  36.2341  36.5129  36.7375  36.7932  37.0669  37.2031
    37.3731  37.6491  37.9233  38.0983  38.1817  38.3807  38.8063  38.8843
    39.1179  39.3030  39.4265  39.6723  39.7988  39.9635  40.1319  40.5335
    40.7684  40.9182  41.0148  41.2250  41.3101  41.6390  41.7132  41.8873
    41.9426  42.2083  42.4878  42.5394  42.6895  42.8941  43.1339  43.2775
    43.4268  43.6357  43.9071  44.1340  44.2998  44.3421  44.5066  44.6972
    45.0203  45.1358  45.2555  45.4253  45.5543  45.6441  45.9536  46.0963
    46.2268  46.4085  46.5105  46.8824  47.0296  47.0970  47.3413  47.4638
    47.5411  47.8408  47.9550  48.0175  48.1979  48.4867  48.6144  48.8258
    48.9919  49.2109  49.3438  49.6595  49.7136  49.9909  50.1117  50.2142

     occupation numbers 
     1.0000   1.0000   1.0000   1.0000   1.0000   1.0000   1.0000   1.0000
     1.0000   1.0000   1.0000   1.0000   1.0000   1.0000   1.0000   1.0000
     1.0000   1.0000   1.0000   1.0000   1.0000   1.0000   1.0000   1.0000
     1.0000   1.0000   1.0000   1.0000   1.0000   1.0000   1.0000   1.0000
     1.0000   1.0000   1.0000   1.0000   1.0000   1.0000   1.0000   1.0000
     1.0000   1.0000   1.0000   1.0000   1.0000   1.0000   1.0000   1.0000
     1.0000   1.0000   1.0000   1.0000   1.0000   1.0000   1.0000   1.0000
     1.0000   1.0000   1.0000   1.0000   1.0000   1.0000   1.0000   1.0000
     1.0000   1.0000   1.0000   1.0000   1.0000   1.0000   1.0000   1.0000
     1.0000   1.0000   1.0000   1.0000   1.0000   1.0000   1.0000   1.0000
     1.0000   1.0000   0.0000   0.0000   0.0000   0.0000   0.0000   0.0000
     0.0000   0.0000   0.0000   0.0000   0.0000   0.0000   0.0000   0.0000
     0.0000   0.0000   0.0000   0.0000   0.0000   0.0000   0.0000   0.0000
     0.0000   0.0000   0.0000   0.0000   0.0000   0.0000   0.0000   0.0000
     0.0000   0.0000   0.0000   0.0000   0.0000   0.0000   0.0000   0.0000
     0.0000   0.0000   0.0000   0.0000   0.0000   0.0000   0.0000   0.0000
     0.0000   0.0000   0.0000   0.0000   0.0000   0.0000   0.0000   0.0000
     0.0000   0.0000   0.0000   0.0000   0.0000   0.0000   0.0000   0.0000
     0.0000   0.0000   0.0000   0.0000   0.0000   0.0000   0.0000   0.0000
     0.0000   0.0000   0.0000   0.0000   0.0000   0.0000   0.0000   0.0000
     0.0000   0.0000   0.0000   0.0000   0.0000   0.0000   0.0000   0.0000
     0.0000   0.0000   0.0000   0.0000   0.0000   0.0000   0.0000   0.0000
     0.0000   0.0000   0.0000   0.0000   0.0000   0.0000   0.0000   0.0000
     0.0000   0.0000   0.0000   0.0000   0.0000   0.0000   0.0000   0.0000
     0.0000   0.0000   0.0000   0.0000   0.0000   0.0000   0.0000   0.0000
     0.0000   0.0000   0.0000   0.0000   0.0000   0.0000   0.0000   0.0000
     0.0000   0.0000   0.0000   0.0000   0.0000   0.0000   0.0000   0.0000
     0.0000   0.0000   0.0000   0.0000   0.0000   0.0000   0.0000   0.0000
     0.0000   0.0000   0.0000   0.0000   0.0000   0.0000   0.0000   0.0000
     0.0000   0.0000   0.0000   0.0000   0.0000   0.0000   0.0000   0.0000
     0.0000   0.0000   0.0000   0.0000   0.0000   0.0000   0.0000   0.0000
     0.0000   0.0000   0.0000   0.0000   0.0000   0.0000   0.0000   0.0000

          k = 0.3333 0.3213-0.0002 (  4302 PWs)   bands (ev):

   -77.3741 -77.3128 -73.0317 -73.0146 -42.9606 -42.9229 -42.9024 -42.8826
   -42.8605 -42.8541 -34.8204 -34.8008 -34.7793 -34.7633 -34.7422 -34.7323
   -29.9270 -29.5599 -29.5000 -11.2713 -11.2094 -11.1756 -10.9877 -10.9643
   -10.7957 -10.6704 -10.6474 -10.5639  -9.1542  -8.9305  -8.8839  -8.8179
    -8.7317  -8.6141  -8.2271  -8.1102  -7.9741  -7.9447  -7.8215  -7.7676
     2.3875   2.5512   3.0540   3.1340   3.2626   3.4552   3.5391   3.6428
     3.9258   4.0430   4.1360   4.3150   5.1069   5.3136   5.4469   5.5422
     5.5932   5.8239   6.0474   6.1791   6.2484   6.2872   6.3938   6.5142
     6.5947   6.6982   6.7527   6.9361   7.0572   7.2329   7.2932   7.3736
     7.5659   7.6560   7.6984   7.9290   8.7037   9.0302   9.4461   9.5064
     9.5226   9.6427  10.1342  10.3703  10.6794  10.8333  10.8784  11.0120
    11.3222  11.4108  11.4502  11.6393  14.6068  14.8343  15.3579  15.5462
    15.6317  15.6911  15.8038  15.9695  16.0230  16.1310  16.1939  16.3933
    16.4394  16.4751  16.6759  16.7635  16.8372  16.9566  17.0180  17.2002
    18.6316  18.9386  19.2846  19.6947  19.8017  20.4475  20.5494  20.6381
    21.4647  22.2670  22.4884  22.9119  23.1174  23.1993  23.5181  23.6422
    23.8317  24.1306  24.2722  24.3734  24.7326  25.0890  25.2353  25.3866
    25.5546  25.7545  25.8697  25.9624  26.2373  26.5013  26.7577  27.3024
    27.4463  27.6356  27.7831  27.9787  28.1811  28.8230  29.3743  29.6012
    29.8400  29.9922  30.2813  30.6425  30.8682  31.0634  31.3499  31.5351
    31.7185  32.1549  32.6298  32.7999  33.1216  33.3230  33.5335  33.7898
    34.0125  34.3468  34.5214  34.7354  34.9745  35.1260  35.3034  35.6761
    36.0319  36.2349  36.3528  36.5176  36.7470  37.0189  37.2312  37.4013
    37.5564  37.7913  38.0003  38.1375  38.4136  38.5605  38.8273  38.9931
    39.2588  39.4233  39.5438  39.6927  40.0585  40.1796  40.5314  40.6515
    40.8348  40.9995  41.3230  41.5479  41.6884  41.9654  42.0890  42.1684
    42.3373  42.6689  42.7723  42.8579  42.9597  43.2134  43.4562  43.5486
    43.6422  43.8511  43.9538  44.1484  44.3651  44.6402  44.7236  44.7832
    44.9957  45.2218  45.3859  45.5187  45.7133  45.8294  45.9437  46.0657
    46.2566  46.3908  46.6341  46.7755  46.9616  47.0617  47.1488  47.4124
    47.6603  47.7274  47.8793  48.0135  48.1919  48.2519  48.4416  48.6404
    48.7748  48.8602  49.1391  49.3841  49.5501  49.7091  49.8282  49.9003

     occupation numbers 
     1.0000   1.0000   1.0000   1.0000   1.0000   1.0000   1.0000   1.0000
     1.0000   1.0000   1.0000   1.0000   1.0000   1.0000   1.0000   1.0000
     1.0000   1.0000   1.0000   1.0000   1.0000   1.0000   1.0000   1.0000
     1.0000   1.0000   1.0000   1.0000   1.0000   1.0000   1.0000   1.0000
     1.0000   1.0000   1.0000   1.0000   1.0000   1.0000   1.0000   1.0000
     1.0000   1.0000   1.0000   1.0000   1.0000   1.0000   1.0000   1.0000
     1.0000   1.0000   1.0000   1.0000   1.0000   1.0000   1.0000   1.0000
     1.0000   1.0000   1.0000   1.0000   1.0000   1.0000   1.0000   1.0000
     1.0000   1.0000   1.0000   1.0000   1.0000   1.0000   1.0000   1.0000
     1.0000   1.0000   1.0000   1.0000   1.0000   1.0000   1.0000   1.0000
     1.0000   1.0000   0.0000   0.0000   0.0000   0.0000   0.0000   0.0000
     0.0000   0.0000   0.0000   0.0000   0.0000   0.0000   0.0000   0.0000
     0.0000   0.0000   0.0000   0.0000   0.0000   0.0000   0.0000   0.0000
     0.0000   0.0000   0.0000   0.0000   0.0000   0.0000   0.0000   0.0000
     0.0000   0.0000   0.0000   0.0000   0.0000   0.0000   0.0000   0.0000
     0.0000   0.0000   0.0000   0.0000   0.0000   0.0000   0.0000   0.0000
     0.0000   0.0000   0.0000   0.0000   0.0000   0.0000   0.0000   0.0000
     0.0000   0.0000   0.0000   0.0000   0.0000   0.0000   0.0000   0.0000
     0.0000   0.0000   0.0000   0.0000   0.0000   0.0000   0.0000   0.0000
     0.0000   0.0000   0.0000   0.0000   0.0000   0.0000   0.0000   0.0000
     0.0000   0.0000   0.0000   0.0000   0.0000   0.0000   0.0000   0.0000
     0.0000   0.0000   0.0000   0.0000   0.0000   0.0000   0.0000   0.0000
     0.0000   0.0000   0.0000   0.0000   0.0000   0.0000   0.0000   0.0000
     0.0000   0.0000   0.0000   0.0000   0.0000   0.0000   0.0000   0.0000
     0.0000   0.0000   0.0000   0.0000   0.0000   0.0000   0.0000   0.0000
     0.0000   0.0000   0.0000   0.0000   0.0000   0.0000   0.0000   0.0000
     0.0000   0.0000   0.0000   0.0000   0.0000   0.0000   0.0000   0.0000
     0.0000   0.0000   0.0000   0.0000   0.0000   0.0000   0.0000   0.0000
     0.0000   0.0000   0.0000   0.0000   0.0000   0.0000   0.0000   0.0000
     0.0000   0.0000   0.0000   0.0000   0.0000   0.0000   0.0000   0.0000
     0.0000   0.0000   0.0000   0.0000   0.0000   0.0000   0.0000   0.0000
     0.0000   0.0000   0.0000   0.0000   0.0000   0.0000   0.0000   0.0000

          k = 0.3333 0.3213 0.2320 (  4323 PWs)   bands (ev):

   -77.3756 -77.3144 -73.0317 -73.0146 -42.9649 -42.9277 -42.9086 -42.8840
   -42.8698 -42.8621 -34.8204 -34.8008 -34.7794 -34.7633 -34.7423 -34.7323
   -29.9269 -29.5599 -29.5000 -11.2470 -11.2014 -11.1434 -11.0163 -10.9711
   -10.8088 -10.7009 -10.6477 -10.5662  -9.1074  -8.9506  -8.8557  -8.7673
    -8.7429  -8.6384  -8.1742  -8.1021  -8.0217  -7.9672  -7.8670  -7.8010
     2.5866   2.6999   3.1666   3.1861   3.3495   3.5207   3.5742   3.8057
     3.8679   4.0593   4.1108   4.1485   4.9331   4.9813   5.3097   5.4425
     5.5069   5.6913   5.7997   6.1221   6.1854   6.2625   6.3692   6.4321
     6.5788   6.6750   6.8850   7.0967   7.1450   7.2369   7.2978   7.3409
     7.4103   7.5563   7.7497   7.8775   9.1101   9.2302   9.4474   9.4747
     9.5127   9.5813  10.3981  10.5261  10.6077  10.6759  10.8685  10.9726
    11.3953  11.4436  11.5077  11.6288  14.7750  15.0164  15.2812  15.4378
    15.5757  15.6874  15.8073  15.9449  16.0443  16.1375  16.1942  16.2834
    16.3971  16.4946  16.5927  16.7242  16.8593  16.9061  17.0443  17.3958
    18.1941  18.8243  19.3219  19.5797  20.1680  20.3583  20.7882  21.1379
    21.3996  22.2043  22.4198  22.6672  22.8488  22.9290  23.4517  23.5621
    23.7787  23.8680  24.1651  24.4493  24.8789  24.9904  25.1195  25.4197
    25.7191  25.8409  25.9707  26.1196  26.4559  26.6709  26.9230  27.1000
    27.4164  27.6285  28.0691  28.1453  28.3169  28.6427  29.0604  29.1402
    29.5669  29.9472  30.1184  30.7738  30.9242  31.2075  31.4542  31.6633
    32.0631  32.3270  32.5414  32.8891  33.1053  33.3535  33.7158  33.8578
    34.1757  34.2901  34.6473  34.9043  35.1845  35.3177  35.4946  35.6759
    35.8708  36.0342  36.2262  36.4338  36.6921  36.7913  37.0337  37.2643
    37.5838  37.7006  37.8416  38.0638  38.2495  38.4603  38.7458  38.9358
    39.3085  39.3717  39.5620  39.7062  39.9305  40.2000  40.3178  40.5585
    40.7675  40.9066  41.1858  41.2968  41.6553  41.6931  41.9150  42.2749
    42.3828  42.5092  42.7049  42.8583  43.0757  43.3361  43.5183  43.5938
    43.7511  43.8944  44.1335  44.2696  44.4983  44.6642  44.8832  45.0016
    45.1237  45.3462  45.4689  45.6442  45.7425  45.9378  46.0080  46.1447
    46.3501  46.4703  46.6643  46.8079  46.9444  47.0563  47.1911  47.4233
    47.5648  47.7585  47.8296  48.1857  48.2904  48.4037  48.5888  48.7247
    48.7863  48.8627  49.1317  49.3155  49.3876  49.5341  49.6365  49.9461

     occupation numbers 
     1.0000   1.0000   1.0000   1.0000   1.0000   1.0000   1.0000   1.0000
     1.0000   1.0000   1.0000   1.0000   1.0000   1.0000   1.0000   1.0000
     1.0000   1.0000   1.0000   1.0000   1.0000   1.0000   1.0000   1.0000
     1.0000   1.0000   1.0000   1.0000   1.0000   1.0000   1.0000   1.0000
     1.0000   1.0000   1.0000   1.0000   1.0000   1.0000   1.0000   1.0000
     1.0000   1.0000   1.0000   1.0000   1.0000   1.0000   1.0000   1.0000
     1.0000   1.0000   1.0000   1.0000   1.0000   1.0000   1.0000   1.0000
     1.0000   1.0000   1.0000   1.0000   1.0000   1.0000   1.0000   1.0000
     1.0000   1.0000   1.0000   1.0000   1.0000   1.0000   1.0000   1.0000
     1.0000   1.0000   1.0000   1.0000   1.0000   1.0000   1.0000   1.0000
     1.0000   1.0000   0.0000   0.0000   0.0000   0.0000   0.0000   0.0000
     0.0000   0.0000   0.0000   0.0000   0.0000   0.0000   0.0000   0.0000
     0.0000   0.0000   0.0000   0.0000   0.0000   0.0000   0.0000   0.0000
     0.0000   0.0000   0.0000   0.0000   0.0000   0.0000   0.0000   0.0000
     0.0000   0.0000   0.0000   0.0000   0.0000   0.0000   0.0000   0.0000
     0.0000   0.0000   0.0000   0.0000   0.0000   0.0000   0.0000   0.0000
     0.0000   0.0000   0.0000   0.0000   0.0000   0.0000   0.0000   0.0000
     0.0000   0.0000   0.0000   0.0000   0.0000   0.0000   0.0000   0.0000
     0.0000   0.0000   0.0000   0.0000   0.0000   0.0000   0.0000   0.0000
     0.0000   0.0000   0.0000   0.0000   0.0000   0.0000   0.0000   0.0000
     0.0000   0.0000   0.0000   0.0000   0.0000   0.0000   0.0000   0.0000
     0.0000   0.0000   0.0000   0.0000   0.0000   0.0000   0.0000   0.0000
     0.0000   0.0000   0.0000   0.0000   0.0000   0.0000   0.0000   0.0000
     0.0000   0.0000   0.0000   0.0000   0.0000   0.0000   0.0000   0.0000
     0.0000   0.0000   0.0000   0.0000   0.0000   0.0000   0.0000   0.0000
     0.0000   0.0000   0.0000   0.0000   0.0000   0.0000   0.0000   0.0000
     0.0000   0.0000   0.0000   0.0000   0.0000   0.0000   0.0000   0.0000
     0.0000   0.0000   0.0000   0.0000   0.0000   0.0000   0.0000   0.0000
     0.0000   0.0000   0.0000   0.0000   0.0000   0.0000   0.0000   0.0000
     0.0000   0.0000   0.0000   0.0000   0.0000   0.0000   0.0000   0.0000
     0.0000   0.0000   0.0000   0.0000   0.0000   0.0000   0.0000   0.0000
     0.0000   0.0000   0.0000   0.0000   0.0000   0.0000   0.0000   0.0000

          k = 0.3333 0.3213-0.2323 (  4323 PWs)   bands (ev):

   -77.3757 -77.3144 -73.0317 -73.0146 -42.9695 -42.9290 -42.9026 -42.8910
   -42.8645 -42.8606 -34.8204 -34.8008 -34.7794 -34.7633 -34.7423 -34.7324
   -29.9269 -29.5599 -29.5000 -11.2409 -11.2015 -11.1502 -11.0200 -10.9725
   -10.8042 -10.7001 -10.6472 -10.5663  -9.1047  -8.9505  -8.8393  -8.7688
    -8.7388  -8.6426  -8.2172  -8.1058  -8.0323  -7.9614  -7.8602  -7.7732
     2.5839   2.6993   3.1252   3.2164   3.3887   3.4725   3.5911   3.7801
     3.9140   4.0425   4.1102   4.1631   4.9220   5.0755   5.3098   5.3578
     5.5236   5.6691   5.8486   6.0514   6.1739   6.2558   6.3295   6.4964
     6.5929   6.6894   6.8758   7.0108   7.1267   7.2109   7.3137   7.3976
     7.4604   7.5751   7.7373   7.8798   9.1007   9.2255   9.4325   9.4905
     9.5129   9.5900  10.3479  10.5067  10.6229  10.7405  10.8596  10.9830
    11.3970  11.4306  11.4937  11.6445  14.7950  15.0000  15.2160  15.4977
    15.5530  15.7644  15.8001  15.9503  16.0725  16.1073  16.1536  16.3296
    16.4212  16.4998  16.5622  16.7399  16.8436  16.8909  17.0421  17.3240
    18.1937  18.7788  19.3251  19.6362  20.1888  20.3608  20.7968  21.1034
    21.3746  22.0806  22.4823  22.5889  22.9994  23.2437  23.4314  23.4969
    23.8337  24.0132  24.1693  24.5074  24.6313  24.9036  25.2031  25.5093
    25.6206  25.7272  25.8481  26.0932  26.1952  26.5605  26.9300  27.1732
    27.5319  27.7991  27.9293  28.0738  28.3519  28.5256  29.1199  29.2617
    29.7124  29.8723  30.3607  30.7226  30.9610  31.2841  31.3887  31.9156
    32.0971  32.2889  32.4466  32.8170  32.9553  33.4227  33.5113  34.0376
    34.1925  34.4041  34.6667  34.8155  35.0916  35.2455  35.4918  35.5371
    35.7881  35.9700  36.1959  36.5765  36.6185  36.8183  37.1452  37.3873
    37.5315  37.7566  37.8816  38.0146  38.0780  38.4610  38.6192  38.9918
    39.2201  39.4642  39.6022  39.7244  39.8377  39.9689  40.4101  40.6343
    40.9907  41.1227  41.2312  41.4049  41.6889  41.9516  42.0050  42.1416
    42.3627  42.6275  42.7551  42.8520  43.1431  43.3251  43.4066  43.6504
    43.7202  43.9933  44.0426  44.3621  44.5108  44.6316  44.8036  44.9203
    45.1161  45.1985  45.3103  45.6151  45.6633  45.7725  45.9653  46.0939
    46.1943  46.2831  46.4879  46.6956  46.9197  47.0311  47.2971  47.4592
    47.5591  47.7030  47.8517  48.0219  48.1783  48.3241  48.4536  48.6431
    48.7878  48.8868  49.1633  49.3250  49.4725  49.6604  49.8386  49.9253

     occupation numbers 
[...]
     0.0000   0.0000   0.0000   0.0000   0.0000   0.0000   0.0000   0.0000
     0.0000   0.0000   0.0000   0.0000   0.0000   0.0000   0.0000   0.0000
     0.0000   0.0000   0.0000   0.0000   0.0000   0.0000   0.0000   0.0000
     0.0000   0.0000   0.0000   0.0000   0.0000   0.0000   0.0000   0.0000
     0.0000   0.0000   0.0000   0.0000   0.0000   0.0000   0.0000   0.0000
     0.0000   0.0000   0.0000   0.0000   0.0000   0.0000   0.0000   0.0000
     0.0000   0.0000   0.0000   0.0000   0.0000   0.0000   0.0000   0.0000
     0.0000   0.0000   0.0000   0.0000   0.0000   0.0000   0.0000   0.0000
     0.0000   0.0000   0.0000   0.0000   0.0000   0.0000   0.0000   0.0000

          k = 0.3333-0.3265 0.0000 (  4317 PWs)   bands (ev):

   -77.3754 -77.3141 -73.0317 -73.0146 -42.9668 -42.9245 -42.9078 -42.8861
   -42.8678 -42.8570 -34.8204 -34.8008 -34.7794 -34.7633 -34.7423 -34.7323
   -29.9270 -29.5599 -29.5000 -11.2616 -11.2206 -11.1769 -11.0228 -10.9294
   -10.7851 -10.6809 -10.6468 -10.5572  -9.1241  -8.9582  -8.8762  -8.8113
    -8.7106  -8.6746  -8.2086  -8.0963  -8.0241  -7.9184  -7.8078  -7.7777
     2.4281   2.5002   3.0524   3.1396   3.2876   3.4615   3.5756   3.6615
     3.9531   4.0011   4.1122   4.2884   5.1411   5.3302   5.4164   5.5037
     5.6375   5.7380   6.0231   6.1726   6.2333   6.2638   6.3498   6.4611
     6.5886   6.7366   6.8041   7.0803   7.1384   7.2125   7.3391   7.3714
     7.4446   7.5128   7.7626   7.9095   8.5980   9.1206   9.4266   9.5190
     9.5440   9.6370  10.1110  10.4152  10.5388  10.8318  10.9419  11.0047
    11.3359  11.3758  11.4935  11.6222  14.6335  14.8028  15.3270  15.5029
    15.6639  15.8105  15.9054  15.9488  16.0669  16.0964  16.2360  16.3062
    16.3796  16.5468  16.6036  16.7632  16.8766  16.9261  16.9971  17.2533
    18.4501  18.9047  19.2840  19.6981  19.9943  20.4526  20.6144  20.6903
    21.4536  22.2718  22.4332  22.8015  23.0111  23.2860  23.5926  23.6719
    23.8173  24.0530  24.3052  24.5351  24.7472  24.9440  25.1960  25.3264
    25.4492  25.5896  25.7153  26.1547  26.1928  26.3422  26.9300  27.2387
    27.5741  27.7959  27.9852  28.0747  28.3851  28.8617  29.2274  29.4840
    29.6463  29.9518  30.1660  30.3444  30.5935  31.1626  31.3660  31.6036
    31.8000  32.3107  32.5903  32.8930  33.0972  33.3328  33.7702  33.9276
    34.1131  34.2758  34.4496  34.7248  34.8780  35.1518  35.3654  35.5913
    35.9042  36.1890  36.3727  36.6334  36.8513  36.9769  37.1495  37.3169
    37.7640  37.9413  38.0917  38.2334  38.3981  38.6489  38.8283  39.0661
    39.2189  39.3742  39.5471  39.6493  39.9592  40.1172  40.3355  40.5197
    40.7321  40.9429  41.1536  41.4664  41.5970  41.8163  42.0339  42.2718
    42.4582  42.6664  42.7824  42.8482  42.9528  43.1282  43.3153  43.4923
    43.7646  44.0246  44.0903  44.3113  44.4849  44.6273  44.7922  44.9046
    45.1104  45.2018  45.3209  45.4512  45.6150  45.8208  46.0030  46.1906
    46.2582  46.4083  46.5047  46.7167  47.0254  47.1303  47.2254  47.3616
    47.6222  47.7121  47.8073  48.0479  48.2191  48.3618  48.5299  48.6961
    48.8104  48.9725  49.0503  49.3142  49.3313  49.4631  49.8555  49.9504

     occupation numbers 
     1.0000   1.0000   1.0000   1.0000   1.0000   1.0000   1.0000   1.0000
     1.0000   1.0000   1.0000   1.0000   1.0000   1.0000   1.0000   1.0000
     1.0000   1.0000   1.0000   1.0000   1.0000   1.0000   1.0000   1.0000
     1.0000   1.0000   1.0000   1.0000   1.0000   1.0000   1.0000   1.0000
     1.0000   1.0000   1.0000   1.0000   1.0000   1.0000   1.0000   1.0000
     1.0000   1.0000   1.0000   1.0000   1.0000   1.0000   1.0000   1.0000
     1.0000   1.0000   1.0000   1.0000   1.0000   1.0000   1.0000   1.0000
     1.0000   1.0000   1.0000   1.0000   1.0000   1.0000   1.0000   1.0000
     1.0000   1.0000   1.0000   1.0000   1.0000   1.0000   1.0000   1.0000
     1.0000   1.0000   1.0000   1.0000   1.0000   1.0000   1.0000   1.0000
     1.0000   1.0000   0.0000   0.0000   0.0000   0.0000   0.0000   0.0000
     0.0000   0.0000   0.0000   0.0000   0.0000   0.0000   0.0000   0.0000
     0.0000   0.0000   0.0000   0.0000   0.0000   0.0000   0.0000   0.0000
     0.0000   0.0000   0.0000   0.0000   0.0000   0.0000   0.0000   0.0000
     0.0000   0.0000   0.0000   0.0000   0.0000   0.0000   0.0000   0.0000
     0.0000   0.0000   0.0000   0.0000   0.0000   0.0000   0.0000   0.0000
     0.0000   0.0000   0.0000   0.0000   0.0000   0.0000   0.0000   0.0000
     0.0000   0.0000   0.0000   0.0000   0.0000   0.0000   0.0000   0.0000
     0.0000   0.0000   0.0000   0.0000   0.0000   0.0000   0.0000   0.0000
     0.0000   0.0000   0.0000   0.0000   0.0000   0.0000   0.0000   0.0000
     0.0000   0.0000   0.0000   0.0000   0.0000   0.0000   0.0000   0.0000
     0.0000   0.0000   0.0000   0.0000   0.0000   0.0000   0.0000   0.0000
     0.0000   0.0000   0.0000   0.0000   0.0000   0.0000   0.0000   0.0000
     0.0000   0.0000   0.0000   0.0000   0.0000   0.0000   0.0000   0.0000
     0.0000   0.0000   0.0000   0.0000   0.0000   0.0000   0.0000   0.0000
     0.0000   0.0000   0.0000   0.0000   0.0000   0.0000   0.0000   0.0000
     0.0000   0.0000   0.0000   0.0000   0.0000   0.0000   0.0000   0.0000
     0.0000   0.0000   0.0000   0.0000   0.0000   0.0000   0.0000   0.0000
     0.0000   0.0000   0.0000   0.0000   0.0000   0.0000   0.0000   0.0000
     0.0000   0.0000   0.0000   0.0000   0.0000   0.0000   0.0000   0.0000
     0.0000   0.0000   0.0000   0.0000   0.0000   0.0000   0.0000   0.0000
     0.0000   0.0000   0.0000   0.0000   0.0000   0.0000   0.0000   0.0000

          k = 0.3333-0.3265 0.2322 (  4308 PWs)   bands (ev):

   -77.3745 -77.3133 -73.0317 -73.0146 -42.9641 -42.9199 -42.9062 -42.8793
   -42.8660 -42.8582 -34.8204 -34.8008 -34.7794 -34.7633 -34.7422 -34.7323
   -29.9269 -29.5599 -29.5001 -11.2455 -11.1995 -11.1474 -11.0401 -10.9501
   -10.8061 -10.7008 -10.6513 -10.5572  -9.0379  -9.0118  -8.8307  -8.7945
    -8.7307  -8.6629  -8.2164  -8.0921  -8.0045  -7.9571  -7.8499  -7.8140
     2.6134   2.6863   3.1522   3.2054   3.4021   3.4835   3.5526   3.8431
     3.8743   4.0760   4.1229   4.1805   4.9102   5.0459   5.3054   5.4065
     5.5366   5.5826   5.8554   5.9770   6.2124   6.2944   6.4056   6.4574
     6.5272   6.6905   6.8779   7.0289   7.1691   7.2231   7.3422   7.3830
     7.4727   7.5200   7.7439   7.9085   9.0626   9.2757   9.4366   9.4758
     9.5075   9.5967  10.3280  10.4572  10.6474  10.7906  10.8057  10.9540
    11.4009  11.4533  11.5084  11.6436  14.8429  14.9540  15.3294  15.4264
    15.5457  15.7078  15.8470  15.9215  16.0503  16.0919  16.2003  16.3427
    16.4144  16.4606  16.5672  16.7019  16.8632  16.9180  17.0635  17.5207
    18.1979  18.6666  19.2852  19.5662  20.2229  20.4727  20.7214  21.2713
    21.4601  22.1594  22.5111  22.6039  22.9052  23.0051  23.2545  23.4666
    23.8374  23.9449  24.1937  24.5361  24.8059  24.9051  25.0919  25.3153
    25.6646  25.7689  25.8398  26.0664  26.4159  26.7387  27.0767  27.2757
    27.4418  27.5449  28.0135  28.2099  28.4757  28.7808  28.8431  29.1320
    29.6020  29.8705  30.2975  30.6253  30.7859  31.2712  31.5212  31.6116
    32.0903  32.2253  32.5291  32.9842  33.2516  33.4917  33.6857  33.8418
    34.1691  34.3613  34.6085  34.7700  34.9498  35.0846  35.5298  35.7304
    35.9841  36.0543  36.4066  36.5823  36.7703  36.8977  37.1234  37.3020
    37.4646  37.7147  37.8534  38.0984  38.1691  38.4213  38.7253  38.9149
    39.1789  39.3883  39.5906  39.7730  39.8815  40.1768  40.3828  40.4760
    40.6991  40.9043  41.0260  41.3065  41.5563  41.7478  41.8438  42.2185
    42.3863  42.6657  42.8687  42.9602  43.1414  43.3307  43.4654  43.5963
    43.8477  44.0600  44.1298  44.2915  44.4952  44.6473  44.7835  45.0280
    45.0903  45.3288  45.4732  45.6290  45.6635  45.9109  46.1311  46.2005
    46.2854  46.4834  46.6582  46.7634  46.8473  47.1723  47.2331  47.3977
    47.5652  47.6646  47.8332  47.9656  48.1253  48.3275  48.4944  48.6073
    48.7783  49.0141  49.0356  49.2504  49.3518  49.5764  49.6860  49.9273

     occupation numbers 
     1.0000   1.0000   1.0000   1.0000   1.0000   1.0000   1.0000   1.0000
     1.0000   1.0000   1.0000   1.0000   1.0000   1.0000   1.0000   1.0000
     1.0000   1.0000   1.0000   1.0000   1.0000   1.0000   1.0000   1.0000
     1.0000   1.0000   1.0000   1.0000   1.0000   1.0000   1.0000   1.0000
     1.0000   1.0000   1.0000   1.0000   1.0000   1.0000   1.0000   1.0000
     1.0000   1.0000   1.0000   1.0000   1.0000   1.0000   1.0000   1.0000
     1.0000   1.0000   1.0000   1.0000   1.0000   1.0000   1.0000   1.0000
     1.0000   1.0000   1.0000   1.0000   1.0000   1.0000   1.0000   1.0000
     1.0000   1.0000   1.0000   1.0000   1.0000   1.0000   1.0000   1.0000
     1.0000   1.0000   1.0000   1.0000   1.0000   1.0000   1.0000   1.0000
     1.0000   1.0000   0.0000   0.0000   0.0000   0.0000   0.0000   0.0000
     0.0000   0.0000   0.0000   0.0000   0.0000   0.0000   0.0000   0.0000
     0.0000   0.0000   0.0000   0.0000   0.0000   0.0000   0.0000   0.0000
     0.0000   0.0000   0.0000   0.0000   0.0000   0.0000   0.0000   0.0000
     0.0000   0.0000   0.0000   0.0000   0.0000   0.0000   0.0000   0.0000
     0.0000   0.0000   0.0000   0.0000   0.0000   0.0000   0.0000   0.0000
     0.0000   0.0000   0.0000   0.0000   0.0000   0.0000   0.0000   0.0000
     0.0000   0.0000   0.0000   0.0000   0.0000   0.0000   0.0000   0.0000
     0.0000   0.0000   0.0000   0.0000   0.0000   0.0000   0.0000   0.0000
     0.0000   0.0000   0.0000   0.0000   0.0000   0.0000   0.0000   0.0000
     0.0000   0.0000   0.0000   0.0000   0.0000   0.0000   0.0000   0.0000
     0.0000   0.0000   0.0000   0.0000   0.0000   0.0000   0.0000   0.0000
     0.0000   0.0000   0.0000   0.0000   0.0000   0.0000   0.0000   0.0000
     0.0000   0.0000   0.0000   0.0000   0.0000   0.0000   0.0000   0.0000
     0.0000   0.0000   0.0000   0.0000   0.0000   0.0000   0.0000   0.0000
     0.0000   0.0000   0.0000   0.0000   0.0000   0.0000   0.0000   0.0000
     0.0000   0.0000   0.0000   0.0000   0.0000   0.0000   0.0000   0.0000
     0.0000   0.0000   0.0000   0.0000   0.0000   0.0000   0.0000   0.0000
     0.0000   0.0000   0.0000   0.0000   0.0000   0.0000   0.0000   0.0000
     0.0000   0.0000   0.0000   0.0000   0.0000   0.0000   0.0000   0.0000
     0.0000   0.0000   0.0000   0.0000   0.0000   0.0000   0.0000   0.0000
     0.0000   0.0000   0.0000   0.0000   0.0000   0.0000   0.0000   0.0000

          k = 0.3333-0.3265-0.2321 (  4308 PWs)   bands (ev):

   -77.3745 -77.3134 -73.0317 -73.0146 -42.9633 -42.9274 -42.9002 -42.8879
   -42.8619 -42.8530 -34.8204 -34.8008 -34.7794 -34.7633 -34.7423 -34.7323
   -29.9269 -29.5599 -29.5001 -11.2437 -11.2031 -11.1510 -11.0376 -10.9466
   -10.8065 -10.7017 -10.6496 -10.5572  -9.0980  -8.9485  -8.8436  -8.7600
    -8.7298  -8.6662  -8.2436  -8.0731  -8.0640  -7.9503  -7.8393  -7.7868
     2.6128   2.6785   3.1520   3.1898   3.3768   3.5415   3.6342   3.8155
     3.8600   4.0487   4.0872   4.1453   4.9584   5.1395   5.2910   5.3530
     5.5065   5.5579   5.8999   5.9979   6.1843   6.2769   6.3895   6.4800
     6.5422   6.6932   6.8736   7.0236   7.1211   7.2438   7.2901   7.3719
     7.4848   7.5784   7.7607   7.9095   9.0490   9.2571   9.4260   9.5051
     9.5159   9.5962  10.2961  10.4727  10.6422  10.8159  10.8517  10.9314
    11.3925  11.4452  11.4897  11.6516  14.8336  14.9926  15.2833  15.4330
    15.6252  15.7040  15.8509  15.9489  16.0281  16.1370  16.1582  16.3038
    16.3913  16.5102  16.5730  16.6926  16.8440  16.8979  17.0523  17.4478
    18.2056  18.6371  19.2900  19.6505  20.2413  20.5042  20.6817  21.2719
    21.3983  22.0430  22.4248  22.5953  22.9997  23.2564  23.3735  23.6007
    23.8700  24.0031  24.1187  24.4309  24.7072  24.8772  25.1285  25.4503
    25.5132  25.6938  25.9526  26.0207  26.1669  26.6827  26.8225  27.2461
    27.4699  27.7862  27.9808  28.2355  28.4383  28.6816  29.0257  29.2600
    29.5267  29.9956  30.2975  30.7838  30.8904  31.2123  31.3903  31.7425
    31.9183  32.1343  32.6217  32.7839  33.1265  33.4295  33.7223  34.0319
    34.2710  34.5105  34.6436  34.7881  35.1593  35.3534  35.4584  35.5925
    35.7461  36.0330  36.2301  36.3686  36.6288  36.9992  37.1362  37.4057
    37.5785  37.7825  37.8279  37.9626  38.1778  38.5197  38.7118  38.7747
    39.0221  39.1330  39.5505  39.7655  39.9857  40.1173  40.4610  40.6229
    40.8949  41.0438  41.0628  41.3576  41.5684  41.8236  41.9633  42.2417
    42.4610  42.6310  42.7805  42.8943  43.2032  43.3512  43.4766  43.7404
    43.8847  43.9769  44.1212  44.3998  44.5604  44.6301  44.7403  44.8507
    44.9979  45.2764  45.4336  45.5032  45.6223  45.7437  45.9683  46.1577
    46.2569  46.5128  46.5709  46.6591  46.8456  46.9485  47.2916  47.4944
    47.6326  47.7795  47.9317  48.0912  48.1782  48.3009  48.4895  48.7341
    48.8110  48.8960  49.1463  49.2254  49.3262  49.6794  49.7854  49.8058

     occupation numbers 
     1.0000   1.0000   1.0000   1.0000   1.0000   1.0000   1.0000   1.0000
     1.0000   1.0000   1.0000   1.0000   1.0000   1.0000   1.0000   1.0000
     1.0000   1.0000   1.0000   1.0000   1.0000   1.0000   1.0000   1.0000
     1.0000   1.0000   1.0000   1.0000   1.0000   1.0000   1.0000   1.0000
     1.0000   1.0000   1.0000   1.0000   1.0000   1.0000   1.0000   1.0000
     1.0000   1.0000   1.0000   1.0000   1.0000   1.0000   1.0000   1.0000
     1.0000   1.0000   1.0000   1.0000   1.0000   1.0000   1.0000   1.0000
     1.0000   1.0000   1.0000   1.0000   1.0000   1.0000   1.0000   1.0000
     1.0000   1.0000   1.0000   1.0000   1.0000   1.0000   1.0000   1.0000
     1.0000   1.0000   1.0000   1.0000   1.0000   1.0000   1.0000   1.0000
     1.0000   1.0000   0.0000   0.0000   0.0000   0.0000   0.0000   0.0000
     0.0000   0.0000   0.0000   0.0000   0.0000   0.0000   0.0000   0.0000
     0.0000   0.0000   0.0000   0.0000   0.0000   0.0000   0.0000   0.0000
     0.0000   0.0000   0.0000   0.0000   0.0000   0.0000   0.0000   0.0000
     0.0000   0.0000   0.0000   0.0000   0.0000   0.0000   0.0000   0.0000
     0.0000   0.0000   0.0000   0.0000   0.0000   0.0000   0.0000   0.0000
     0.0000   0.0000   0.0000   0.0000   0.0000   0.0000   0.0000   0.0000
     0.0000   0.0000   0.0000   0.0000   0.0000   0.0000   0.0000   0.0000
     0.0000   0.0000   0.0000   0.0000   0.0000   0.0000   0.0000   0.0000
     0.0000   0.0000   0.0000   0.0000   0.0000   0.0000   0.0000   0.0000
     0.0000   0.0000   0.0000   0.0000   0.0000   0.0000   0.0000   0.0000
     0.0000   0.0000   0.0000   0.0000   0.0000   0.0000   0.0000   0.0000
     0.0000   0.0000   0.0000   0.0000   0.0000   0.0000   0.0000   0.0000
     0.0000   0.0000   0.0000   0.0000   0.0000   0.0000   0.0000   0.0000
     0.0000   0.0000   0.0000   0.0000   0.0000   0.0000   0.0000   0.0000
     0.0000   0.0000   0.0000   0.0000   0.0000   0.0000   0.0000   0.0000
     0.0000   0.0000   0.0000   0.0000   0.0000   0.0000   0.0000   0.0000
     0.0000   0.0000   0.0000   0.0000   0.0000   0.0000   0.0000   0.0000
     0.0000   0.0000   0.0000   0.0000   0.0000   0.0000   0.0000   0.0000
     0.0000   0.0000   0.0000   0.0000   0.0000   0.0000   0.0000   0.0000
     0.0000   0.0000   0.0000   0.0000   0.0000   0.0000   0.0000   0.0000
     0.0000   0.0000   0.0000   0.0000   0.0000   0.0000   0.0000   0.0000

     highest occupied, lowest unoccupied level (ev):     9.6427   10.1110

!    total energy              =   -1764.29517344 Ry
     estimated scf accuracy    <       0.00000040 Ry

     The total energy is the sum of the following terms:
     one-electron contribution =    -669.30661353 Ry
     hartree contribution      =     414.96222648 Ry
     xc contribution           =    -299.02594866 Ry
     ewald contribution        =    -944.49675161 Ry
     one-center paw contrib.   =    -266.42808613 Ry
      -> PAW hartree energy AE =       0.00000000 Ry
      -> PAW hartree energy PS =       0.00000000 Ry
      -> PAW xc energy AE      =       0.00000000 Ry
      -> PAW xc energy PS      =       0.00000000 Ry
      -> total E_H with PAW    =     414.96222648 Ry
      -> total E_XC with PAW   =    -299.02594866 Ry

     convergence has been achieved in  22 iterations

     Writing all to output data dir bands_nm/myprefix.save/
 
     init_run     :      9.96s CPU      3.56s WALL (       1 calls)
     electrons    :    489.81s CPU    134.31s WALL (       1 calls)

     Called by init_run:
     wfcinit      :      5.06s CPU      1.36s WALL (       1 calls)
     wfcinit:atom :      0.02s CPU      0.00s WALL (       7 calls)
     wfcinit:wfcr :      4.89s CPU      1.31s WALL (       7 calls)
     potinit      :      0.89s CPU      0.31s WALL (       1 calls)
     hinit0       :      2.13s CPU      0.89s WALL (       1 calls)

     Called by electrons:
     c_bands      :    421.31s CPU    115.25s WALL (      22 calls)
     sum_band     :     49.23s CPU     13.73s WALL (      22 calls)
     v_of_rho     :      0.91s CPU      0.25s WALL (      23 calls)
     v_h          :      0.07s CPU      0.02s WALL (      23 calls)
     v_xc         :      0.84s CPU      0.23s WALL (      23 calls)
     newd         :     10.08s CPU      2.85s WALL (      23 calls)
     PAW_pot      :      8.07s CPU      2.20s WALL (      23 calls)
     mix_rho      :      0.38s CPU      0.10s WALL (      22 calls)

     Called by c_bands:
     init_us_2    :      0.65s CPU      0.17s WALL (     315 calls)
     init_us_2:cp :      0.64s CPU      0.17s WALL (     315 calls)
     cegterg      :    361.53s CPU     94.62s WALL (     154 calls)

     Called by sum_band:
     sum_band:wei :      0.01s CPU      0.00s WALL (      22 calls)
     sum_band:loo :     31.47s CPU      8.10s WALL (      22 calls)
     sum_band:buf :      0.50s CPU      0.11s WALL (     154 calls)
     sum_band:ini :      0.36s CPU      0.09s WALL (     154 calls)
     sum_band:cal :      8.68s CPU      2.19s WALL (     154 calls)
     sum_band:bec :      0.26s CPU      0.10s WALL (     154 calls)
     addusdens    :      8.89s CPU      2.77s WALL (      22 calls)
     addusd:skk   :      0.01s CPU      0.01s WALL (      88 calls)
     addusd:dgemm :      0.84s CPU      0.57s WALL (      88 calls)
     addusd:qvan2 :      4.38s CPU      1.20s WALL (      88 calls)

     Called by *egterg:
     cdiaghg      :    113.66s CPU     30.14s WALL (     456 calls)
     cegterg:over :     40.64s CPU     10.50s WALL (     302 calls)
     cegterg:upda :     20.33s CPU      5.26s WALL (     302 calls)
     cegterg:last :     35.17s CPU      9.09s WALL (     214 calls)
     cdiaghg:chol :      7.41s CPU      1.97s WALL (     456 calls)
     cdiaghg:inve :      2.41s CPU      0.64s WALL (     456 calls)
     cdiaghg:para :     25.15s CPU      6.80s WALL (     912 calls)
     h_psi        :    121.92s CPU     32.06s WALL (     463 calls)
     s_psi        :     17.75s CPU      4.56s WALL (     463 calls)
     g_psi        :      0.14s CPU      0.05s WALL (     302 calls)

     Called by h_psi:
     h_psi:calbec :     19.44s CPU      5.02s WALL (     463 calls)
     vloc_psi     :     84.47s CPU     22.34s WALL (     463 calls)
     add_vuspsi   :     17.81s CPU      4.63s WALL (     463 calls)

     General routines
     calbec       :     28.11s CPU      7.21s WALL (     617 calls)
     fft          :      1.60s CPU      0.44s WALL (     297 calls)
     ffts         :      0.08s CPU      0.02s WALL (      45 calls)
     fftw         :    100.89s CPU     24.22s WALL (  207812 calls)
     interpolate  :      0.09s CPU      0.03s WALL (      23 calls)
 
     Parallel routines

     PAW routines
     PAW_pot      :      8.07s CPU      2.20s WALL (      23 calls)
 
     PWSCF        :   8m21.72s CPU   2m19.03s WALL

 
   This run was terminated on:  17:54:29  16Jul2023            

=------------------------------------------------------------------------------=
   JOB DONE.
=------------------------------------------------------------------------------=
