
     Program PWSCF v.7.0 starts on  6Jun2023 at 17: 8:11 

     This program is part of the open-source Quantum ESPRESSO suite
     for quantum simulation of materials; please cite
         "P. Giannozzi et al., J. Phys.:Condens. Matter 21 395502 (2009);
         "P. Giannozzi et al., J. Phys.:Condens. Matter 29 465901 (2017);
         "P. Giannozzi et al., J. Chem. Phys. 152 154105 (2020);
          URL http://www.quantum-espresso.org", 
     in publications or presentations arising from this work. More details at
     http://www.quantum-espresso.org/quote

     Parallel version (MPI & OpenMP), running on      32 processor cores
     Number of MPI processes:                 8
     Threads/MPI process:                     4

     MPI processes distributed on     1 nodes
     K-points division:     npool     =       2
     R & G space division:  proc/nbgrp/npool/nimage =       4
     51260 MiB available memory on the printing compute node when the environment starts
 
     Reading input from espresso_19482.pwi
Warning: card &CELL ignored
Warning: card / ignored

     Current dimensions of program PWSCF are:
     Max number of different atomic species (ntypx) = 10
     Max number of k-points (npk) =  40000
     Max angular momentum in pseudopotentials (lmaxx) =  4
     file O.pbe-n-kjpaw_psl.0.1.UPF: wavefunction(s)  2P renormalized
     Message from routine setup:
     using ibrav=0 with symmetry is DISCOURAGED, use correct ibrav instead

     Subspace diagonalization in iterative solution of the eigenvalue problem:
     one sub-group per band group will be used
     scalapack distributed-memory algorithm (size of sub-group:  2*  2 procs)

 
     Parallelization info
     --------------------
     sticks:   dense  smooth     PW     G-vecs:    dense   smooth      PW
     Min         299     149     45                10024     3550     598
     Max         300     150     46                10025     3551     599
     Sum        1199     597    181                40097    14201    2393
 
     Using Slab Decomposition
 


     bravais-lattice index     =            0
     lattice parameter (alat)  =       6.1416  a.u.
     unit-cell volume          =     639.0347 (a.u.)^3
     number of atoms/cell      =           12
     number of atomic types    =            3
     number of electrons       =        36.00
     number of Kohn-Sham states=           64
     kinetic-energy cutoff     =      30.0000  Ry
     charge density cutoff     =     240.0000  Ry
     scf convergence threshold =      1.0E-06
     mixing beta               =       0.7000
     number of iterations used =            8  plain     mixing
     Exchange-correlation= SLA  PW   PBX  PBC
                           (   1   4   3   4   0   0   0)

     celldm(1)=   6.141646  celldm(2)=   0.000000  celldm(3)=   0.000000
     celldm(4)=   0.000000  celldm(5)=   0.000000  celldm(6)=   0.000000

     crystal axes: (cart. coord. in units of alat)
               a(1) = (   1.000000   0.000000   0.000000 )  
               a(2) = (  -0.441816   1.658293   0.000000 )  
               a(3) = (  -0.438384  -0.308137   1.663447 )  

     reciprocal axes: (cart. coord. in units 2 pi/alat)
               b(1) = (  1.000000  0.266428  0.312893 )  
               b(2) = (  0.000000  0.603030  0.111705 )  
               b(3) = (  0.000000  0.000000  0.601161 )  


     PseudoPot. # 1 for Li read from file:
     /home/pragov/projects/rrg-bengioy-ad/pragov/crystal_structure_design/SSSP/li_pbe_v1.4.uspp.F.UPF
     MD5 check sum: e912e257baa3777c20ea3d68f190483c
     Pseudo is Ultrasoft, Zval =  3.0
     Generated by new atomic code, or converted to UPF format
     Using radial grid of  751 points,  5 beta functions with: 
                l(1) =   0
                l(2) =   0
                l(3) =   0
                l(4) =   1
                l(5) =   1
     Q(r) pseudized with 10 coefficients,  rinner =    1.150   1.150   1.150


     PseudoPot. # 2 for H  read from file:
     /home/pragov/projects/rrg-bengioy-ad/pragov/crystal_structure_design/SSSP/H.pbe-rrkjus_psl.1.0.0.UPF
     MD5 check sum: f52b6d4d1c606e5624b1dc7b2218f220
     Pseudo is Ultrasoft, Zval =  1.0
     Generated using "atomic" code by A. Dal Corso  v.5.1
     Using radial grid of  929 points,  2 beta functions with: 
                l(1) =   0
                l(2) =   0
     Q(r) pseudized with 0 coefficients 


     PseudoPot. # 3 for O  read from file:
     /home/pragov/projects/rrg-bengioy-ad/pragov/crystal_structure_design/SSSP/O.pbe-n-kjpaw_psl.0.1.UPF
     MD5 check sum: 0234752ac141de4415c5fc33072bef88
     Pseudo is Projector augmented-wave + core cor, Zval =  6.0
     Generated using "atomic" code by A. Dal Corso  v.5.0.99 svn rev. 10869
     Shape of augmentation charge: BESSEL
     Using radial grid of 1095 points,  4 beta functions with: 
                l(1) =   0
                l(2) =   0
                l(3) =   1
                l(4) =   1
     Q(r) pseudized with 0 coefficients 


     atomic species   valence    mass     pseudopotential
        Li             3.00     6.94000     Li( 1.00)
        H              1.00     1.00800     H ( 1.00)
        O              6.00    15.99900     O ( 1.00)

      2 Sym. Ops., with inversion, found


                                    s                        frac. trans.

      isym =  1     identity                                     

 cryst.   s( 1) = (     1          0          0      )
                  (     0          1          0      )
                  (     0          0          1      )

 cart.    s( 1) = (  1.0000000  0.0000000  0.0000000 )
                  (  0.0000000  1.0000000 -0.0000000 )
                  (  0.0000000  0.0000000  1.0000000 )


      isym =  2     inversion                                    

 cryst.   s( 2) = (    -1          0          0      )
                  (     0         -1          0      )
                  (     0          0         -1      )

 cart.    s( 2) = ( -1.0000000 -0.0000000 -0.0000000 )
                  (  0.0000000 -1.0000000  0.0000000 )
                  (  0.0000000  0.0000000 -1.0000000 )


   Cartesian axes

     site n.     atom                  positions (alat units)
         1           Li  tau(   1) = (  -0.6568744   0.8275188   1.4140460  )
         2           Li  tau(   2) = (   0.7766740   0.5226370   0.2494005  )
         3           H   tau(   3) = (  -0.1994390   1.0801513   0.8676005  )
         4           H   tau(   4) = (  -0.1146461   1.4007760   1.2333824  )
         5           H   tau(   5) = (   0.2344457  -0.0506202   0.4300642  )
         6           H   tau(   6) = (   0.3192386   0.2700045   0.7958461  )
         7           H   tau(   7) = (   0.4044513   1.1361586   0.3925202  )
         8           H   tau(   8) = (  -0.2846517   0.2139972   1.2709264  )
         9           O   tau(   9) = (  -0.1576624   1.0927702   1.1761482  )
        10           O   tau(  10) = (   0.2774620   0.2573856   0.4872984  )
        11           O   tau(  11) = (  -0.2976883   1.1232144   0.3569241  )
        12           O   tau(  12) = (   0.4174879   0.2269414   1.3065225  )

   Crystallographic axes

     site n.     atom                  positions (cryst. coord.)
         1           Li  tau(   1) = (  0.0060450  0.6569750  0.8500700  )
         2           Li  tau(   2) = (  0.9939550  0.3430250  0.1499300  )
         3           H   tau(   3) = (  0.3598100  0.7482790  0.5215680  )
         4           H   tau(   4) = (  0.6444770  0.9824850  0.7414620  )
         5           H   tau(   5) = (  0.3555230  0.0175150  0.2585380  )
         6           H   tau(   6) = (  0.6401900  0.2517210  0.4784320  )
         7           H   tau(   7) = (  0.8299730  0.7289840  0.2359680  )
         8           H   tau(   8) = (  0.1700270  0.2710160  0.7640320  )
         9           O   tau(   9) = (  0.5014910  0.7903550  0.7070550  )
        10           O   tau(  10) = (  0.4985090  0.2096450  0.2929450  )
        11           O   tau(  11) = (  0.1132470  0.7172020  0.2145690  )
        12           O   tau(  12) = (  0.8867530  0.2827980  0.7854310  )

     number of k points=    14
                       cart. coord. in units 2pi/alat
        k(    1) = (   0.0000000   0.0000000   0.0000000), wk =   0.0740741
        k(    2) = (   0.0000000   0.0000000   0.2003872), wk =   0.1481481
        k(    3) = (   0.0000000   0.2010099   0.0372351), wk =   0.1481481
        k(    4) = (   0.0000000   0.2010099   0.2376223), wk =   0.1481481
        k(    5) = (   0.0000000   0.2010099  -0.1631520), wk =   0.1481481
        k(    6) = (   0.3333333   0.0888095   0.1042976), wk =   0.1481481
        k(    7) = (   0.3333333   0.0888095   0.3046848), wk =   0.1481481
        k(    8) = (   0.3333333   0.0888095  -0.0960896), wk =   0.1481481
        k(    9) = (   0.3333333   0.2898194   0.1415327), wk =   0.1481481
        k(   10) = (   0.3333333   0.2898194   0.3419199), wk =   0.1481481
        k(   11) = (   0.3333333   0.2898194  -0.0588544), wk =   0.1481481
        k(   12) = (   0.3333333  -0.1122004   0.0670625), wk =   0.1481481
        k(   13) = (   0.3333333  -0.1122004   0.2674496), wk =   0.1481481
        k(   14) = (   0.3333333  -0.1122004  -0.1333247), wk =   0.1481481

                       cryst. coord.
        k(    1) = (   0.0000000   0.0000000   0.0000000), wk =   0.0740741
        k(    2) = (   0.0000000   0.0000000   0.3333333), wk =   0.1481481
        k(    3) = (   0.0000000   0.3333333   0.0000000), wk =   0.1481481
        k(    4) = (   0.0000000   0.3333333   0.3333333), wk =   0.1481481
        k(    5) = (   0.0000000   0.3333333  -0.3333333), wk =   0.1481481
        k(    6) = (   0.3333333   0.0000000   0.0000000), wk =   0.1481481
        k(    7) = (   0.3333333   0.0000000   0.3333333), wk =   0.1481481
        k(    8) = (   0.3333333   0.0000000  -0.3333333), wk =   0.1481481
        k(    9) = (   0.3333333   0.3333333  -0.0000000), wk =   0.1481481
        k(   10) = (   0.3333333   0.3333333   0.3333333), wk =   0.1481481
        k(   11) = (   0.3333333   0.3333333  -0.3333333), wk =   0.1481481
        k(   12) = (   0.3333333  -0.3333333   0.0000000), wk =   0.1481481
        k(   13) = (   0.3333333  -0.3333333   0.3333333), wk =   0.1481481
        k(   14) = (   0.3333333  -0.3333333  -0.3333333), wk =   0.1481481

     Dense  grid:    40097 G-vectors     FFT dimensions: (  32,  54,  54)

     Smooth grid:    14201 G-vectors     FFT dimensions: (  24,  40,  40)

     Dynamical RAM for                 wfc:       0.43 MB

     Dynamical RAM for     wfc (w. buffer):       3.46 MB

     Dynamical RAM for           str. fact:       0.46 MB

     Dynamical RAM for           local pot:       0.00 MB

     Dynamical RAM for          nlocal pot:       0.42 MB

     Dynamical RAM for                qrad:       1.60 MB

     Dynamical RAM for          rho,v,vnew:       1.01 MB

     Dynamical RAM for               rhoin:       0.34 MB

     Dynamical RAM for            rho*nmix:       2.45 MB

     Dynamical RAM for           G-vectors:       0.60 MB

     Dynamical RAM for          h,s,v(r/c):       0.19 MB

     Dynamical RAM for          <psi|beta>:       0.06 MB

     Dynamical RAM for                 psi:       0.87 MB

     Dynamical RAM for                hpsi:       0.87 MB

     Dynamical RAM for                spsi:       0.87 MB

     Dynamical RAM for      wfcinit/wfcrot:       0.96 MB

     Dynamical RAM for           addusdens:       4.51 MB

     Estimated static dynamical RAM per process >       9.42 MB

     Estimated max dynamical RAM per process >      16.38 MB

     Estimated total dynamical RAM >     121.28 MB

     Check: negative core charge=   -0.000014

     Initial potential from superposition of free atoms

     starting charge      35.0985, renormalised to      36.0000
     Starting wfcs are   32 randomized atomic wfcs +   32 random wfcs
     Checking if some PAW data can be deallocated... 
       PAW data deallocated on    4 nodes for type:  3

     total cpu time spent up to now is        2.5 secs

     Self-consistent Calculation

     iteration #  1     ecut=    30.00 Ry     beta= 0.70
     Davidson diagonalization with overlap

---- Real-time Memory Report at c_bands before calling an iterative solver
           126 MiB given to the printing process from OS
             0 MiB allocation reported by mallinfo(arena+hblkhd)
         51215 MiB available memory on the node where the printing process lives
------------------
     ethr =  1.00E-02,  avg # of iterations =  7.1

     total cpu time spent up to now is        4.9 secs

     total energy              =    -202.67748843 Ry
     estimated scf accuracy    <       0.70794921 Ry

     iteration #  2     ecut=    30.00 Ry     beta= 0.70
     Davidson diagonalization with overlap

---- Real-time Memory Report at c_bands before calling an iterative solver
           144 MiB given to the printing process from OS
             0 MiB allocation reported by mallinfo(arena+hblkhd)
         50994 MiB available memory on the node where the printing process lives
------------------
     ethr =  1.97E-03,  avg # of iterations =  2.0

     total cpu time spent up to now is        5.6 secs

     total energy              =    -202.81120547 Ry
     estimated scf accuracy    <       0.46007163 Ry

     iteration #  3     ecut=    30.00 Ry     beta= 0.70
     Davidson diagonalization with overlap

---- Real-time Memory Report at c_bands before calling an iterative solver
           145 MiB given to the printing process from OS
             0 MiB allocation reported by mallinfo(arena+hblkhd)
         50825 MiB available memory on the node where the printing process lives
------------------
     ethr =  1.28E-03,  avg # of iterations =  1.6

     total cpu time spent up to now is        6.3 secs

     total energy              =    -202.91663613 Ry
     estimated scf accuracy    <       0.01759350 Ry

     iteration #  4     ecut=    30.00 Ry     beta= 0.70
     Davidson diagonalization with overlap

---- Real-time Memory Report at c_bands before calling an iterative solver
           145 MiB given to the printing process from OS
             0 MiB allocation reported by mallinfo(arena+hblkhd)
         50440 MiB available memory on the node where the printing process lives
------------------
     ethr =  4.89E-05,  avg # of iterations =  2.9

     total cpu time spent up to now is        7.1 secs

     total energy              =    -202.91943341 Ry
     estimated scf accuracy    <       0.00817124 Ry

     iteration #  5     ecut=    30.00 Ry     beta= 0.70
     Davidson diagonalization with overlap

---- Real-time Memory Report at c_bands before calling an iterative solver
           145 MiB given to the printing process from OS
             0 MiB allocation reported by mallinfo(arena+hblkhd)
         51059 MiB available memory on the node where the printing process lives
------------------
     ethr =  2.27E-05,  avg # of iterations =  2.6

     total cpu time spent up to now is        7.8 secs

     total energy              =    -202.92124733 Ry
     estimated scf accuracy    <       0.00018898 Ry

     iteration #  6     ecut=    30.00 Ry     beta= 0.70
     Davidson diagonalization with overlap

---- Real-time Memory Report at c_bands before calling an iterative solver
           145 MiB given to the printing process from OS
             0 MiB allocation reported by mallinfo(arena+hblkhd)
         51064 MiB available memory on the node where the printing process lives
------------------
     ethr =  5.25E-07,  avg # of iterations =  7.5

     total cpu time spent up to now is        9.1 secs

     total energy              =    -202.92129790 Ry
     estimated scf accuracy    <       0.00000287 Ry

     iteration #  7     ecut=    30.00 Ry     beta= 0.70
     Davidson diagonalization with overlap

---- Real-time Memory Report at c_bands before calling an iterative solver
           145 MiB given to the printing process from OS
             0 MiB allocation reported by mallinfo(arena+hblkhd)
         50885 MiB available memory on the node where the printing process lives
------------------
     ethr =  7.98E-09,  avg # of iterations =  2.4

     total cpu time spent up to now is       10.4 secs

     End of self-consistent calculation

          k = 0.0000 0.0000 0.0000 (  1789 PWs)   bands (ev):

   -42.1812 -42.1586 -18.9945 -18.6275 -17.2771 -17.0770  -6.7923  -6.3433
    -4.4853  -3.8405  -3.4076  -3.2705  -1.0830  -1.0305  -0.7714  -0.4979
    -0.4440  -0.2945   4.5746   7.3683   8.9012   9.6471  10.4221  10.5043
    11.7655  11.9486  12.7440  12.8267  14.2016  14.4876  14.6599  16.3527
    16.3644  18.0506  18.4939  18.9377  20.2172  21.1511  21.2530  21.3987
    21.8565  22.2086  22.3080  23.2484  23.3030  23.5227  24.3063  24.8310
    25.7222  25.9295  25.9524  26.7983  27.4994  27.5005  28.1087  29.0314
    29.2717  29.9649  31.1468  31.1858  31.8963  32.4336  33.4653  33.5521

     occupation numbers 
     1.0000   1.0000   1.0000   1.0000   1.0000   1.0000   1.0000   1.0000
     1.0000   1.0000   1.0000   1.0000   1.0000   1.0000   1.0000   1.0000
     1.0000   1.0000   0.0000   0.0000   0.0000   0.0000   0.0000   0.0000
     0.0000   0.0000   0.0000   0.0000   0.0000   0.0000   0.0000   0.0000
     0.0000   0.0000   0.0000   0.0000   0.0000   0.0000   0.0000   0.0000
     0.0000   0.0000   0.0000   0.0000   0.0000   0.0000   0.0000   0.0000
     0.0000   0.0000   0.0000   0.0000   0.0000   0.0000   0.0000   0.0000
     0.0000   0.0000   0.0000   0.0000   0.0000   0.0000   0.0000   0.0000

          k = 0.0000 0.0000 0.2004 (  1781 PWs)   bands (ev):

   -42.1810 -42.1584 -18.9551 -18.6496 -17.3362 -17.0525  -6.6330  -6.4057
    -4.3281  -3.7121  -3.3932  -3.2627  -1.1774  -1.0616  -1.0427  -0.7874
    -0.6251  -0.1941   5.3405   6.7502   8.7099   9.5397  10.1588  11.6478
    11.9827  12.5020  12.7915  13.1720  13.8320  14.1678  15.5039  16.0002
    16.3217  17.5216  18.3249  18.5739  19.3883  20.2110  20.5571  20.8512
    21.2346  21.7582  22.4094  22.9728  23.7558  24.2152  25.0934  25.3715
    26.2084  26.2765  26.5854  27.4514  27.4962  28.1273  29.0609  29.4225
    29.7843  30.5330  31.2065  31.7673  32.1034  32.5069  33.1734  33.3242

     occupation numbers 
     1.0000   1.0000   1.0000   1.0000   1.0000   1.0000   1.0000   1.0000
     1.0000   1.0000   1.0000   1.0000   1.0000   1.0000   1.0000   1.0000
     1.0000   1.0000   0.0000   0.0000   0.0000   0.0000   0.0000   0.0000
     0.0000   0.0000   0.0000   0.0000   0.0000   0.0000   0.0000   0.0000
     0.0000   0.0000   0.0000   0.0000   0.0000   0.0000   0.0000   0.0000
     0.0000   0.0000   0.0000   0.0000   0.0000   0.0000   0.0000   0.0000
     0.0000   0.0000   0.0000   0.0000   0.0000   0.0000   0.0000   0.0000
     0.0000   0.0000   0.0000   0.0000   0.0000   0.0000   0.0000   0.0000

          k = 0.0000 0.2010 0.0372 (  1788 PWs)   bands (ev):

   -42.1810 -42.1588 -18.9455 -18.6507 -17.3431 -17.0621  -6.6118  -6.3959
    -4.3215  -3.6812  -3.3910  -3.2784  -1.2166  -1.0639  -1.0418  -0.8246
    -0.6300  -0.2419   5.3625   6.7542   8.6531   9.5460  10.0278  11.7672
    12.1003  12.4788  12.7339  13.2678  13.8139  14.2103  15.5326  15.9624
    16.4393  17.7101  18.3021  18.6567  19.4295  20.1288  20.4191  20.7822
    21.0522  21.9024  22.2350  22.6072  23.6579  23.9349  24.9108  25.6259
    26.0401  26.4505  26.5893  27.0599  27.4840  28.5138  29.1266  29.6288
    29.9353  30.5781  31.5458  31.7462  31.9869  32.8614  32.9938  33.4622

     occupation numbers 
     1.0000   1.0000   1.0000   1.0000   1.0000   1.0000   1.0000   1.0000
     1.0000   1.0000   1.0000   1.0000   1.0000   1.0000   1.0000   1.0000
     1.0000   1.0000   0.0000   0.0000   0.0000   0.0000   0.0000   0.0000
     0.0000   0.0000   0.0000   0.0000   0.0000   0.0000   0.0000   0.0000
     0.0000   0.0000   0.0000   0.0000   0.0000   0.0000   0.0000   0.0000
     0.0000   0.0000   0.0000   0.0000   0.0000   0.0000   0.0000   0.0000
     0.0000   0.0000   0.0000   0.0000   0.0000   0.0000   0.0000   0.0000
     0.0000   0.0000   0.0000   0.0000   0.0000   0.0000   0.0000   0.0000

          k = 0.0000 0.2010 0.2376 (  1780 PWs)   bands (ev):

   -42.1809 -42.1586 -18.9081 -18.6710 -17.3572 -17.0841  -6.5165  -6.3635
    -4.1990  -3.5409  -3.3833  -3.2687  -1.3546  -1.2242  -1.0741  -1.0055
    -0.6680  -0.4237   6.0515   6.6124   8.0025   9.5877  10.1711  12.2101
    12.6006  12.6823  13.0351  13.1269  14.1289  14.5103  15.4394  15.9879
    16.4860  17.0748  17.8738  18.4059  18.7275  19.4082  19.6925  19.9590
    21.0832  21.6451  22.1159  23.2557  23.9949  24.7835  25.2049  25.2891
    25.4645  26.8476  27.1993  27.9701  28.9396  29.1801  29.4610  29.9667
    30.5727  30.9458  31.5742  31.7508  32.7626  33.1496  33.2748  33.4780

     occupation numbers 
     1.0000   1.0000   1.0000   1.0000   1.0000   1.0000   1.0000   1.0000
     1.0000   1.0000   1.0000   1.0000   1.0000   1.0000   1.0000   1.0000
     1.0000   1.0000   0.0000   0.0000   0.0000   0.0000   0.0000   0.0000
     0.0000   0.0000   0.0000   0.0000   0.0000   0.0000   0.0000   0.0000
     0.0000   0.0000   0.0000   0.0000   0.0000   0.0000   0.0000   0.0000
     0.0000   0.0000   0.0000   0.0000   0.0000   0.0000   0.0000   0.0000
     0.0000   0.0000   0.0000   0.0000   0.0000   0.0000   0.0000   0.0000
     0.0000   0.0000   0.0000   0.0000   0.0000   0.0000   0.0000   0.0000

          k = 0.0000 0.2010-0.1632 (  1775 PWs)   bands (ev):

   -42.1806 -42.1585 -18.9155 -18.6664 -17.2993 -17.1408  -6.5960  -6.2458
    -4.2346  -3.5360  -3.3974  -3.2873  -1.3020  -1.0903  -1.0399  -0.9952
    -0.7880  -0.4688   5.7372   7.0065   8.0792   9.2344  10.4293  12.2193
    12.3119  12.9244  12.9364  13.4166  14.2541  14.4773  14.6098  15.5332
    16.5577  17.8267  18.0519  18.3231  18.6612  19.4601  19.6297  20.3705
    22.0461  22.1654  22.3504  22.9386  23.9496  24.1819  24.4544  24.5984
    25.9118  26.8110  27.7771  28.0830  28.2737  28.3525  28.9114  29.7148
    29.9859  31.0121  31.0902  31.6554  32.6312  32.7660  33.3287  33.7739

     occupation numbers 
     1.0000   1.0000   1.0000   1.0000   1.0000   1.0000   1.0000   1.0000
     1.0000   1.0000   1.0000   1.0000   1.0000   1.0000   1.0000   1.0000
     1.0000   1.0000   0.0000   0.0000   0.0000   0.0000   0.0000   0.0000
     0.0000   0.0000   0.0000   0.0000   0.0000   0.0000   0.0000   0.0000
     0.0000   0.0000   0.0000   0.0000   0.0000   0.0000   0.0000   0.0000
     0.0000   0.0000   0.0000   0.0000   0.0000   0.0000   0.0000   0.0000
     0.0000   0.0000   0.0000   0.0000   0.0000   0.0000   0.0000   0.0000
     0.0000   0.0000   0.0000   0.0000   0.0000   0.0000   0.0000   0.0000

          k = 0.3333 0.0888 0.1043 (  1774 PWs)   bands (ev):

   -42.1773 -42.1547 -18.8378 -18.5815 -17.1656 -16.9395  -6.4245  -6.3764
    -4.6912  -4.5878  -4.0759  -3.6254  -1.8564  -1.7909  -0.9232  -0.9110
    -0.4690  -0.4222   7.0998   9.1583   9.5756  10.0602  10.8715  11.3347
    11.5583  12.2616  12.7353  13.0548  13.4990  14.0147  14.4593  14.4939
    16.6295  16.8443  17.0440  17.7822  17.8878  18.3939  20.2066  20.4394
    22.8038  22.9560  23.6136  23.7161  24.4357  25.3115  25.4084  25.8444
    25.9697  26.8770  28.3277  28.4456  28.9753  29.5679  29.6588  30.4922
    30.8236  31.3290  31.7455  32.3136  32.5958  34.0795  34.4002  34.8861

     occupation numbers 
     1.0000   1.0000   1.0000   1.0000   1.0000   1.0000   1.0000   1.0000
     1.0000   1.0000   1.0000   1.0000   1.0000   1.0000   1.0000   1.0000
     1.0000   1.0000   0.0000   0.0000   0.0000   0.0000   0.0000   0.0000
     0.0000   0.0000   0.0000   0.0000   0.0000   0.0000   0.0000   0.0000
     0.0000   0.0000   0.0000   0.0000   0.0000   0.0000   0.0000   0.0000
     0.0000   0.0000   0.0000   0.0000   0.0000   0.0000   0.0000   0.0000
     0.0000   0.0000   0.0000   0.0000   0.0000   0.0000   0.0000   0.0000
     0.0000   0.0000   0.0000   0.0000   0.0000   0.0000   0.0000   0.0000

          k = 0.3333 0.0888 0.3047 (  1763 PWs)   bands (ev):

   -42.1769 -42.1546 -18.8238 -18.5924 -17.1652 -16.9463  -6.4390  -6.3322
    -4.8091  -4.5672  -3.9518  -3.5187  -1.8705  -1.7754  -1.0294  -0.9464
    -0.4986  -0.4005   7.6616   8.2027   9.5601   9.9160  10.8439  11.1723
    11.7661  12.3994  13.1240  13.3621  13.5992  13.8360  14.8200  15.1707
    16.0314  16.2631  16.9639  17.7037  18.5145  18.8551  19.1366  20.4249
    21.9833  22.7901  23.1643  24.1102  24.6952  24.9310  25.9625  26.4449
    27.1140  27.5295  28.1897  28.3020  28.9407  29.3252  29.8138  30.0769
    30.7111  31.3576  31.7531  31.9005  33.0279  33.2330  33.8860  34.4184

     occupation numbers 
     1.0000   1.0000   1.0000   1.0000   1.0000   1.0000   1.0000   1.0000
     1.0000   1.0000   1.0000   1.0000   1.0000   1.0000   1.0000   1.0000
     1.0000   1.0000   0.0000   0.0000   0.0000   0.0000   0.0000   0.0000
     0.0000   0.0000   0.0000   0.0000   0.0000   0.0000   0.0000   0.0000
     0.0000   0.0000   0.0000   0.0000   0.0000   0.0000   0.0000   0.0000
     0.0000   0.0000   0.0000   0.0000   0.0000   0.0000   0.0000   0.0000
     0.0000   0.0000   0.0000   0.0000   0.0000   0.0000   0.0000   0.0000
     0.0000   0.0000   0.0000   0.0000   0.0000   0.0000   0.0000   0.0000

          k = 0.3333 0.0888-0.0961 (  1770 PWs)   bands (ev):

   -42.1768 -42.1550 -18.8515 -18.5813 -17.1220 -16.9590  -6.5236  -6.3759
    -4.8245  -4.5503  -4.0322  -3.6337  -1.8473  -1.8167  -0.8519  -0.6510
    -0.4724  -0.2956   7.0381   8.9627   9.4785   9.9500  10.3483  10.7220
    11.5386  12.2888  12.7408  13.0749  13.6582  13.9720  14.5986  15.5216
    16.4759  16.6276  17.5936  17.9487  18.6177  18.8028  20.2013  20.2843
    21.8174  22.9684  23.1263  24.0088  24.4756  24.9489  25.4215  25.6882
    27.1220  27.3838  27.8360  28.1900  28.6535  29.3539  29.6355  29.7977
    31.0254  31.1603  31.8983  32.3488  33.1443  33.7608  34.1609  34.3653

     occupation numbers 
     1.0000   1.0000   1.0000   1.0000   1.0000   1.0000   1.0000   1.0000
     1.0000   1.0000   1.0000   1.0000   1.0000   1.0000   1.0000   1.0000
     1.0000   1.0000   0.0000   0.0000   0.0000   0.0000   0.0000   0.0000
     0.0000   0.0000   0.0000   0.0000   0.0000   0.0000   0.0000   0.0000
     0.0000   0.0000   0.0000   0.0000   0.0000   0.0000   0.0000   0.0000
     0.0000   0.0000   0.0000   0.0000   0.0000   0.0000   0.0000   0.0000
     0.0000   0.0000   0.0000   0.0000   0.0000   0.0000   0.0000   0.0000
     0.0000   0.0000   0.0000   0.0000   0.0000   0.0000   0.0000   0.0000

          k = 0.3333 0.2898 0.1415 (  1766 PWs)   bands (ev):

   -42.1766 -42.1550 -18.8194 -18.5952 -17.1664 -16.9492  -6.4507  -6.3185
    -4.8110  -4.5928  -3.9253  -3.4918  -1.8884  -1.7752  -1.0555  -0.9334
    -0.5009  -0.4058   7.7225   8.1597   9.5525   9.8477  10.9088  11.1830
    11.8034  12.1954  13.0676  13.2593  13.7269  13.9882  14.8026  15.1887
    15.9790  16.3410  17.0198  17.6408  18.6016  18.8738  19.1686  20.2816
    22.1014  22.3860  23.4542  24.0198  24.5577  25.2358  25.9812  26.5217
    26.8905  27.4722  27.9242  28.1535  28.9918  29.3402  29.8440  30.2780
    30.6253  31.4546  31.7044  32.3827  33.1297  33.6467  33.9777  34.2812

     occupation numbers 
     1.0000   1.0000   1.0000   1.0000   1.0000   1.0000   1.0000   1.0000
     1.0000   1.0000   1.0000   1.0000   1.0000   1.0000   1.0000   1.0000
     1.0000   1.0000   0.0000   0.0000   0.0000   0.0000   0.0000   0.0000
     0.0000   0.0000   0.0000   0.0000   0.0000   0.0000   0.0000   0.0000
     0.0000   0.0000   0.0000   0.0000   0.0000   0.0000   0.0000   0.0000
     0.0000   0.0000   0.0000   0.0000   0.0000   0.0000   0.0000   0.0000
     0.0000   0.0000   0.0000   0.0000   0.0000   0.0000   0.0000   0.0000
     0.0000   0.0000   0.0000   0.0000   0.0000   0.0000   0.0000   0.0000

          k = 0.3333 0.2898 0.3419 (  1761 PWs)   bands (ev):

   -42.1766 -42.1549 -18.8081 -18.6045 -17.1330 -16.9891  -6.5304  -6.2407
    -4.8733  -4.5371  -3.7844  -3.5031  -1.8894  -1.8143  -1.0752  -0.8749
    -0.6073  -0.4130   8.2517   8.5362   8.6313   8.9215  10.8434  11.1556
    12.4247  12.6764  13.0424  13.4699  14.1927  14.2574  14.4074  15.4960
    15.9121  16.1451  16.6138  17.2677  18.4825  19.0943  20.0825  20.6089
    21.3125  21.9678  22.6693  23.6640  24.3192  25.1319  25.7358  26.8876
    27.2889  27.5373  28.5655  28.5746  29.6865  29.8911  30.1022  30.7613
    31.3729  31.7434  31.9143  32.1138  32.4297  33.5628  33.8068  34.4604

     occupation numbers 
     1.0000   1.0000   1.0000   1.0000   1.0000   1.0000   1.0000   1.0000
     1.0000   1.0000   1.0000   1.0000   1.0000   1.0000   1.0000   1.0000
     1.0000   1.0000   0.0000   0.0000   0.0000   0.0000   0.0000   0.0000
     0.0000   0.0000   0.0000   0.0000   0.0000   0.0000   0.0000   0.0000
     0.0000   0.0000   0.0000   0.0000   0.0000   0.0000   0.0000   0.0000
     0.0000   0.0000   0.0000   0.0000   0.0000   0.0000   0.0000   0.0000
     0.0000   0.0000   0.0000   0.0000   0.0000   0.0000   0.0000   0.0000
     0.0000   0.0000   0.0000   0.0000   0.0000   0.0000   0.0000   0.0000

          k = 0.3333 0.2898-0.0589 (  1771 PWs)   bands (ev):

   -42.1767 -42.1553 -18.8308 -18.5964 -17.1697 -16.9217  -6.5322  -6.3384
    -5.0234  -4.5230  -3.8133  -3.5159  -1.8571  -1.7908  -1.0800  -0.7240
    -0.5132  -0.1993   7.6293   8.0414   9.1429   9.2425  10.6159  11.4269
    12.1358  12.6183  12.9480  13.1118  13.7290  14.2739  14.4142  15.2134
    15.6154  16.5728  17.7110  17.8425  18.9106  19.3000  19.4127  20.5134
    21.8168  22.3588  23.2586  24.1315  24.3357  24.9336  25.7350  26.1880
    27.0573  27.2093  27.9791  28.0638  28.3726  29.7374  30.0929  30.2955
    30.8299  31.1850  31.7903  32.4109  32.6225  33.3922  33.4489  34.8049

     occupation numbers 
     1.0000   1.0000   1.0000   1.0000   1.0000   1.0000   1.0000   1.0000
     1.0000   1.0000   1.0000   1.0000   1.0000   1.0000   1.0000   1.0000
     1.0000   1.0000   0.0000   0.0000   0.0000   0.0000   0.0000   0.0000
     0.0000   0.0000   0.0000   0.0000   0.0000   0.0000   0.0000   0.0000
     0.0000   0.0000   0.0000   0.0000   0.0000   0.0000   0.0000   0.0000
     0.0000   0.0000   0.0000   0.0000   0.0000   0.0000   0.0000   0.0000
     0.0000   0.0000   0.0000   0.0000   0.0000   0.0000   0.0000   0.0000
     0.0000   0.0000   0.0000   0.0000   0.0000   0.0000   0.0000   0.0000

          k = 0.3333-0.1122 0.0671 (  1779 PWs)   bands (ev):

   -42.1772 -42.1551 -18.8528 -18.5854 -17.1178 -16.9549  -6.5598  -6.3824
    -4.8360  -4.5794  -4.0063  -3.5925  -1.8491  -1.8171  -0.8517  -0.6899
    -0.4552  -0.2751   7.0300   9.0198   9.4623   9.9924  10.3182  10.7587
    11.3794  12.2427  12.6974  13.1302  13.6011  13.9537  14.7069  15.3380
    16.3434  16.7597  17.7062  17.9001  18.5942  18.9377  20.0420  20.3720
    21.8858  23.1053  23.2394  23.8993  24.4998  24.8274  25.5006  25.7943
    27.0012  27.5113  27.7583  27.9911  28.8537  29.2853  29.5917  30.0453
    30.9709  31.1163  31.6470  32.4736  33.0658  33.7827  34.1221  34.5343

     occupation numbers 
     1.0000   1.0000   1.0000   1.0000   1.0000   1.0000   1.0000   1.0000
     1.0000   1.0000   1.0000   1.0000   1.0000   1.0000   1.0000   1.0000
     1.0000   1.0000   0.0000   0.0000   0.0000   0.0000   0.0000   0.0000
     0.0000   0.0000   0.0000   0.0000   0.0000   0.0000   0.0000   0.0000
     0.0000   0.0000   0.0000   0.0000   0.0000   0.0000   0.0000   0.0000
     0.0000   0.0000   0.0000   0.0000   0.0000   0.0000   0.0000   0.0000
     0.0000   0.0000   0.0000   0.0000   0.0000   0.0000   0.0000   0.0000
     0.0000   0.0000   0.0000   0.0000   0.0000   0.0000   0.0000   0.0000

          k = 0.3333-0.1122 0.2674 (  1772 PWs)   bands (ev):

   -42.1769 -42.1551 -18.8360 -18.5978 -17.1642 -16.9152  -6.5453  -6.3635
    -5.0309  -4.5122  -3.8280  -3.5017  -1.8530  -1.7870  -1.0622  -0.7342
    -0.4926  -0.1742   7.5594   8.0662   9.2344   9.3050  10.5299  11.3960
    12.2398  12.5832  12.9079  13.0226  13.7674  14.3157  14.3657  15.1019
    15.5928  16.3752  17.8125  18.0365  18.8006  19.1032  19.4634  20.6525
    22.0723  22.5340  23.5182  23.8995  24.2831  24.8608  25.6299  26.5093
    26.9075  27.0170  27.9233  28.3000  28.4424  29.7774  29.9043  30.3265
    30.7049  31.2585  31.7867  32.2830  32.5019  33.3147  33.6708  34.6690

     occupation numbers 
     1.0000   1.0000   1.0000   1.0000   1.0000   1.0000   1.0000   1.0000
     1.0000   1.0000   1.0000   1.0000   1.0000   1.0000   1.0000   1.0000
     1.0000   1.0000   0.0000   0.0000   0.0000   0.0000   0.0000   0.0000
     0.0000   0.0000   0.0000   0.0000   0.0000   0.0000   0.0000   0.0000
     0.0000   0.0000   0.0000   0.0000   0.0000   0.0000   0.0000   0.0000
     0.0000   0.0000   0.0000   0.0000   0.0000   0.0000   0.0000   0.0000
     0.0000   0.0000   0.0000   0.0000   0.0000   0.0000   0.0000   0.0000
     0.0000   0.0000   0.0000   0.0000   0.0000   0.0000   0.0000   0.0000

          k = 0.3333-0.1122-0.1333 (  1769 PWs)   bands (ev):

   -42.1769 -42.1550 -18.8627 -18.5856 -17.1514 -16.8982  -6.5094  -6.4849
    -5.1549  -4.4739  -3.7238  -3.7032  -1.8592  -1.7784  -0.8435  -0.5777
    -0.3388  -0.1442   6.8881   8.7552   8.9099   9.6352  10.6535  11.2055
    11.8123  12.0843  12.1739  12.8865  12.9967  14.6065  15.0750  15.6835
    15.8356  17.4067  17.7893  17.9653  18.9294  18.9945  20.3409  20.6274
    21.9701  22.6568  23.2328  23.7102  24.3578  24.7007  25.0879  25.7270
    27.1290  27.5186  27.9422  28.1622  28.2868  29.3785  29.7566  29.8425
    30.3511  30.9300  31.7135  32.1553  32.9909  33.3022  34.2413  34.5427

     occupation numbers 
     1.0000   1.0000   1.0000   1.0000   1.0000   1.0000   1.0000   1.0000
     1.0000   1.0000   1.0000   1.0000   1.0000   1.0000   1.0000   1.0000
     1.0000   1.0000   0.0000   0.0000   0.0000   0.0000   0.0000   0.0000
     0.0000   0.0000   0.0000   0.0000   0.0000   0.0000   0.0000   0.0000
     0.0000   0.0000   0.0000   0.0000   0.0000   0.0000   0.0000   0.0000
     0.0000   0.0000   0.0000   0.0000   0.0000   0.0000   0.0000   0.0000
     0.0000   0.0000   0.0000   0.0000   0.0000   0.0000   0.0000   0.0000
     0.0000   0.0000   0.0000   0.0000   0.0000   0.0000   0.0000   0.0000

     highest occupied, lowest unoccupied level (ev):    -0.1442    4.5746

!    total energy              =    -202.92129916 Ry
     estimated scf accuracy    <       0.00000014 Ry

     The total energy is the sum of the following terms:
     one-electron contribution =     -88.41476995 Ry
     hartree contribution      =      56.31872560 Ry
     xc contribution           =     -41.13521362 Ry
     ewald contribution        =     -91.64156313 Ry
     one-center paw contrib.   =     -38.04847805 Ry
      -> PAW hartree energy AE =       0.00000000 Ry
      -> PAW hartree energy PS =       0.00000000 Ry
      -> PAW xc energy AE      =       0.00000000 Ry
      -> PAW xc energy PS      =       0.00000000 Ry
      -> total E_H with PAW    =      56.31872560 Ry
      -> total E_XC with PAW   =     -41.13521362 Ry

     convergence has been achieved in   7 iterations

     Writing all to output data dir calculations_bands/myprefix.save/
 
     init_run     :      7.17s CPU      2.30s WALL (       1 calls)
     electrons    :     27.46s CPU      8.01s WALL (       1 calls)

     Called by init_run:
     wfcinit      :      2.54s CPU      0.92s WALL (       1 calls)
     wfcinit:atom :      0.00s CPU      0.00s WALL (       7 calls)
     wfcinit:wfcr :      2.52s CPU      0.91s WALL (       7 calls)
     potinit      :      1.92s CPU      0.50s WALL (       1 calls)
     hinit0       :      2.21s CPU      0.73s WALL (       1 calls)

     Called by electrons:
     c_bands      :     22.69s CPU      6.66s WALL (       7 calls)
     sum_band     :      3.34s CPU      0.94s WALL (       7 calls)
     v_of_rho     :      0.30s CPU      0.09s WALL (       8 calls)
     v_h          :      0.02s CPU      0.00s WALL (       8 calls)
     v_xc         :      0.28s CPU      0.08s WALL (       8 calls)
     newd         :      0.46s CPU      0.14s WALL (       8 calls)
     PAW_pot      :      0.62s CPU      0.17s WALL (       8 calls)
     mix_rho      :      0.08s CPU      0.02s WALL (       7 calls)

     Called by c_bands:
     init_us_2    :      0.06s CPU      0.02s WALL (     105 calls)
     init_us_2:cp :      0.05s CPU      0.02s WALL (     105 calls)
     cegterg      :     20.02s CPU      5.88s WALL (      49 calls)

     Called by sum_band:
     sum_band:wei :      0.01s CPU      0.00s WALL (       7 calls)
     sum_band:loo :      2.53s CPU      0.71s WALL (       7 calls)
     sum_band:buf :      0.02s CPU      0.01s WALL (      49 calls)
     sum_band:ini :      0.02s CPU      0.01s WALL (      49 calls)
     sum_band:cal :      0.07s CPU      0.02s WALL (      49 calls)
     sum_band:bec :      0.02s CPU      0.01s WALL (      49 calls)
     addusdens    :      0.12s CPU      0.04s WALL (       7 calls)
     addusd:skk   :      0.00s CPU      0.00s WALL (      21 calls)
     addusd:dgemm :      0.02s CPU      0.01s WALL (      21 calls)
     addusd:qvan2 :      0.06s CPU      0.02s WALL (      21 calls)

     Called by *egterg:
     cdiaghg      :      3.82s CPU      1.12s WALL (     226 calls)
     cegterg:over :      1.60s CPU      0.48s WALL (     177 calls)
     cegterg:upda :      0.32s CPU      0.10s WALL (     177 calls)
     cegterg:last :      0.68s CPU      0.20s WALL (     106 calls)
     cdiaghg:chol :      0.34s CPU      0.10s WALL (     226 calls)
     cdiaghg:inve :      0.04s CPU      0.01s WALL (     226 calls)
     cdiaghg:para :      0.93s CPU      0.29s WALL (     452 calls)
     h_psi        :     15.16s CPU      4.57s WALL (     233 calls)
     s_psi        :      0.07s CPU      0.02s WALL (     233 calls)
     g_psi        :      0.02s CPU      0.00s WALL (     177 calls)

     Called by h_psi:
     h_psi:calbec :      0.43s CPU      0.13s WALL (     233 calls)
     vloc_psi     :     14.56s CPU      4.39s WALL (     233 calls)
     add_vuspsi   :      0.13s CPU      0.04s WALL (     233 calls)

     General routines
     calbec       :      0.50s CPU      0.14s WALL (     282 calls)
     fft          :      1.28s CPU      0.34s WALL (     102 calls)
     ffts         :      1.03s CPU      0.27s WALL (      15 calls)
     fftw         :     15.01s CPU      4.44s WALL (   19344 calls)
     interpolate  :      1.03s CPU      0.27s WALL (       8 calls)
 
     Parallel routines

     PAW routines
     PAW_pot      :      0.62s CPU      0.17s WALL (       8 calls)
     PAW_symme    :      0.51s CPU      0.14s WALL (      15 calls)
 
     PWSCF        :     36.01s CPU     11.02s WALL

 
   This run was terminated on:  17: 8:22   6Jun2023            

=------------------------------------------------------------------------------=
   JOB DONE.
=------------------------------------------------------------------------------=
