
     Program PWSCF v.7.1 starts on 15Jul2023 at 18:45:34 

     This program is part of the open-source Quantum ESPRESSO suite
     for quantum simulation of materials; please cite
         "P. Giannozzi et al., J. Phys.:Condens. Matter 21 395502 (2009);
         "P. Giannozzi et al., J. Phys.:Condens. Matter 29 465901 (2017);
         "P. Giannozzi et al., J. Chem. Phys. 152 154105 (2020);
          URL http://www.quantum-espresso.org", 
     in publications or presentations arising from this work. More details at
     http://www.quantum-espresso.org/quote

     Parallel version (MPI & OpenMP), running on      32 processor cores
     Number of MPI processes:                 8
     Threads/MPI process:                     4

     MPI processes distributed on     1 nodes
     244581 MiB available memory on the printing compute node when the environment starts
 
     Reading input from espresso_23050.pwi
Warning: card &CELL ignored
Warning: card / ignored

     Current dimensions of program PWSCF are:
     Max number of different atomic species (ntypx) = 10
     Max number of k-points (npk) =  40000
     Max angular momentum in pseudopotentials (lmaxx) =  4
     Message from routine setup:
     using ibrav=0 with symmetry is DISCOURAGED, use correct ibrav instead
 
     K-points division:     npool     =       2
     R & G space division:  proc/nbgrp/npool/nimage =       4
     Subspace diagonalization in iterative solution of the eigenvalue problem:
     one sub-group per band group will be used
     scalapack distributed-memory algorithm (size of sub-group:  2*  2 procs)

 
     Parallelization info
     --------------------
     sticks:   dense  smooth     PW     G-vecs:    dense   smooth      PW
     Min         812     406    112                66642    23536    3453
     Max         814     407    113                66644    23543    3455
     Sum        3253    1627    451               266571    94161   13817
 
     Using Slab Decomposition
 


     bravais-lattice index     =            0
     lattice parameter (alat)  =      13.9913  a.u.
     unit-cell volume          =    4243.2701 (a.u.)^3
     number of atoms/cell      =           20
     number of atomic types    =            3
     number of electrons       =       160.00
     number of Kohn-Sham states=          256
     kinetic-energy cutoff     =      30.0000  Ry
     charge density cutoff     =     240.0000  Ry
     scf convergence threshold =      1.0E-06
     mixing beta               =       0.7000
     number of iterations used =            8  plain     mixing
     Exchange-correlation=  SLA  PW   PBX  PBC
                           (   1   4   3   4   0   0   0)

     celldm(1)=  13.991331  celldm(2)=   0.000000  celldm(3)=   0.000000
     celldm(4)=   0.000000  celldm(5)=   0.000000  celldm(6)=   0.000000

     crystal axes: (cart. coord. in units of alat)
               a(1) = (   1.000000   0.000000   0.000000 )  
               a(2) = (  -0.500000   0.866025   0.000000 )  
               a(3) = (   0.000000   0.000000   1.788928 )  

     reciprocal axes: (cart. coord. in units 2 pi/alat)
               b(1) = (  1.000000  0.577350  0.000000 )  
               b(2) = (  0.000000  1.154701  0.000000 )  
               b(3) = (  0.000000  0.000000  0.558994 )  


     PseudoPot. # 1 for Na read from file:
     /lustre07/scratch/pragov/crystal_structure_design/utils/SSSP/na_pbe_v1.5.uspp.F.UPF
     MD5 check sum: 44600605ef58000f06b90626533354dc
     Pseudo is Ultrasoft, Zval =  9.0
     Generated by new atomic code, or converted to UPF format
     Using radial grid of  819 points,  5 beta functions with: 
                l(1) =   0
                l(2) =   0
                l(3) =   1
                l(4) =   1
                l(5) =   2
     Q(r) pseudized with  8 coefficients,  rinner =    1.250   1.250   1.250
                                                       1.250   1.250

     PseudoPot. # 2 for Sc read from file:
     /lustre07/scratch/pragov/crystal_structure_design/utils/SSSP/Sc_ONCV_PBE-1.0.oncvpsp.upf
     MD5 check sum: e21af8023abb52e52cb7cd3133e4a229
     Pseudo is Norm-conserving, Zval = 11.0
     Generated using ONCVPSP code by D. R. Hamann
     Using radial grid of 1662 points,  6 beta functions with: 
                l(1) =   0
                l(2) =   0
                l(3) =   1
                l(4) =   1
                l(5) =   2
                l(6) =   2

     PseudoPot. # 3 for Br read from file:
     /lustre07/scratch/pragov/crystal_structure_design/utils/SSSP/br_pbe_v1.4.uspp.F.UPF
     MD5 check sum: d3ffb7b29f6225aa16fe06858fb2a80b
     Pseudo is Ultrasoft + core correction, Zval =  7.0
     Generated by new atomic code, or converted to UPF format
     Using radial grid of  879 points,  6 beta functions with: 
                l(1) =   0
                l(2) =   0
                l(3) =   1
                l(4) =   1
                l(5) =   2
                l(6) =   2
     Q(r) pseudized with  8 coefficients,  rinner =    1.100   1.100   1.100
                                                       1.100   1.100

     atomic species   valence    mass     pseudopotential
        Na             9.00    22.98977     Na( 1.00)
        Sc            11.00    44.95591     Sc( 1.00)
        Br             7.00    79.90400     Br( 1.00)

     12 Sym. Ops., with inversion, found ( 6 have fractional translation)


                                    s                        frac. trans.

      isym =  1     identity                                     

 cryst.   s( 1) = (     1          0          0      )
                  (     0          1          0      )
                  (     0          0          1      )

 cart.    s( 1) = (  1.0000000 -0.0000000  0.0000000 )
                  (  0.0000000  1.0000000  0.0000000 )
                  (  0.0000000  0.0000000  1.0000000 )


      isym =  2     180 deg rotation - cart. axis [0,1,0]        

 cryst.   s( 2) = (    -1          0          0      )    f =( -0.0000010 )
                  (     1          1          0      )       (  0.0000000 )
                  (     0          0         -1      )       ( -0.5000000 )

 cart.    s( 2) = ( -1.0000000  0.0000001  0.0000000 )    f =( -0.0000010 )
                  (  0.0000000  1.0000000  0.0000000 )       (  0.0000000 )
                  (  0.0000000  0.0000000 -1.0000000 )       ( -0.8944641 )


      isym =  3     120 deg rotation - cryst. axis [0,0,1]       

 cryst.   s( 3) = (     0          1          0      )
                  (    -1         -1          0      )
                  (     0          0          1      )

 cart.    s( 3) = ( -0.5000000 -0.8660254  0.0000000 )
                  (  0.8660254 -0.5000000  0.0000000 )
                  (  0.0000000  0.0000000  1.0000000 )


      isym =  4     120 deg rotation - cryst. axis [0,0,-1]      

 cryst.   s( 4) = (    -1         -1          0      )
                  (     1          0          0      )
                  (     0          0          1      )

 cart.    s( 4) = ( -0.5000000  0.8660254  0.0000000 )
                  ( -0.8660254 -0.5000000  0.0000000 )
                  (  0.0000000  0.0000000  1.0000000 )


      isym =  5     180 deg rotation - cryst. axis [1,-1,0]      

 cryst.   s( 5) = (     0         -1          0      )    f =(  0.0000000 )
                  (    -1          0          0      )       (  0.0000000 )
                  (     0          0         -1      )       ( -0.5000000 )

 cart.    s( 5) = (  0.5000000 -0.8660254  0.0000000 )    f =(  0.0000000 )
                  ( -0.8660254 -0.5000000  0.0000000 )       (  0.0000000 )
                  (  0.0000000  0.0000000 -1.0000000 )       ( -0.8944641 )


      isym =  6     180 deg rotation - cryst. axis [2,1,0]       

 cryst.   s( 6) = (     1          1          0      )    f =(  0.0000000 )
                  (     0         -1          0      )       (  0.0000010 )
                  (     0          0         -1      )       ( -0.5000000 )

 cart.    s( 6) = (  0.5000000  0.8660253  0.0000000 )    f =( -0.0000005 )
                  (  0.8660254 -0.5000000  0.0000000 )       (  0.0000009 )
                  (  0.0000000  0.0000000 -1.0000000 )       ( -0.8944641 )


      isym =  7     inversion                                    

 cryst.   s( 7) = (    -1          0          0      )
                  (     0         -1          0      )
                  (     0          0         -1      )

 cart.    s( 7) = ( -1.0000000  0.0000000  0.0000000 )
                  (  0.0000000 -1.0000000  0.0000000 )
                  (  0.0000000  0.0000000 -1.0000000 )


      isym =  8     inv. 180 deg rotation - cart. axis [0,1,0]   

 cryst.   s( 8) = (     1          0          0      )    f =( -0.0000010 )
                  (    -1         -1          0      )       ( -0.0000000 )
                  (     0          0          1      )       ( -0.5000000 )

 cart.    s( 8) = (  1.0000000 -0.0000001  0.0000000 )    f =( -0.0000010 )
                  (  0.0000000 -1.0000000  0.0000000 )       ( -0.0000000 )
                  (  0.0000000  0.0000000  1.0000000 )       ( -0.8944641 )


      isym =  9     inv. 120 deg rotation - cryst. axis [0,0,1]  

 cryst.   s( 9) = (     0         -1          0      )
                  (     1          1          0      )
                  (     0          0         -1      )

 cart.    s( 9) = (  0.5000000  0.8660254  0.0000000 )
                  ( -0.8660254  0.5000000  0.0000000 )
                  (  0.0000000  0.0000000 -1.0000000 )


      isym = 10     inv. 120 deg rotation - cryst. axis [0,0,-1] 

 cryst.   s(10) = (     1          1          0      )
                  (    -1          0          0      )
                  (     0          0         -1      )

 cart.    s(10) = (  0.5000000 -0.8660254  0.0000000 )
                  (  0.8660254  0.5000000  0.0000000 )
                  (  0.0000000  0.0000000 -1.0000000 )


      isym = 11     inv. 180 deg rotation - cryst. axis [1,-1,0] 

 cryst.   s(11) = (     0          1          0      )    f =(  0.0000000 )
                  (     1          0          0      )       (  0.0000000 )
                  (     0          0          1      )       ( -0.5000000 )

 cart.    s(11) = ( -0.5000000  0.8660254  0.0000000 )    f =(  0.0000000 )
                  (  0.8660254  0.5000000  0.0000000 )       (  0.0000000 )
                  (  0.0000000  0.0000000  1.0000000 )       ( -0.8944641 )


      isym = 12     inv. 180 deg rotation - cryst. axis [2,1,0]  

 cryst.   s(12) = (    -1         -1          0      )    f =( -0.0000000 )
                  (     0          1          0      )       (  0.0000010 )
                  (     0          0          1      )       ( -0.5000000 )

 cart.    s(12) = ( -0.5000000 -0.8660253  0.0000000 )    f =( -0.0000005 )
                  ( -0.8660254  0.5000000  0.0000000 )       (  0.0000009 )
                  (  0.0000000  0.0000000  1.0000000 )       ( -0.8944641 )


   Cartesian axes

     site n.     atom                  positions (alat units)
         1           Na  tau(   1) = (   0.5000005   0.2886749   0.8257388  )
         2           Na  tau(   2) = (   0.5000005   0.2886749   0.0687253  )
         3           Na  tau(   3) = (  -0.0000005   0.5773506   0.9631893  )
         4           Na  tau(   4) = (  -0.0000005   0.5773506   1.7202029  )
         5           Na  tau(   5) = (   0.0000000   0.0000000   1.3416961  )
         6           Na  tau(   6) = (   0.0000000   0.0000000   0.4472320  )
         7           Sc  tau(   7) = (   0.5000005   0.2886749   1.3416961  )
         8           Sc  tau(   8) = (  -0.0000005   0.5773506   0.4472320  )
         9           Br  tau(   9) = (   0.2083820   0.2765999   1.5554033  )
        10           Br  tau(  10) = (   0.7916180   0.2765999   1.1279890  )
        11           Br  tau(  11) = (   0.3437335   0.0421642   1.1279890  )
        12           Br  tau(  12) = (   0.3646485   0.5472614   1.1279890  )
        13           Br  tau(  13) = (   0.6353515   0.5472614   1.5554033  )
        14           Br  tau(  14) = (   0.6562665   0.0421642   1.5554033  )
        15           Br  tau(  15) = (   0.1353515   0.3187640   0.6609392  )
        16           Br  tau(  16) = (   0.1562665   0.8238612   0.6609392  )
        17           Br  tau(  17) = (  -0.2916180   0.5894256   0.6609392  )
        18           Br  tau(  18) = (   0.2916180   0.5894256   0.2335249  )
        19           Br  tau(  19) = (  -0.1353515   0.3187640   0.2335249  )
        20           Br  tau(  20) = (  -0.1562665   0.8238612   0.2335249  )

   Crystallographic axes

     site n.     atom                  positions (cryst. coord.)
         1           Na  tau(   1) = (  0.6666670  0.3333330  0.4615830  )
         2           Na  tau(   2) = (  0.6666670  0.3333330  0.0384170  )
         3           Na  tau(   3) = (  0.3333330  0.6666670  0.5384170  )
         4           Na  tau(   4) = (  0.3333330  0.6666670  0.9615830  )
         5           Na  tau(   5) = (  0.0000000  0.0000000  0.7500000  )
         6           Na  tau(   6) = (  0.0000000  0.0000000  0.2500000  )
         7           Sc  tau(   7) = (  0.6666670  0.3333330  0.7500000  )
         8           Sc  tau(   8) = (  0.3333330  0.6666670  0.2500000  )
         9           Br  tau(   9) = (  0.3680770  0.3193900  0.8694610  )
        10           Br  tau(  10) = (  0.9513130  0.3193900  0.6305390  )
        11           Br  tau(  11) = (  0.3680770  0.0486870  0.6305390  )
        12           Br  tau(  12) = (  0.6806100  0.6319230  0.6305390  )
        13           Br  tau(  13) = (  0.9513130  0.6319230  0.8694610  )
        14           Br  tau(  14) = (  0.6806100  0.0486870  0.8694610  )
        15           Br  tau(  15) = (  0.3193900  0.3680770  0.3694610  )
        16           Br  tau(  16) = (  0.6319230  0.9513130  0.3694610  )
        17           Br  tau(  17) = (  0.0486870  0.6806100  0.3694610  )
        18           Br  tau(  18) = (  0.6319230  0.6806100  0.1305390  )
        19           Br  tau(  19) = (  0.0486870  0.3680770  0.1305390  )
        20           Br  tau(  20) = (  0.3193900  0.9513130  0.1305390  )

     number of k points=     7
                       cart. coord. in units 2pi/alat
        k(    1) = (   0.0000000   0.0000000   0.0000000), wk =   0.0740741
        k(    2) = (   0.0000000   0.0000000   0.1863313), wk =   0.1481481
        k(    3) = (   0.0000000   0.3849002   0.0000000), wk =   0.4444444
        k(    4) = (   0.0000000   0.3849002   0.1863313), wk =   0.8888889
        k(    5) = (   0.3333333   0.5773502   0.0000000), wk =   0.1481481
        k(    6) = (   0.3333333   0.5773502   0.1863313), wk =   0.1481481
        k(    7) = (  -0.3333333  -0.5773502   0.1863313), wk =   0.1481481

                       cryst. coord.
        k(    1) = (   0.0000000   0.0000000   0.0000000), wk =   0.0740741
        k(    2) = (   0.0000000   0.0000000   0.3333333), wk =   0.1481481
        k(    3) = (   0.0000000   0.3333333   0.0000000), wk =   0.4444444
        k(    4) = (   0.0000000   0.3333333   0.3333333), wk =   0.8888889
        k(    5) = (   0.3333333   0.3333333   0.0000000), wk =   0.1481481
        k(    6) = (   0.3333333   0.3333333   0.3333333), wk =   0.1481481
        k(    7) = (  -0.3333333  -0.3333333   0.3333333), wk =   0.1481481

     Dense  grid:   266571 G-vectors     FFT dimensions: (  72,  72, 128)

     Smooth grid:    94161 G-vectors     FFT dimensions: (  50,  50,  90)

     Dynamical RAM for                 wfc:      11.50 MB

     Dynamical RAM for     wfc (w. buffer):      57.48 MB

     Dynamical RAM for           str. fact:       3.05 MB

     Dynamical RAM for           local pot:       0.00 MB

     Dynamical RAM for          nlocal pot:      14.82 MB

     Dynamical RAM for                qrad:       3.73 MB

     Dynamical RAM for          rho,v,vnew:       6.85 MB

     Dynamical RAM for               rhoin:       2.28 MB

     Dynamical RAM for            rho*nmix:      16.27 MB

     Dynamical RAM for           G-vectors:       3.99 MB

     Dynamical RAM for          h,s,v(r/c):       3.00 MB

     Dynamical RAM for          <psi|beta>:       1.29 MB

     Dynamical RAM for                 psi:      22.99 MB

     Dynamical RAM for                hpsi:      22.99 MB

     Dynamical RAM for                spsi:      22.99 MB

     Dynamical RAM for      wfcinit/wfcrot:      24.49 MB

     Dynamical RAM for           addusdens:     101.18 MB

     Estimated static dynamical RAM per process >     102.60 MB

     Estimated max dynamical RAM per process >     220.05 MB

     Estimated total dynamical RAM >       1.66 GB

     Check: negative core charge=   -0.000001

     Initial potential from superposition of free atoms

     starting charge     159.9567, renormalised to     160.0000
     Starting wfcs are   98 randomized atomic wfcs +  158 random wfcs

     total cpu time spent up to now is        2.7 secs

     Self-consistent Calculation

     iteration #  1     ecut=    30.00 Ry     beta= 0.70
     Davidson diagonalization with overlap

---- Real-time Memory Report at c_bands before calling an iterative solver
           339 MiB given to the printing process from OS
             0 MiB allocation reported by mallinfo(arena+hblkhd)
        243369 MiB available memory on the node where the printing process lives
------------------
     ethr =  1.00E-02,  avg # of iterations =  7.1

     Threshold (ethr) on eigenvalues was too large:
     Diagonalizing with lowered threshold

     Davidson diagonalization with overlap

---- Real-time Memory Report at c_bands before calling an iterative solver
           448 MiB given to the printing process from OS
             0 MiB allocation reported by mallinfo(arena+hblkhd)
        243315 MiB available memory on the node where the printing process lives
------------------
     ethr =  2.96E-04,  avg # of iterations =  4.0

     total cpu time spent up to now is       24.9 secs

     total energy              =   -1320.16527861 Ry
     estimated scf accuracy    <       0.47159769 Ry

     iteration #  2     ecut=    30.00 Ry     beta= 0.70
     Davidson diagonalization with overlap

---- Real-time Memory Report at c_bands before calling an iterative solver
           470 MiB given to the printing process from OS
             0 MiB allocation reported by mallinfo(arena+hblkhd)
        243176 MiB available memory on the node where the printing process lives
------------------
     ethr =  2.95E-04,  avg # of iterations =  2.0

     total cpu time spent up to now is       31.6 secs

     total energy              =   -1320.13253274 Ry
     estimated scf accuracy    <       0.61970155 Ry

     iteration #  3     ecut=    30.00 Ry     beta= 0.70
     Davidson diagonalization with overlap

---- Real-time Memory Report at c_bands before calling an iterative solver
           481 MiB given to the printing process from OS
             0 MiB allocation reported by mallinfo(arena+hblkhd)
        242784 MiB available memory on the node where the printing process lives
------------------
     ethr =  2.95E-04,  avg # of iterations =  1.9

     total cpu time spent up to now is       37.9 secs

     total energy              =   -1320.30634321 Ry
     estimated scf accuracy    <       0.17291604 Ry

     iteration #  4     ecut=    30.00 Ry     beta= 0.70
     Davidson diagonalization with overlap

---- Real-time Memory Report at c_bands before calling an iterative solver
           482 MiB given to the printing process from OS
             0 MiB allocation reported by mallinfo(arena+hblkhd)
        242951 MiB available memory on the node where the printing process lives
------------------
     ethr =  1.08E-04,  avg # of iterations =  2.3

     total cpu time spent up to now is       44.2 secs

     total energy              =   -1320.32733349 Ry
     estimated scf accuracy    <       0.00622418 Ry

     iteration #  5     ecut=    30.00 Ry     beta= 0.70
     Davidson diagonalization with overlap

---- Real-time Memory Report at c_bands before calling an iterative solver
           482 MiB given to the printing process from OS
             0 MiB allocation reported by mallinfo(arena+hblkhd)
        242977 MiB available memory on the node where the printing process lives
------------------
     ethr =  3.89E-06,  avg # of iterations = 13.1

     total cpu time spent up to now is       55.0 secs

     total energy              =   -1320.32849047 Ry
     estimated scf accuracy    <       0.00021922 Ry

     iteration #  6     ecut=    30.00 Ry     beta= 0.70
     Davidson diagonalization with overlap

---- Real-time Memory Report at c_bands before calling an iterative solver
           532 MiB given to the printing process from OS
             0 MiB allocation reported by mallinfo(arena+hblkhd)
        242553 MiB available memory on the node where the printing process lives
------------------
     ethr =  1.37E-07,  avg # of iterations =  2.0

     total cpu time spent up to now is       61.4 secs

     total energy              =   -1320.32852328 Ry
     estimated scf accuracy    <       0.00005854 Ry

     iteration #  7     ecut=    30.00 Ry     beta= 0.70
     Davidson diagonalization with overlap

---- Real-time Memory Report at c_bands before calling an iterative solver
           532 MiB given to the printing process from OS
             0 MiB allocation reported by mallinfo(arena+hblkhd)
        242576 MiB available memory on the node where the printing process lives
------------------
     ethr =  3.66E-08,  avg # of iterations =  1.0

     total cpu time spent up to now is       66.7 secs

     total energy              =   -1320.32852792 Ry
     estimated scf accuracy    <       0.00000693 Ry

     iteration #  8     ecut=    30.00 Ry     beta= 0.70
     Davidson diagonalization with overlap

---- Real-time Memory Report at c_bands before calling an iterative solver
           532 MiB given to the printing process from OS
             0 MiB allocation reported by mallinfo(arena+hblkhd)
        242552 MiB available memory on the node where the printing process lives
------------------
     ethr =  4.33E-09,  avg # of iterations =  1.0

     total cpu time spent up to now is       72.0 secs

     End of self-consistent calculation

          k = 0.0000 0.0000 0.0000 ( 11707 PWs)   bands (ev):

   -48.9938 -48.9935 -48.9934 -48.9934 -48.8393 -48.8389 -47.9271 -47.9271
   -26.4684 -26.4684 -26.4634 -26.4634 -26.4633 -26.4633 -20.9000 -20.8985
   -20.8971 -20.8968 -20.8968 -20.8965 -20.8965 -20.8965 -20.8947 -20.8947
   -20.8937 -20.8937 -20.7445 -20.7432 -20.7429 -20.7429 -20.7417 -20.7417
   -12.1093 -12.0124 -11.8296 -11.7213 -11.7075 -11.7074 -11.6999 -11.6998
   -11.6745 -11.6744 -11.6661 -11.6661  -1.6195  -1.5294  -1.1591  -0.9421
    -0.9420  -0.8337  -0.7464  -0.7464  -0.6810  -0.6782  -0.6717  -0.6717
    -0.5587  -0.5587  -0.3035  -0.3035  -0.1812  -0.1811  -0.1298   0.0975
     0.1083   0.1875   0.1876   0.5297   0.5297   0.5429   0.5837   0.7567
     0.7567   0.8210   0.8211   0.8677   0.8677   0.8961   0.8961   0.9573
     4.4437   4.4744   4.5436   4.5436   4.6166   4.6166   5.5300   5.7732
     5.7732   5.8841   5.8842   7.0690   7.0934   7.4306   8.0791   8.6277
     8.8039   8.8039   9.0143   9.0217   9.0414   9.0415   9.1381   9.3738
     9.5924   9.5925   9.6662   9.6663   9.9003  10.2454  10.2862  10.3318
    10.3318  10.5220  10.5220  10.8008  10.8008  10.9797  10.9798  10.9878
    10.9878  11.0637  11.4167  11.4606  11.4606  11.5323  11.5633  11.8561
    11.9758  12.0553  12.0553  12.1869  12.1871  12.5128  12.5705  12.5705
    12.7987  12.7987  13.1069  13.1069  13.3311  13.3311  13.5321  13.5321
    13.9187  13.9187  14.0301  14.1387  14.1885  14.1885  14.2783  14.4451
    14.4451  14.7214  14.7214  14.7990  14.7990  14.9460  15.2811  15.3924
    15.3924  15.4946  15.8897  15.8897  15.9041  15.9873  16.0184  16.7033
    16.7033  16.7796  16.7796  17.2187  17.2187  17.4417  17.4418  17.6500
    17.8467  17.8467  18.1222  18.2560  18.3801  18.4645  18.4645  18.6204
    18.6204  18.7349  18.7453  18.7453  18.8202  19.0666  19.0772  19.1013
    19.1013  19.2369  19.2369  19.3173  19.3173  19.4212  19.9049  19.9049
    20.0749  20.2084  20.3783  20.5783  20.6037  20.6262  20.6643  20.6644
    20.6859  20.6859  20.7174  20.8789  21.1214  21.1250  21.1251  21.4657
    21.4657  21.7166  21.7304  21.7304  21.8814  21.8814  21.8953  22.0545
    22.0545  22.2571  22.2572  22.2730  22.8083  22.8083  22.9029  22.9030
    23.1237  23.1237  23.2262  23.2386  23.4512  23.7237  23.7465  23.7465
    23.7874  23.9480  23.9480  24.0652  24.0653  24.6098  24.6098  24.7339
    24.7339  24.9002  24.9002  24.9141  25.3292  25.3561  25.3562  25.3981

     occupation numbers 
     1.0000   1.0000   1.0000   1.0000   1.0000   1.0000   1.0000   1.0000
     1.0000   1.0000   1.0000   1.0000   1.0000   1.0000   1.0000   1.0000
     1.0000   1.0000   1.0000   1.0000   1.0000   1.0000   1.0000   1.0000
     1.0000   1.0000   1.0000   1.0000   1.0000   1.0000   1.0000   1.0000
     1.0000   1.0000   1.0000   1.0000   1.0000   1.0000   1.0000   1.0000
     1.0000   1.0000   1.0000   1.0000   1.0000   1.0000   1.0000   1.0000
     1.0000   1.0000   1.0000   1.0000   1.0000   1.0000   1.0000   1.0000
     1.0000   1.0000   1.0000   1.0000   1.0000   1.0000   1.0000   1.0000
     1.0000   1.0000   1.0000   1.0000   1.0000   1.0000   1.0000   1.0000
     1.0000   1.0000   1.0000   1.0000   1.0000   1.0000   1.0000   1.0000
     0.0000   0.0000   0.0000   0.0000   0.0000   0.0000   0.0000   0.0000
     0.0000   0.0000   0.0000   0.0000   0.0000   0.0000   0.0000   0.0000
     0.0000   0.0000   0.0000   0.0000   0.0000   0.0000   0.0000   0.0000
     0.0000   0.0000   0.0000   0.0000   0.0000   0.0000   0.0000   0.0000
     0.0000   0.0000   0.0000   0.0000   0.0000   0.0000   0.0000   0.0000
     0.0000   0.0000   0.0000   0.0000   0.0000   0.0000   0.0000   0.0000
     0.0000   0.0000   0.0000   0.0000   0.0000   0.0000   0.0000   0.0000
     0.0000   0.0000   0.0000   0.0000   0.0000   0.0000   0.0000   0.0000
     0.0000   0.0000   0.0000   0.0000   0.0000   0.0000   0.0000   0.0000
     0.0000   0.0000   0.0000   0.0000   0.0000   0.0000   0.0000   0.0000
     0.0000   0.0000   0.0000   0.0000   0.0000   0.0000   0.0000   0.0000
     0.0000   0.0000   0.0000   0.0000   0.0000   0.0000   0.0000   0.0000
     0.0000   0.0000   0.0000   0.0000   0.0000   0.0000   0.0000   0.0000
     0.0000   0.0000   0.0000   0.0000   0.0000   0.0000   0.0000   0.0000
     0.0000   0.0000   0.0000   0.0000   0.0000   0.0000   0.0000   0.0000
     0.0000   0.0000   0.0000   0.0000   0.0000   0.0000   0.0000   0.0000
     0.0000   0.0000   0.0000   0.0000   0.0000   0.0000   0.0000   0.0000
     0.0000   0.0000   0.0000   0.0000   0.0000   0.0000   0.0000   0.0000
     0.0000   0.0000   0.0000   0.0000   0.0000   0.0000   0.0000   0.0000
     0.0000   0.0000   0.0000   0.0000   0.0000   0.0000   0.0000   0.0000
     0.0000   0.0000   0.0000   0.0000   0.0000   0.0000   0.0000   0.0000
     0.0000   0.0000   0.0000   0.0000   0.0000   0.0000   0.0000   0.0000

          k = 0.0000 0.0000 0.1863 ( 11774 PWs)   bands (ev):

   -48.9939 -48.9938 -48.9937 -48.9936 -48.8394 -48.8392 -47.9271 -47.9271
   -26.4687 -26.4685 -26.4634 -26.4634 -26.4634 -26.4634 -20.9007 -20.8994
   -20.8993 -20.8981 -20.8976 -20.8976 -20.8976 -20.8976 -20.8945 -20.8945
   -20.8943 -20.8943 -20.7456 -20.7449 -20.7432 -20.7432 -20.7425 -20.7425
   -12.0908 -12.0447 -11.7945 -11.7427 -11.7059 -11.7058 -11.7022 -11.7021
   -11.6720 -11.6719 -11.6679 -11.6678  -1.5780  -1.5343  -1.1234  -0.9262
    -0.8849  -0.8849  -0.7940  -0.7507  -0.7507  -0.7165  -0.7126  -0.7126
    -0.6359  -0.6359  -0.2526  -0.2526  -0.1992  -0.1991   0.1085   0.1150
     0.2178   0.3002   0.3002   0.4730   0.4730   0.5433   0.5632   0.7567
     0.7567   0.7580   0.7911   0.7912   0.8721   0.8721   0.8939   0.8939
     4.4596   4.4605   4.5591   4.5591   4.5923   4.5923   5.7891   5.7895
     5.7895   5.8481   5.8481   6.4116   7.4671   7.4707   8.1825   8.4960
     8.9507   8.9508   8.9907   9.0944   9.1241   9.1832   9.1832   9.2826
     9.3878   9.3878   9.6018   9.6018   9.9342  10.0839  10.3246  10.3246
    10.4183  10.4183  10.5906  10.6406  10.6406  10.8188  10.8188  11.1847
    11.2252  11.2612  11.2612  11.4452  11.4452  11.4944  11.5256  11.5529
    11.9961  12.2118  12.2118  12.2692  12.4792  12.4792  12.5708  12.9640
    12.9898  12.9898  13.1926  13.1926  13.4435  13.4444  13.4444  13.6334
    13.6334  13.8278  13.8278  14.0742  14.0742  14.3153  14.4440  14.5199
    14.5199  14.5722  14.6557  14.6827  14.6828  14.8129  14.9921  14.9921
    15.0505  15.0506  15.5380  15.5380  16.0021  16.0022  16.5032  16.6246
    16.9328  17.1253  17.1253  17.5205  17.5205  17.6406  17.8241  17.8241
    17.9408  18.1638  18.1836  18.1926  18.1926  18.3171  18.3171  18.5965
    18.6134  18.6135  18.7340  18.7340  18.7677  18.8781  19.2321  19.2321
    19.3152  19.3152  19.4478  19.4743  19.6593  19.7087  19.7684  19.7684
    20.1354  20.2363  20.2364  20.2693  20.2693  20.3779  20.4032  20.4032
    20.6288  20.6320  20.8301  20.8301  20.9358  21.0281  21.0281  21.1974
    21.3023  21.3023  21.5245  21.5256  21.6960  21.6960  21.7137  21.7137
    21.7253  22.1636  22.1637  22.4877  22.4877  22.6455  23.0907  23.0907
    23.1553  23.3787  23.4068  23.6703  23.6703  23.7848  23.8566  23.8566
    23.9067  24.2517  24.2517  24.5346  24.5346  24.7509  24.7509  25.1704
    25.1741  25.1956  25.1956  25.2850  25.3250  25.3250  25.5266  25.5941

     occupation numbers 
     1.0000   1.0000   1.0000   1.0000   1.0000   1.0000   1.0000   1.0000
     1.0000   1.0000   1.0000   1.0000   1.0000   1.0000   1.0000   1.0000
     1.0000   1.0000   1.0000   1.0000   1.0000   1.0000   1.0000   1.0000
     1.0000   1.0000   1.0000   1.0000   1.0000   1.0000   1.0000   1.0000
     1.0000   1.0000   1.0000   1.0000   1.0000   1.0000   1.0000   1.0000
     1.0000   1.0000   1.0000   1.0000   1.0000   1.0000   1.0000   1.0000
     1.0000   1.0000   1.0000   1.0000   1.0000   1.0000   1.0000   1.0000
     1.0000   1.0000   1.0000   1.0000   1.0000   1.0000   1.0000   1.0000
     1.0000   1.0000   1.0000   1.0000   1.0000   1.0000   1.0000   1.0000
     1.0000   1.0000   1.0000   1.0000   1.0000   1.0000   1.0000   1.0000
     0.0000   0.0000   0.0000   0.0000   0.0000   0.0000   0.0000   0.0000
     0.0000   0.0000   0.0000   0.0000   0.0000   0.0000   0.0000   0.0000
     0.0000   0.0000   0.0000   0.0000   0.0000   0.0000   0.0000   0.0000
     0.0000   0.0000   0.0000   0.0000   0.0000   0.0000   0.0000   0.0000
     0.0000   0.0000   0.0000   0.0000   0.0000   0.0000   0.0000   0.0000
     0.0000   0.0000   0.0000   0.0000   0.0000   0.0000   0.0000   0.0000
     0.0000   0.0000   0.0000   0.0000   0.0000   0.0000   0.0000   0.0000
     0.0000   0.0000   0.0000   0.0000   0.0000   0.0000   0.0000   0.0000
     0.0000   0.0000   0.0000   0.0000   0.0000   0.0000   0.0000   0.0000
     0.0000   0.0000   0.0000   0.0000   0.0000   0.0000   0.0000   0.0000
     0.0000   0.0000   0.0000   0.0000   0.0000   0.0000   0.0000   0.0000
     0.0000   0.0000   0.0000   0.0000   0.0000   0.0000   0.0000   0.0000
     0.0000   0.0000   0.0000   0.0000   0.0000   0.0000   0.0000   0.0000
     0.0000   0.0000   0.0000   0.0000   0.0000   0.0000   0.0000   0.0000
     0.0000   0.0000   0.0000   0.0000   0.0000   0.0000   0.0000   0.0000
     0.0000   0.0000   0.0000   0.0000   0.0000   0.0000   0.0000   0.0000
     0.0000   0.0000   0.0000   0.0000   0.0000   0.0000   0.0000   0.0000
     0.0000   0.0000   0.0000   0.0000   0.0000   0.0000   0.0000   0.0000
     0.0000   0.0000   0.0000   0.0000   0.0000   0.0000   0.0000   0.0000
     0.0000   0.0000   0.0000   0.0000   0.0000   0.0000   0.0000   0.0000
     0.0000   0.0000   0.0000   0.0000   0.0000   0.0000   0.0000   0.0000
     0.0000   0.0000   0.0000   0.0000   0.0000   0.0000   0.0000   0.0000

          k = 0.0000 0.3849 0.0000 ( 11773 PWs)   bands (ev):

   -48.9940 -48.9938 -48.9937 -48.9936 -48.8394 -48.8393 -47.9271 -47.9271
   -26.4686 -26.4684 -26.4635 -26.4635 -26.4634 -26.4634 -20.9004 -20.8995
   -20.8990 -20.8984 -20.8983 -20.8981 -20.8978 -20.8974 -20.8953 -20.8951
   -20.8943 -20.8942 -20.7449 -20.7446 -20.7436 -20.7433 -20.7433 -20.7432
   -12.0512 -11.9884 -11.7965 -11.7537 -11.7349 -11.7317 -11.7232 -11.6962
   -11.6894 -11.6830 -11.6658 -11.6657  -1.5650  -1.4905  -1.0824  -1.0778
    -0.9311  -0.8852  -0.8176  -0.7536  -0.6779  -0.6600  -0.5976  -0.5276
    -0.4533  -0.4476  -0.3645  -0.3042  -0.2589  -0.1824  -0.0276   0.1955
     0.2371   0.3238   0.3316   0.4102   0.4732   0.4847   0.5070   0.5639
     0.6443   0.7344   0.7571   0.7643   0.8330   0.8639   0.8785   0.8944
     4.4626   4.4748   4.5072   4.5598   4.5685   4.5958   5.6614   5.7313
     5.8021   5.8041   6.5370   7.6570   7.6865   7.7778   7.9589   8.2054
     8.3144   8.3893   8.5785   8.6249   8.7553   8.7916   9.0539   9.3010
     9.3402   9.5652   9.6316   9.8814   9.9789  10.0121  10.1351  10.2214
    10.2244  10.3064  10.3519  10.3786  10.5682  10.6552  10.7805  10.9934
    11.1174  11.1660  11.3130  11.3638  11.3874  11.4813  11.6872  11.7832
    11.9018  11.9707  12.0368  12.0383  12.1576  12.3421  12.4791  12.8883
    12.9430  13.1635  13.3761  13.3938  13.6173  13.8038  13.8648  13.9148
    14.0673  14.1087  14.3578  14.3692  14.6053  14.7111  14.8802  15.0345
    15.0347  15.1568  15.2860  15.3557  15.3837  15.7004  15.7031  15.7278
    15.8692  16.0114  16.0436  16.0796  16.3161  16.3626  16.4161  16.4393
    16.4720  16.5768  16.6782  16.7738  16.8056  16.9839  17.1186  17.2191
    17.2997  17.3619  17.4267  17.4312  17.8262  17.8588  17.9228  17.9412
    18.1435  18.1512  18.3125  18.4717  18.5603  18.5827  18.6899  18.8735
    18.9239  19.0535  19.2577  19.3400  19.4864  19.7393  19.7434  19.9814
    20.0634  20.0931  20.2932  20.4276  20.4406  20.5100  20.7322  20.9592
    20.9848  21.0650  21.1455  21.1988  21.3263  21.3686  21.3847  21.5434
    21.6051  21.6467  21.8372  21.8400  22.0258  22.1337  22.1931  22.2940
    22.3978  22.4507  22.5808  22.5901  22.7113  22.8506  22.8594  22.9696
    23.0175  23.1430  23.1695  23.2433  23.3497  23.3639  23.5530  23.5726
    23.6337  23.8349  23.8396  23.8770  23.9741  24.0353  24.0454  24.2052
    24.2170  24.2827  24.4465  24.4598  24.5280  24.5878  24.6745  24.8316

     occupation numbers 
     1.0000   1.0000   1.0000   1.0000   1.0000   1.0000   1.0000   1.0000
     1.0000   1.0000   1.0000   1.0000   1.0000   1.0000   1.0000   1.0000
     1.0000   1.0000   1.0000   1.0000   1.0000   1.0000   1.0000   1.0000
     1.0000   1.0000   1.0000   1.0000   1.0000   1.0000   1.0000   1.0000
     1.0000   1.0000   1.0000   1.0000   1.0000   1.0000   1.0000   1.0000
     1.0000   1.0000   1.0000   1.0000   1.0000   1.0000   1.0000   1.0000
     1.0000   1.0000   1.0000   1.0000   1.0000   1.0000   1.0000   1.0000
     1.0000   1.0000   1.0000   1.0000   1.0000   1.0000   1.0000   1.0000
     1.0000   1.0000   1.0000   1.0000   1.0000   1.0000   1.0000   1.0000
     1.0000   1.0000   1.0000   1.0000   1.0000   1.0000   1.0000   1.0000
     0.0000   0.0000   0.0000   0.0000   0.0000   0.0000   0.0000   0.0000
     0.0000   0.0000   0.0000   0.0000   0.0000   0.0000   0.0000   0.0000
     0.0000   0.0000   0.0000   0.0000   0.0000   0.0000   0.0000   0.0000
     0.0000   0.0000   0.0000   0.0000   0.0000   0.0000   0.0000   0.0000
     0.0000   0.0000   0.0000   0.0000   0.0000   0.0000   0.0000   0.0000
     0.0000   0.0000   0.0000   0.0000   0.0000   0.0000   0.0000   0.0000
     0.0000   0.0000   0.0000   0.0000   0.0000   0.0000   0.0000   0.0000
     0.0000   0.0000   0.0000   0.0000   0.0000   0.0000   0.0000   0.0000
     0.0000   0.0000   0.0000   0.0000   0.0000   0.0000   0.0000   0.0000
     0.0000   0.0000   0.0000   0.0000   0.0000   0.0000   0.0000   0.0000
     0.0000   0.0000   0.0000   0.0000   0.0000   0.0000   0.0000   0.0000
     0.0000   0.0000   0.0000   0.0000   0.0000   0.0000   0.0000   0.0000
     0.0000   0.0000   0.0000   0.0000   0.0000   0.0000   0.0000   0.0000
     0.0000   0.0000   0.0000   0.0000   0.0000   0.0000   0.0000   0.0000
     0.0000   0.0000   0.0000   0.0000   0.0000   0.0000   0.0000   0.0000
     0.0000   0.0000   0.0000   0.0000   0.0000   0.0000   0.0000   0.0000
     0.0000   0.0000   0.0000   0.0000   0.0000   0.0000   0.0000   0.0000
     0.0000   0.0000   0.0000   0.0000   0.0000   0.0000   0.0000   0.0000
     0.0000   0.0000   0.0000   0.0000   0.0000   0.0000   0.0000   0.0000
     0.0000   0.0000   0.0000   0.0000   0.0000   0.0000   0.0000   0.0000
     0.0000   0.0000   0.0000   0.0000   0.0000   0.0000   0.0000   0.0000
     0.0000   0.0000   0.0000   0.0000   0.0000   0.0000   0.0000   0.0000

          k = 0.0000 0.3849 0.1863 ( 11789 PWs)   bands (ev):

   -48.9940 -48.9939 -48.9938 -48.9937 -48.8395 -48.8393 -47.9271 -47.9271
   -26.4686 -26.4685 -26.4635 -26.4635 -26.4635 -26.4634 -20.8999 -20.8996
   -20.8994 -20.8991 -20.8987 -20.8983 -20.8977 -20.8973 -20.8955 -20.8954
   -20.8947 -20.8942 -20.7453 -20.7448 -20.7437 -20.7435 -20.7435 -20.7432
   -12.0382 -12.0075 -11.7812 -11.7571 -11.7425 -11.7224 -11.7191 -11.7099
   -11.6880 -11.6770 -11.6727 -11.6643  -1.5407  -1.5035  -1.1186  -1.0418
    -0.9313  -0.9029  -0.8498  -0.7474  -0.7047  -0.6699  -0.5724  -0.5397
    -0.4594  -0.4100  -0.3321  -0.2823  -0.2485  -0.2146   0.0892   0.1653
     0.2178   0.2557   0.2886   0.3986   0.4105   0.4523   0.6090   0.6225
     0.6567   0.7212   0.7588   0.7837   0.8149   0.8537   0.8682   0.8943
     4.4675   4.4821   4.4909   4.5342   4.5817   4.6000   5.6499   5.6998
     5.7925   5.8495   6.7169   7.1552   7.7303   7.8675   8.1123   8.1767
     8.2742   8.3607   8.6170   8.6579   8.7720   8.9391   9.1659   9.3142
     9.4489   9.6322   9.6491   9.7316   9.8840   9.9030   9.9842  10.0766
    10.2779  10.3629  10.3903  10.5666  10.6460  10.7078  10.7196  10.7857
    10.8606  11.1231  11.2424  11.3175  11.4891  11.6320  11.7344  11.8239
    11.9097  11.9893  12.0184  12.0483  12.4245  12.4329  12.6315  12.6557
    12.9883  13.0690  13.2747  13.3554  13.5570  13.7769  13.8036  13.9802
    13.9974  14.1209  14.3247  14.3737  14.6462  14.7405  14.8711  14.9471
    15.0186  15.1772  15.2932  15.3587  15.4586  15.6092  15.6639  15.7086
    15.8264  16.0575  16.0666  16.1922  16.2216  16.2773  16.3570  16.4118
    16.4629  16.7440  16.8500  16.8872  16.9682  17.1418  17.1726  17.2105
    17.3203  17.4401  17.5208  17.5710  17.7009  17.8082  17.9138  17.9329
    18.0530  18.1329  18.2810  18.4599  18.5791  18.6197  18.7687  18.7910
    18.9387  19.1542  19.2707  19.2943  19.3653  19.6763  19.6863  19.8636
    19.9731  20.1034  20.1515  20.2384  20.3369  20.4532  20.5586  20.6938
    20.8764  20.9062  20.9447  21.0768  21.1587  21.3965  21.5078  21.5979
    21.6995  21.7401  21.8411  21.9113  22.0128  22.1040  22.2846  22.3465
    22.4700  22.5397  22.6430  22.7388  22.7720  22.8299  22.9190  23.0558
    23.0658  23.1225  23.2178  23.2962  23.5048  23.5187  23.6622  23.7221
    23.8173  23.8584  23.8934  23.9346  24.0272  24.0571  24.1668  24.2375
    24.3083  24.3463  24.3963  24.4790  24.5230  24.7601  24.8358  24.8633

     occupation numbers 
     1.0000   1.0000   1.0000   1.0000   1.0000   1.0000   1.0000   1.0000
     1.0000   1.0000   1.0000   1.0000   1.0000   1.0000   1.0000   1.0000
     1.0000   1.0000   1.0000   1.0000   1.0000   1.0000   1.0000   1.0000
     1.0000   1.0000   1.0000   1.0000   1.0000   1.0000   1.0000   1.0000
     1.0000   1.0000   1.0000   1.0000   1.0000   1.0000   1.0000   1.0000
     1.0000   1.0000   1.0000   1.0000   1.0000   1.0000   1.0000   1.0000
     1.0000   1.0000   1.0000   1.0000   1.0000   1.0000   1.0000   1.0000
     1.0000   1.0000   1.0000   1.0000   1.0000   1.0000   1.0000   1.0000
     1.0000   1.0000   1.0000   1.0000   1.0000   1.0000   1.0000   1.0000
     1.0000   1.0000   1.0000   1.0000   1.0000   1.0000   1.0000   1.0000
     0.0000   0.0000   0.0000   0.0000   0.0000   0.0000   0.0000   0.0000
     0.0000   0.0000   0.0000   0.0000   0.0000   0.0000   0.0000   0.0000
     0.0000   0.0000   0.0000   0.0000   0.0000   0.0000   0.0000   0.0000
     0.0000   0.0000   0.0000   0.0000   0.0000   0.0000   0.0000   0.0000
     0.0000   0.0000   0.0000   0.0000   0.0000   0.0000   0.0000   0.0000
     0.0000   0.0000   0.0000   0.0000   0.0000   0.0000   0.0000   0.0000
     0.0000   0.0000   0.0000   0.0000   0.0000   0.0000   0.0000   0.0000
     0.0000   0.0000   0.0000   0.0000   0.0000   0.0000   0.0000   0.0000
     0.0000   0.0000   0.0000   0.0000   0.0000   0.0000   0.0000   0.0000
     0.0000   0.0000   0.0000   0.0000   0.0000   0.0000   0.0000   0.0000
     0.0000   0.0000   0.0000   0.0000   0.0000   0.0000   0.0000   0.0000
     0.0000   0.0000   0.0000   0.0000   0.0000   0.0000   0.0000   0.0000
     0.0000   0.0000   0.0000   0.0000   0.0000   0.0000   0.0000   0.0000
     0.0000   0.0000   0.0000   0.0000   0.0000   0.0000   0.0000   0.0000
     0.0000   0.0000   0.0000   0.0000   0.0000   0.0000   0.0000   0.0000
     0.0000   0.0000   0.0000   0.0000   0.0000   0.0000   0.0000   0.0000
     0.0000   0.0000   0.0000   0.0000   0.0000   0.0000   0.0000   0.0000
     0.0000   0.0000   0.0000   0.0000   0.0000   0.0000   0.0000   0.0000
     0.0000   0.0000   0.0000   0.0000   0.0000   0.0000   0.0000   0.0000
     0.0000   0.0000   0.0000   0.0000   0.0000   0.0000   0.0000   0.0000
     0.0000   0.0000   0.0000   0.0000   0.0000   0.0000   0.0000   0.0000
     0.0000   0.0000   0.0000   0.0000   0.0000   0.0000   0.0000   0.0000

          k = 0.3333 0.5774 0.0000 ( 11790 PWs)   bands (ev):

   -48.9940 -48.9939 -48.9939 -48.9937 -48.8395 -48.8394 -47.9271 -47.9271
   -26.4686 -26.4686 -26.4635 -26.4635 -26.4635 -26.4634 -20.9000 -20.8999
   -20.8994 -20.8993 -20.8993 -20.8985 -20.8966 -20.8965 -20.8963 -20.8962
   -20.8949 -20.8936 -20.7454 -20.7453 -20.7436 -20.7436 -20.7433 -20.7433
   -11.9952 -11.9951 -11.7791 -11.7586 -11.7585 -11.7430 -11.7235 -11.7235
   -11.6986 -11.6744 -11.6743 -11.6621  -1.4732  -1.4732  -0.9953  -0.9953
    -0.9058  -0.9057  -0.9053  -0.7685  -0.7370  -0.6381  -0.6381  -0.6011
    -0.4705  -0.4704  -0.3558  -0.3558  -0.2511  -0.2511   0.1262   0.2602
     0.2603   0.3209   0.3863   0.3882   0.3882   0.5210   0.5674   0.5674
     0.5921   0.5921   0.7663   0.7663   0.7664   0.8610   0.9289   0.9289
     4.4835   4.4835   4.4980   4.5343   4.5503   4.5503   5.6783   5.7547
     5.7547   5.7877   7.4792   7.4793   7.7010   7.7011   7.7542   7.8308
     8.1353   8.1353   8.4814   8.5072   8.5072   8.6630   9.1376   9.1377
     9.6103   9.6677   9.6678   9.8660   9.9514   9.9514  10.0693  10.3223
    10.4679  10.4679  10.6592  10.6592  10.6952  10.8573  10.8597  10.9009
    10.9010  11.0936  11.0936  11.2102  11.2998  11.4482  11.4483  11.5886
    11.5887  12.1323  12.1323  12.2100  12.6278  12.6279  12.7103  13.0526
    13.0526  13.0615  13.3189  13.3189  13.7869  13.9904  14.0719  14.0720
    14.0722  14.0964  14.0964  14.1192  14.1192  14.1987  14.4970  14.4970
    14.7230  14.9666  14.9666  15.1184  15.2721  15.2721  15.3346  15.3346
    15.4204  15.6782  15.8065  16.4099  16.4099  16.7495  16.7496  16.9665
    16.9783  16.9784  17.2800  17.2800  17.5717  17.6762  17.8667  18.0003
    18.0591  18.0591  18.0643  18.1586  18.1586  18.3117  18.3117  18.4298
    18.4298  18.5111  18.5345  18.8689  18.8689  18.9031  19.2140  19.2140
    19.2759  19.3597  19.3597  19.3980  19.3980  19.6739  19.7320  19.8951
    19.8951  20.0234  20.1002  20.1003  20.1371  20.2842  20.2843  20.5969
    20.5969  20.6055  20.7666  20.7666  20.7769  20.8177  20.8178  20.8608
    20.8921  20.9100  20.9100  21.0388  21.0388  21.3149  21.3150  21.3581
    21.3581  21.5670  21.6387  21.7112  22.0713  22.0714  22.1181  22.2065
    22.4934  22.4934  22.6137  22.9568  22.9568  23.0742  23.2417  23.2418
    23.4659  23.4659  23.6640  23.7783  24.0355  24.0461  24.0461  24.7355
    24.7355  24.8499  24.8499  24.9073  25.2758  25.2759  25.3384  25.4356

     occupation numbers 
     1.0000   1.0000   1.0000   1.0000   1.0000   1.0000   1.0000   1.0000
     1.0000   1.0000   1.0000   1.0000   1.0000   1.0000   1.0000   1.0000
     1.0000   1.0000   1.0000   1.0000   1.0000   1.0000   1.0000   1.0000
     1.0000   1.0000   1.0000   1.0000   1.0000   1.0000   1.0000   1.0000
     1.0000   1.0000   1.0000   1.0000   1.0000   1.0000   1.0000   1.0000
     1.0000   1.0000   1.0000   1.0000   1.0000   1.0000   1.0000   1.0000
     1.0000   1.0000   1.0000   1.0000   1.0000   1.0000   1.0000   1.0000
     1.0000   1.0000   1.0000   1.0000   1.0000   1.0000   1.0000   1.0000
     1.0000   1.0000   1.0000   1.0000   1.0000   1.0000   1.0000   1.0000
     1.0000   1.0000   1.0000   1.0000   1.0000   1.0000   1.0000   1.0000
     0.0000   0.0000   0.0000   0.0000   0.0000   0.0000   0.0000   0.0000
     0.0000   0.0000   0.0000   0.0000   0.0000   0.0000   0.0000   0.0000
     0.0000   0.0000   0.0000   0.0000   0.0000   0.0000   0.0000   0.0000
     0.0000   0.0000   0.0000   0.0000   0.0000   0.0000   0.0000   0.0000
     0.0000   0.0000   0.0000   0.0000   0.0000   0.0000   0.0000   0.0000
     0.0000   0.0000   0.0000   0.0000   0.0000   0.0000   0.0000   0.0000
     0.0000   0.0000   0.0000   0.0000   0.0000   0.0000   0.0000   0.0000
     0.0000   0.0000   0.0000   0.0000   0.0000   0.0000   0.0000   0.0000
     0.0000   0.0000   0.0000   0.0000   0.0000   0.0000   0.0000   0.0000
     0.0000   0.0000   0.0000   0.0000   0.0000   0.0000   0.0000   0.0000
     0.0000   0.0000   0.0000   0.0000   0.0000   0.0000   0.0000   0.0000
     0.0000   0.0000   0.0000   0.0000   0.0000   0.0000   0.0000   0.0000
     0.0000   0.0000   0.0000   0.0000   0.0000   0.0000   0.0000   0.0000
     0.0000   0.0000   0.0000   0.0000   0.0000   0.0000   0.0000   0.0000
     0.0000   0.0000   0.0000   0.0000   0.0000   0.0000   0.0000   0.0000
     0.0000   0.0000   0.0000   0.0000   0.0000   0.0000   0.0000   0.0000
     0.0000   0.0000   0.0000   0.0000   0.0000   0.0000   0.0000   0.0000
     0.0000   0.0000   0.0000   0.0000   0.0000   0.0000   0.0000   0.0000
     0.0000   0.0000   0.0000   0.0000   0.0000   0.0000   0.0000   0.0000
     0.0000   0.0000   0.0000   0.0000   0.0000   0.0000   0.0000   0.0000
     0.0000   0.0000   0.0000   0.0000   0.0000   0.0000   0.0000   0.0000
     0.0000   0.0000   0.0000   0.0000   0.0000   0.0000   0.0000   0.0000

          k = 0.3333 0.5774 0.1863 ( 11754 PWs)   bands (ev):

   -48.9939 -48.9938 -48.9937 -48.9936 -48.8394 -48.8393 -47.9271 -47.9271
   -26.4685 -26.4685 -26.4635 -26.4634 -26.4634 -26.4634 -20.8996 -20.8995
   -20.8989 -20.8987 -20.8987 -20.8987 -20.8964 -20.8963 -20.8955 -20.8955
   -20.8940 -20.8934 -20.7447 -20.7445 -20.7432 -20.7432 -20.7431 -20.7430
   -11.9948 -11.9948 -11.7794 -11.7675 -11.7675 -11.7421 -11.7052 -11.7052
   -11.6999 -11.6840 -11.6839 -11.6615  -1.4717  -1.4717  -1.0543  -1.0543
    -0.9160  -0.7995  -0.7994  -0.7546  -0.7068  -0.6833  -0.6833  -0.6337
    -0.4762  -0.4761  -0.4084  -0.3234  -0.2228  -0.2228   0.1969   0.1969
     0.2422   0.3201   0.3809   0.3809   0.3857   0.3861   0.5636   0.5637
     0.6407   0.6407   0.7645   0.7645   0.8065   0.8600   0.9334   0.9335
     4.4909   4.4909   4.5168   4.5263   4.5402   4.5403   5.6703   5.7629
     5.7630   5.8085   7.4042   7.4043   7.5914   7.6966   7.6967   8.1036
     8.1970   8.3170   8.3170   8.5374   8.5375   8.8173   8.9927   8.9927
     9.6436   9.6437   9.7248   9.9613  10.0441  10.0441  10.0941  10.1704
    10.4617  10.4618  10.5194  10.5194  10.5711  10.7655  10.8820  10.8895
    10.8896  11.1118  11.2020  11.2020  11.3865  11.3865  11.8203  11.8425
    11.8426  11.9098  11.9098  11.9234  12.5704  12.5704  12.8687  12.9576
    13.1567  13.1567  13.3879  13.3879  13.5649  13.6230  13.8271  13.8272
    13.8395  13.8395  14.1338  14.3058  14.3058  14.3842  14.4891  14.4891
    14.9256  15.1487  15.1746  15.1746  15.2630  15.5180  15.5180  15.6294
    15.6294  15.9388  16.0296  16.0296  16.3657  16.5748  16.5748  16.9280
    17.0454  17.0513  17.0513  17.4941  17.4942  17.5589  17.7156  17.7279
    17.7280  17.8454  17.8454  17.9552  18.2464  18.3390  18.3685  18.3685
    18.5647  18.6669  18.6669  18.8839  18.8839  19.0775  19.1248  19.1248
    19.2520  19.2520  19.3941  19.4757  19.4757  19.4859  19.7507  19.8520
    19.9266  19.9266  20.0843  20.1759  20.1759  20.2635  20.2635  20.5992
    20.6103  20.6104  20.7404  20.7404  20.7771  20.8116  20.8505  20.8505
    20.9174  20.9174  21.0617  21.0617  21.2370  21.3965  21.4983  21.4983
    21.5611  21.8036  21.8036  21.8436  21.8436  21.9500  22.2296  22.2296
    22.2332  22.4688  22.6799  22.7664  22.7664  23.0435  23.2673  23.3455
    23.3455  23.6824  23.8477  23.8478  24.0131  24.0131  24.2664  24.2665
    24.3134  24.5658  24.5658  24.9773  25.0459  25.0460  25.0616  25.2954

     occupation numbers 
     1.0000   1.0000   1.0000   1.0000   1.0000   1.0000   1.0000   1.0000
     1.0000   1.0000   1.0000   1.0000   1.0000   1.0000   1.0000   1.0000
     1.0000   1.0000   1.0000   1.0000   1.0000   1.0000   1.0000   1.0000
     1.0000   1.0000   1.0000   1.0000   1.0000   1.0000   1.0000   1.0000
     1.0000   1.0000   1.0000   1.0000   1.0000   1.0000   1.0000   1.0000
     1.0000   1.0000   1.0000   1.0000   1.0000   1.0000   1.0000   1.0000
     1.0000   1.0000   1.0000   1.0000   1.0000   1.0000   1.0000   1.0000
     1.0000   1.0000   1.0000   1.0000   1.0000   1.0000   1.0000   1.0000
     1.0000   1.0000   1.0000   1.0000   1.0000   1.0000   1.0000   1.0000
     1.0000   1.0000   1.0000   1.0000   1.0000   1.0000   1.0000   1.0000
     0.0000   0.0000   0.0000   0.0000   0.0000   0.0000   0.0000   0.0000
     0.0000   0.0000   0.0000   0.0000   0.0000   0.0000   0.0000   0.0000
     0.0000   0.0000   0.0000   0.0000   0.0000   0.0000   0.0000   0.0000
     0.0000   0.0000   0.0000   0.0000   0.0000   0.0000   0.0000   0.0000
     0.0000   0.0000   0.0000   0.0000   0.0000   0.0000   0.0000   0.0000
     0.0000   0.0000   0.0000   0.0000   0.0000   0.0000   0.0000   0.0000
     0.0000   0.0000   0.0000   0.0000   0.0000   0.0000   0.0000   0.0000
     0.0000   0.0000   0.0000   0.0000   0.0000   0.0000   0.0000   0.0000
     0.0000   0.0000   0.0000   0.0000   0.0000   0.0000   0.0000   0.0000
     0.0000   0.0000   0.0000   0.0000   0.0000   0.0000   0.0000   0.0000
     0.0000   0.0000   0.0000   0.0000   0.0000   0.0000   0.0000   0.0000
     0.0000   0.0000   0.0000   0.0000   0.0000   0.0000   0.0000   0.0000
     0.0000   0.0000   0.0000   0.0000   0.0000   0.0000   0.0000   0.0000
     0.0000   0.0000   0.0000   0.0000   0.0000   0.0000   0.0000   0.0000
     0.0000   0.0000   0.0000   0.0000   0.0000   0.0000   0.0000   0.0000
     0.0000   0.0000   0.0000   0.0000   0.0000   0.0000   0.0000   0.0000
     0.0000   0.0000   0.0000   0.0000   0.0000   0.0000   0.0000   0.0000
     0.0000   0.0000   0.0000   0.0000   0.0000   0.0000   0.0000   0.0000
     0.0000   0.0000   0.0000   0.0000   0.0000   0.0000   0.0000   0.0000
     0.0000   0.0000   0.0000   0.0000   0.0000   0.0000   0.0000   0.0000
     0.0000   0.0000   0.0000   0.0000   0.0000   0.0000   0.0000   0.0000
     0.0000   0.0000   0.0000   0.0000   0.0000   0.0000   0.0000   0.0000

          k =-0.3333-0.5774 0.1863 ( 11754 PWs)   bands (ev):

   -48.9939 -48.9938 -48.9937 -48.9936 -48.8394 -48.8393 -47.9271 -47.9271
   -26.4685 -26.4685 -26.4634 -26.4634 -26.4634 -26.4634 -20.8996 -20.8995
   -20.8990 -20.8987 -20.8987 -20.8986 -20.8963 -20.8962 -20.8956 -20.8955
   -20.8940 -20.8934 -20.7447 -20.7446 -20.7432 -20.7432 -20.7431 -20.7430
   -11.9950 -11.9950 -11.7653 -11.7646 -11.7623 -11.7622 -11.7176 -11.7175
   -11.6772 -11.6767 -11.6766 -11.6757  -1.4768  -1.4768  -1.0452  -1.0451
    -0.9727  -0.8867  -0.8867  -0.6982  -0.6665  -0.6406  -0.5476  -0.5476
    -0.4009  -0.4008  -0.3746  -0.3148  -0.2969  -0.2969   0.0106   0.0730
     0.0730   0.2921   0.3516   0.3516   0.4204   0.5785   0.5815   0.5815
     0.7116   0.7116   0.7838   0.7839   0.7950   0.8315   0.9300   0.9301
     4.4543   4.4543   4.5051   4.5379   4.5736   4.5736   5.6139   5.7666
     5.7666   5.8739   7.3365   7.3365   7.5864   7.8538   7.8538   7.8943
     8.0332   8.0332   8.4404   8.5581   8.5581   8.7649   9.3546   9.3546
     9.6839   9.6839   9.7934   9.8475   9.8800   9.8801  10.1541  10.1994
    10.3334  10.3334  10.5864  10.7059  10.7059  10.8095  10.9523  10.9523
    11.0183  11.0697  11.0697  11.1400  11.3367  11.3367  11.3398  11.5898
    11.5898  12.1604  12.1605  12.3698  12.5829  12.6529  12.6530  12.8337
    12.8349  12.8349  13.4220  13.4220  13.5934  13.6080  13.6080  13.6620
    14.1164  14.1165  14.2649  14.3850  14.5323  14.5323  14.5552  14.7595
    14.7595  15.0037  15.0037  15.3157  15.3157  15.3352  15.5543  15.5543
    15.5713  15.8093  16.2265  16.2265  16.4984  16.4985  16.5924  16.7665
    16.9162  16.9162  17.4153  17.4229  17.6186  17.6186  17.7532  17.7532
    17.8435  18.0081  18.0404  18.0404  18.1641  18.2192  18.3851  18.3851
    18.5640  18.5640  18.6523  18.6860  18.9407  18.9408  19.1839  19.2221
    19.2221  19.3066  19.3066  19.4034  19.4034  19.4367  19.4551  19.5808
    19.5808  19.8431  19.9790  19.9791  20.1366  20.1781  20.1781  20.4063
    20.4063  20.5217  20.6732  20.6733  20.8249  20.8249  20.8963  21.0278
    21.0278  21.2104  21.2108  21.3358  21.3358  21.4058  21.4058  21.4836
    21.6493  21.8785  21.8785  22.0424  22.0424  22.0614  22.1026  22.3095
    22.3643  22.3643  22.5235  22.9301  22.9301  23.3012  23.3792  23.3793
    23.4646  23.4646  23.7832  23.9680  24.2000  24.2000  24.2071  24.3363
    24.3363  24.5255  24.5256  24.5341  25.2049  25.2049  25.4576  25.5479

     occupation numbers 
     1.0000   1.0000   1.0000   1.0000   1.0000   1.0000   1.0000   1.0000
     1.0000   1.0000   1.0000   1.0000   1.0000   1.0000   1.0000   1.0000
     1.0000   1.0000   1.0000   1.0000   1.0000   1.0000   1.0000   1.0000
     1.0000   1.0000   1.0000   1.0000   1.0000   1.0000   1.0000   1.0000
     1.0000   1.0000   1.0000   1.0000   1.0000   1.0000   1.0000   1.0000
     1.0000   1.0000   1.0000   1.0000   1.0000   1.0000   1.0000   1.0000
     1.0000   1.0000   1.0000   1.0000   1.0000   1.0000   1.0000   1.0000
     1.0000   1.0000   1.0000   1.0000   1.0000   1.0000   1.0000   1.0000
     1.0000   1.0000   1.0000   1.0000   1.0000   1.0000   1.0000   1.0000
     1.0000   1.0000   1.0000   1.0000   1.0000   1.0000   1.0000   1.0000
     0.0000   0.0000   0.0000   0.0000   0.0000   0.0000   0.0000   0.0000
     0.0000   0.0000   0.0000   0.0000   0.0000   0.0000   0.0000   0.0000
     0.0000   0.0000   0.0000   0.0000   0.0000   0.0000   0.0000   0.0000
     0.0000   0.0000   0.0000   0.0000   0.0000   0.0000   0.0000   0.0000
     0.0000   0.0000   0.0000   0.0000   0.0000   0.0000   0.0000   0.0000
     0.0000   0.0000   0.0000   0.0000   0.0000   0.0000   0.0000   0.0000
     0.0000   0.0000   0.0000   0.0000   0.0000   0.0000   0.0000   0.0000
     0.0000   0.0000   0.0000   0.0000   0.0000   0.0000   0.0000   0.0000
     0.0000   0.0000   0.0000   0.0000   0.0000   0.0000   0.0000   0.0000
     0.0000   0.0000   0.0000   0.0000   0.0000   0.0000   0.0000   0.0000
     0.0000   0.0000   0.0000   0.0000   0.0000   0.0000   0.0000   0.0000
     0.0000   0.0000   0.0000   0.0000   0.0000   0.0000   0.0000   0.0000
     0.0000   0.0000   0.0000   0.0000   0.0000   0.0000   0.0000   0.0000
     0.0000   0.0000   0.0000   0.0000   0.0000   0.0000   0.0000   0.0000
     0.0000   0.0000   0.0000   0.0000   0.0000   0.0000   0.0000   0.0000
     0.0000   0.0000   0.0000   0.0000   0.0000   0.0000   0.0000   0.0000
     0.0000   0.0000   0.0000   0.0000   0.0000   0.0000   0.0000   0.0000
     0.0000   0.0000   0.0000   0.0000   0.0000   0.0000   0.0000   0.0000
     0.0000   0.0000   0.0000   0.0000   0.0000   0.0000   0.0000   0.0000
     0.0000   0.0000   0.0000   0.0000   0.0000   0.0000   0.0000   0.0000
     0.0000   0.0000   0.0000   0.0000   0.0000   0.0000   0.0000   0.0000
     0.0000   0.0000   0.0000   0.0000   0.0000   0.0000   0.0000   0.0000

     highest occupied, lowest unoccupied level (ev):     0.9573    4.4437

!    total energy              =   -1320.32852938 Ry
     estimated scf accuracy    <       0.00000007 Ry

     The total energy is the sum of the following terms:
     one-electron contribution =    -721.00994809 Ry
     hartree contribution      =     400.31046277 Ry
     xc contribution           =    -424.00399849 Ry
     ewald contribution        =    -575.62504558 Ry

     convergence has been achieved in   8 iterations

     Writing all to output data dir bands_nm/myprefix.save/
 
     init_run     :      8.70s CPU      2.47s WALL (       1 calls)
     electrons    :    270.79s CPU     69.42s WALL (       1 calls)

     Called by init_run:
     wfcinit      :      6.94s CPU      1.77s WALL (       1 calls)
     wfcinit:atom :      0.02s CPU      0.01s WALL (       4 calls)
     wfcinit:wfcr :      6.67s CPU      1.70s WALL (       4 calls)
     potinit      :      0.55s CPU      0.15s WALL (       1 calls)
     hinit0       :      0.94s CPU      0.43s WALL (       1 calls)

     Called by electrons:
     c_bands      :    245.44s CPU     62.68s WALL (       9 calls)
     sum_band     :     22.24s CPU      5.88s WALL (       9 calls)
     v_of_rho     :      1.10s CPU      0.29s WALL (       9 calls)
     v_h          :      0.09s CPU      0.02s WALL (       9 calls)
     v_xc         :      1.01s CPU      0.27s WALL (       9 calls)
     newd         :      1.87s CPU      0.52s WALL (       9 calls)
     mix_rho      :      0.21s CPU      0.06s WALL (       9 calls)

     Called by c_bands:
     init_us_2    :      0.40s CPU      0.11s WALL (      76 calls)
     init_us_2:cp :      0.39s CPU      0.11s WALL (      76 calls)
     cegterg      :    241.37s CPU     61.61s WALL (      36 calls)

     Called by sum_band:
     sum_band:wei :      0.00s CPU      0.00s WALL (       9 calls)
     sum_band:loo :     19.65s CPU      5.01s WALL (       9 calls)
     sum_band:buf :      0.35s CPU      0.09s WALL (      36 calls)
     sum_band:ini :      0.19s CPU      0.05s WALL (      36 calls)
     sum_band:cal :      7.26s CPU      1.83s WALL (      36 calls)
     sum_band:bec :      0.10s CPU      0.03s WALL (      36 calls)
     addusdens    :      2.09s CPU      0.74s WALL (       9 calls)
     addusd:skk   :      0.01s CPU      0.01s WALL (      18 calls)
     addusd:dgemm :      0.75s CPU      0.38s WALL (      18 calls)
     addusd:qvan2 :      1.15s CPU      0.29s WALL (      18 calls)

     Called by *egterg:
     cdiaghg      :     43.93s CPU     11.48s WALL (     176 calls)
     cegterg:over :     29.70s CPU      7.48s WALL (     144 calls)
     cegterg:upda :     16.52s CPU      4.25s WALL (     144 calls)
     cegterg:last :     42.01s CPU     10.60s WALL (      76 calls)
     cdiaghg:chol :      2.70s CPU      0.71s WALL (     176 calls)
     cdiaghg:inve :      0.93s CPU      0.24s WALL (     176 calls)
     cdiaghg:para :     10.03s CPU      2.70s WALL (     352 calls)
     h_psi        :     87.19s CPU     22.23s WALL (     184 calls)
     s_psi        :     17.19s CPU      4.34s WALL (     184 calls)
     g_psi        :      0.11s CPU      0.04s WALL (     144 calls)

     Called by h_psi:
     h_psi:calbec :     18.11s CPU      4.57s WALL (     184 calls)
     vloc_psi     :     51.59s CPU     13.21s WALL (     184 calls)
     add_vuspsi   :     17.23s CPU      4.37s WALL (     184 calls)

     General routines
     calbec       :     25.37s CPU      6.39s WALL (     220 calls)
     fft          :      0.81s CPU      0.23s WALL (     116 calls)
     ffts         :      0.05s CPU      0.01s WALL (      18 calls)
     fftw         :     60.02s CPU     14.56s WALL (   54798 calls)
     interpolate  :      0.09s CPU      0.02s WALL (       9 calls)
 
     Parallel routines
 
     PWSCF        :   4m41.85s CPU   1m22.43s WALL

 
   This run was terminated on:  18:46:56  15Jul2023            

=------------------------------------------------------------------------------=
   JOB DONE.
=------------------------------------------------------------------------------=
