
     Program PWSCF v.7.0 starts on  4Jun2023 at 17:58:52 

     This program is part of the open-source Quantum ESPRESSO suite
     for quantum simulation of materials; please cite
         "P. Giannozzi et al., J. Phys.:Condens. Matter 21 395502 (2009);
         "P. Giannozzi et al., J. Phys.:Condens. Matter 29 465901 (2017);
         "P. Giannozzi et al., J. Chem. Phys. 152 154105 (2020);
          URL http://www.quantum-espresso.org", 
     in publications or presentations arising from this work. More details at
     http://www.quantum-espresso.org/quote

     Parallel version (MPI & OpenMP), running on      32 processor cores
     Number of MPI processes:                 8
     Threads/MPI process:                     4

     MPI processes distributed on     1 nodes
     K-points division:     npool     =       2
     R & G space division:  proc/nbgrp/npool/nimage =       4
     165862 MiB available memory on the printing compute node when the environment starts
 
     Reading input from espresso_5074.pwi
Warning: card &CELL ignored
Warning: card / ignored

     Current dimensions of program PWSCF are:
     Max number of different atomic species (ntypx) = 10
     Max number of k-points (npk) =  40000
     Max angular momentum in pseudopotentials (lmaxx) =  4
     file Ga.pbe-dn-kjpaw_psl.1.0.0.UPF: wavefunction(s)  4S renormalized
     Message from routine setup:
     using ibrav=0 with symmetry is DISCOURAGED, use correct ibrav instead

     Subspace diagonalization in iterative solution of the eigenvalue problem:
     one sub-group per band group will be used
     scalapack distributed-memory algorithm (size of sub-group:  2*  2 procs)

 
     Parallelization info
     --------------------
     sticks:   dense  smooth     PW     G-vecs:    dense   smooth      PW
     Min         898     447    127                28539    10083    1520
     Max         899     448    128                28540    10084    1521
     Sum        3595    1791    511               114157    40335    6083
 
     Using Slab Decomposition
 


     bravais-lattice index     =            0
     lattice parameter (alat)  =      13.7276  a.u.
     unit-cell volume          =    1817.4977 (a.u.)^3
     number of atoms/cell      =           10
     number of atomic types    =            3
     number of electrons       =        88.00
     number of Kohn-Sham states=           64
     kinetic-energy cutoff     =      30.0000  Ry
     charge density cutoff     =     240.0000  Ry
     scf convergence threshold =      1.0E-06
     mixing beta               =       0.7000
     number of iterations used =            8  plain     mixing
     Exchange-correlation=  SLA  PW   PBX  PBC
                           (   1   4   3   4   0   0   0)

     celldm(1)=  13.727630  celldm(2)=   0.000000  celldm(3)=   0.000000
     celldm(4)=   0.000000  celldm(5)=   0.000000  celldm(6)=   0.000000

     crystal axes: (cart. coord. in units of alat)
               a(1) = (   1.000000   0.000000   0.000000 )  
               a(2) = (   0.012644   0.999920   0.000000 )  
               a(3) = (  -0.506322  -0.499960   0.702622 )  

     reciprocal axes: (cart. coord. in units 2 pi/alat)
               b(1) = (  1.000000 -0.012645  0.711620 )  
               b(2) = (  0.000000  1.000080  0.711620 )  
               b(3) = (  0.000000  0.000000  1.423240 )  


     PseudoPot. # 1 for Ga read from file:
     /home/pragov/projects/rrg-bengioy-ad/pragov/crystal_structure_design/SSSP/Ga.pbe-dn-kjpaw_psl.1.0.0.UPF
     MD5 check sum: a27b4342b1af7e5f338de752e9ed7044
     Pseudo is Projector augmented-wave + core cor, Zval = 13.0
     Generated using "atomic" code by A. Dal Corso  v.5.1
     Shape of augmentation charge: PSQ
     Using radial grid of 1205 points,  6 beta functions with: 
                l(1) =   0
                l(2) =   0
                l(3) =   1
                l(4) =   1
                l(5) =   2
                l(6) =   2
     Q(r) pseudized with 0 coefficients 


     PseudoPot. # 2 for Te read from file:
     /home/pragov/projects/rrg-bengioy-ad/pragov/crystal_structure_design/SSSP/Te_pbe_v1.uspp.F.UPF
     MD5 check sum: c319670d6894cc26e93307826a071b75
     Pseudo is Ultrasoft + core correction, Zval =  6.0
     Generated by new atomic code, or converted to UPF format
     Using radial grid of  891 points,  5 beta functions with: 
                l(1) =   0
                l(2) =   0
                l(3) =   1
                l(4) =   1
                l(5) =   2
     Q(r) pseudized with  6 coefficients,  rinner =    1.800   1.800   1.800
                                                       1.800   1.800

     PseudoPot. # 3 for S  read from file:
     /home/pragov/projects/rrg-bengioy-ad/pragov/crystal_structure_design/SSSP/s_pbe_v1.4.uspp.F.UPF
     MD5 check sum: 88d86576ff6df21479756cfb9bdac1df
     Pseudo is Ultrasoft + core correction, Zval =  6.0
     Generated by new atomic code, or converted to UPF format
     Using radial grid of  907 points,  6 beta functions with: 
                l(1) =   0
                l(2) =   0
                l(3) =   1
                l(4) =   1
                l(5) =   2
                l(6) =   2
     Q(r) pseudized with  8 coefficients,  rinner =    1.300   1.300   1.300
                                                       1.300   1.300

     atomic species   valence    mass     pseudopotential
        Ga            13.00    69.72300     Ga( 1.00)
        Te             6.00   127.60000     Te( 1.00)
        S              6.00    32.06000     S ( 1.00)

      2 Sym. Ops. (no inversion) found ( 1 have fractional translation)


                                    s                        frac. trans.

      isym =  1     identity                                     

 cryst.   s( 1) = (     1          0          0      )
                  (     0          1          0      )
                  (     0          0          1      )

 cart.    s( 1) = (  1.0000000  0.0000000 -0.0000000 )
                  (  0.0000000  1.0000000  0.0000000 )
                  (  0.0000000  0.0000000  1.0000000 )


      isym =  2     inv. 180 deg rotation - cart. axis [0,0,1]   

 cryst.   s( 2) = (     1          0          0      )    f =(  0.2500000 )
                  (     0          1          0      )       ( -0.2500000 )
                  (    -1         -1         -1      )       ( -0.5000000 )

 cart.    s( 2) = (  1.0000000  0.0000000  0.0000000 )    f =(  0.5000000 )
                  (  0.0000000  1.0000000  0.0000000 )       (  0.0000000 )
                  (  0.0000000  0.0000000 -1.0000000 )       ( -0.3513111 )


   Cartesian axes

     site n.     atom                  positions (alat units)
         1           Ga  tau(   1) = (  -0.1937237   0.5217353   0.5073621  )
         2           Ga  tau(   2) = (  -0.2000457   0.0217753   0.5465713  )
         3           Ga  tau(   3) = (   0.0255661   0.2996550   0.1952601  )
         4           Ga  tau(   4) = (   0.5255661   0.2996550   0.1560510  )
         5           Te  tau(   5) = (   0.5025914   0.0025588   0.3513111  )
         6           Te  tau(   6) = (   0.0025914   0.0025588   0.0000000  )
         7           S   tau(   7) = (   0.0067403   0.2641639   0.5193882  )
         8           S   tau(   8) = (   0.0004174  -0.2357961   0.5345452  )
         9           S   tau(   9) = (   0.2705499   0.5033598   0.1680771  )
        10           S   tau(  10) = (   0.7705499   0.5033588   0.1832341  )

   Crystallographic axes

     site n.     atom                  positions (cryst. coord.)
         1           Ga  tau(   1) = (  0.1607280  0.8828260  0.7220980  )
         2           Ga  tau(   2) = (  0.1886300  0.4107280  0.7779020  )
         3           Ga  tau(   3) = (  0.1607280  0.4386300  0.2779020  )
         4           Ga  tau(   4) = (  0.6328260  0.4107280  0.2220980  )
         5           Te  tau(   5) = (  0.7525590  0.2525590  0.5000000  )
         6           Te  tau(   6) = (  0.0025590  0.0025590  0.0000000  )
         7           S   tau(   7) = (  0.3730070  0.6337920  0.7392140  )
         8           S   tau(   8) = (  0.3837920  0.1445780  0.7607860  )
         9           S   tau(   9) = (  0.3837920  0.6230070  0.2392140  )
        10           S   tau(  10) = (  0.8945780  0.6337920  0.2607860  )

     number of k points=    10
                       cart. coord. in units 2pi/alat
        k(    1) = (   0.0000000   0.0000000   0.0000000), wk =   0.0740741
        k(    2) = (   0.0000000   0.0000000   0.4744133), wk =   0.1481481
        k(    3) = (   0.0000000   0.3333600   0.2372066), wk =   0.2962963
        k(    4) = (   0.0000000   0.3333600   0.7116199), wk =   0.1481481
        k(    5) = (   0.3333333  -0.0042150   0.2372066), wk =   0.2962963
        k(    6) = (   0.3333333  -0.0042150   0.7116199), wk =   0.1481481
        k(    7) = (   0.3333333   0.3291450   0.4744133), wk =   0.2962963
        k(    8) = (   0.3333333   0.3291450   0.0000000), wk =   0.1481481
        k(    9) = (   0.3333333  -0.3375749  -0.0000000), wk =   0.1481481
        k(   10) = (   0.3333333  -0.3375749   0.4744133), wk =   0.2962963

                       cryst. coord.
        k(    1) = (   0.0000000   0.0000000   0.0000000), wk =   0.0740741
        k(    2) = (   0.0000000   0.0000000   0.3333333), wk =   0.1481481
        k(    3) = (   0.0000000   0.3333333   0.0000000), wk =   0.2962963
        k(    4) = (   0.0000000   0.3333333   0.3333333), wk =   0.1481481
        k(    5) = (   0.3333333   0.0000000  -0.0000000), wk =   0.2962963
        k(    6) = (   0.3333333   0.0000000   0.3333333), wk =   0.1481481
        k(    7) = (   0.3333333   0.3333333   0.0000000), wk =   0.2962963
        k(    8) = (   0.3333333   0.3333333  -0.3333333), wk =   0.1481481
        k(    9) = (   0.3333333  -0.3333333  -0.0000000), wk =   0.1481481
        k(   10) = (   0.3333333  -0.3333333   0.3333333), wk =   0.2962963

     Dense  grid:   114157 G-vectors     FFT dimensions: (  72,  72,  72)

     Smooth grid:    40335 G-vectors     FFT dimensions: (  48,  48,  48)

     Dynamical RAM for                 wfc:       1.23 MB

     Dynamical RAM for     wfc (w. buffer):       7.38 MB

     Dynamical RAM for           str. fact:       1.31 MB

     Dynamical RAM for           local pot:       0.00 MB

     Dynamical RAM for          nlocal pot:       3.27 MB

     Dynamical RAM for                qrad:       3.73 MB

     Dynamical RAM for          rho,v,vnew:       3.44 MB

     Dynamical RAM for               rhoin:       1.15 MB

     Dynamical RAM for            rho*nmix:       6.97 MB

     Dynamical RAM for           G-vectors:       1.71 MB

     Dynamical RAM for          h,s,v(r/c):       0.19 MB

     Dynamical RAM for          <psi|beta>:       0.17 MB

     Dynamical RAM for                 psi:       2.46 MB

     Dynamical RAM for                hpsi:       2.46 MB

     Dynamical RAM for                spsi:       2.46 MB

     Dynamical RAM for      wfcinit/wfcrot:       2.56 MB

     Dynamical RAM for           addusdens:      41.59 MB

     Estimated static dynamical RAM per process >      27.29 MB

     Estimated max dynamical RAM per process >      75.84 MB

     Estimated total dynamical RAM >     578.88 MB

     Check: negative core charge=   -0.000001

     Initial potential from superposition of free atoms

     starting charge      87.9876, renormalised to      88.0000
     Starting wfcs are   60 randomized atomic wfcs +    4 random wfcs
     Checking if some PAW data can be deallocated... 
       PAW data deallocated on    6 nodes for type:  1

     total cpu time spent up to now is        7.7 secs

     Self-consistent Calculation

     iteration #  1     ecut=    30.00 Ry     beta= 0.70
     Davidson diagonalization with overlap

---- Real-time Memory Report at c_bands before calling an iterative solver
           200 MiB given to the printing process from OS
             0 MiB allocation reported by mallinfo(arena+hblkhd)
        165287 MiB available memory on the node where the printing process lives
------------------
     ethr =  1.00E-02,  avg # of iterations =  7.6

     Threshold (ethr) on eigenvalues was too large:
     Diagonalizing with lowered threshold

     Davidson diagonalization with overlap

---- Real-time Memory Report at c_bands before calling an iterative solver
           241 MiB given to the printing process from OS
             0 MiB allocation reported by mallinfo(arena+hblkhd)
        165201 MiB available memory on the node where the printing process lives
------------------
     ethr =  3.90E-04,  avg # of iterations =  3.4

     total cpu time spent up to now is       19.6 secs

     total energy              =   -1261.18196275 Ry
     estimated scf accuracy    <       0.34224446 Ry

     iteration #  2     ecut=    30.00 Ry     beta= 0.70
     Davidson diagonalization with overlap

---- Real-time Memory Report at c_bands before calling an iterative solver
           253 MiB given to the printing process from OS
             0 MiB allocation reported by mallinfo(arena+hblkhd)
        164817 MiB available memory on the node where the printing process lives
------------------
     ethr =  3.89E-04,  avg # of iterations =  3.9

     total cpu time spent up to now is       27.5 secs

     total energy              =   -1261.24547791 Ry
     estimated scf accuracy    <       0.25292118 Ry

     iteration #  3     ecut=    30.00 Ry     beta= 0.70
     Davidson diagonalization with overlap

---- Real-time Memory Report at c_bands before calling an iterative solver
           262 MiB given to the printing process from OS
             0 MiB allocation reported by mallinfo(arena+hblkhd)
        164814 MiB available memory on the node where the printing process lives
------------------
     ethr =  2.87E-04,  avg # of iterations =  2.0

     total cpu time spent up to now is       32.1 secs

     total energy              =   -1261.30717383 Ry
     estimated scf accuracy    <       0.01539036 Ry

     iteration #  4     ecut=    30.00 Ry     beta= 0.70
     Davidson diagonalization with overlap

---- Real-time Memory Report at c_bands before calling an iterative solver
           262 MiB given to the printing process from OS
             0 MiB allocation reported by mallinfo(arena+hblkhd)
        164797 MiB available memory on the node where the printing process lives
------------------
     ethr =  1.75E-05,  avg # of iterations =  9.9

     total cpu time spent up to now is       43.0 secs

     total energy              =   -1261.31081850 Ry
     estimated scf accuracy    <       0.00144655 Ry

     iteration #  5     ecut=    30.00 Ry     beta= 0.70
     Davidson diagonalization with overlap

---- Real-time Memory Report at c_bands before calling an iterative solver
           264 MiB given to the printing process from OS
             0 MiB allocation reported by mallinfo(arena+hblkhd)
        164781 MiB available memory on the node where the printing process lives
------------------
     ethr =  1.64E-06,  avg # of iterations =  4.7

     total cpu time spent up to now is       52.3 secs

     total energy              =   -1261.31125363 Ry
     estimated scf accuracy    <       0.00063012 Ry

     iteration #  6     ecut=    30.00 Ry     beta= 0.70
     Davidson diagonalization with overlap

---- Real-time Memory Report at c_bands before calling an iterative solver
           264 MiB given to the printing process from OS
             0 MiB allocation reported by mallinfo(arena+hblkhd)
        164774 MiB available memory on the node where the printing process lives
------------------
     ethr =  7.16E-07,  avg # of iterations =  2.0

     total cpu time spent up to now is       57.7 secs

     total energy              =   -1261.31141994 Ry
     estimated scf accuracy    <       0.00003185 Ry

     iteration #  7     ecut=    30.00 Ry     beta= 0.70
     Davidson diagonalization with overlap

---- Real-time Memory Report at c_bands before calling an iterative solver
           264 MiB given to the printing process from OS
             0 MiB allocation reported by mallinfo(arena+hblkhd)
        164775 MiB available memory on the node where the printing process lives
------------------
     ethr =  3.62E-08,  avg # of iterations =  4.4

     total cpu time spent up to now is       63.4 secs

     total energy              =   -1261.31143385 Ry
     estimated scf accuracy    <       0.00000115 Ry

     iteration #  8     ecut=    30.00 Ry     beta= 0.70
     Davidson diagonalization with overlap

---- Real-time Memory Report at c_bands before calling an iterative solver
           265 MiB given to the printing process from OS
             0 MiB allocation reported by mallinfo(arena+hblkhd)
        164770 MiB available memory on the node where the printing process lives
------------------
     ethr =  1.30E-09,  avg # of iterations =  4.7

     total cpu time spent up to now is       69.1 secs

     End of self-consistent calculation

          k = 0.0000 0.0000 0.0000 (  5037 PWs)   bands (ev):

   -10.5846 -10.5760 -10.5760 -10.3951 -10.3472 -10.3411 -10.3234 -10.3234
   -10.3228 -10.3132 -10.2844 -10.2844 -10.2827 -10.2594 -10.2579 -10.2474
   -10.2474 -10.2323 -10.2181 -10.2181  -9.2952  -7.6690  -7.5077  -7.5077
    -5.7203  -5.4380  -2.6363  -1.9777  -1.9777  -0.3495   0.5600   0.6716
     1.8736   1.8736   2.0467   2.1431   2.5852   2.7674   2.7674   3.0771
     3.0771   3.9872   4.4316   4.4316   6.3701   6.5141   6.5141   6.8140
     7.8407   9.4042   9.5121   9.6034   9.6034  10.1990  10.1990  10.3339
    10.3941  11.3970  11.3970  11.5686  11.5958  12.0139  12.2565  12.5141

     occupation numbers 
     1.0000   1.0000   1.0000   1.0000   1.0000   1.0000   1.0000   1.0000
     1.0000   1.0000   1.0000   1.0000   1.0000   1.0000   1.0000   1.0000
     1.0000   1.0000   1.0000   1.0000   1.0000   1.0000   1.0000   1.0000
     1.0000   1.0000   1.0000   1.0000   1.0000   1.0000   1.0000   1.0000
     1.0000   1.0000   1.0000   1.0000   1.0000   1.0000   1.0000   1.0000
     1.0000   1.0000   1.0000   1.0000   0.0000   0.0000   0.0000   0.0000
     0.0000   0.0000   0.0000   0.0000   0.0000   0.0000   0.0000   0.0000
     0.0000   0.0000   0.0000   0.0000   0.0000   0.0000   0.0000   0.0000

          k = 0.0000 0.0000 0.4744 (  5037 PWs)   bands (ev):

   -10.5934 -10.5822 -10.5218 -10.4309 -10.3479 -10.3355 -10.3304 -10.3137
   -10.3131 -10.3005 -10.2922 -10.2893 -10.2866 -10.2682 -10.2605 -10.2589
   -10.2495 -10.2394 -10.2242 -10.2242  -8.9716  -8.2491  -7.4670  -7.3892
    -5.7581  -5.6119  -2.1420  -1.6975  -1.3328  -0.3995   0.6213   0.9182
     1.2292   1.5459   1.7085   1.8815   2.5090   2.5459   2.7215   2.8034
     3.1962   3.5740   3.9185   4.4614   6.6749   7.1638   7.2529   7.5899
     8.1042   8.3838   9.1707   9.3212   9.4090  10.0416  10.0709  10.5214
    11.0071  11.1401  11.3032  11.7227  11.9659  12.4140  12.7332  13.0917

     occupation numbers 
     1.0000   1.0000   1.0000   1.0000   1.0000   1.0000   1.0000   1.0000
     1.0000   1.0000   1.0000   1.0000   1.0000   1.0000   1.0000   1.0000
     1.0000   1.0000   1.0000   1.0000   1.0000   1.0000   1.0000   1.0000
     1.0000   1.0000   1.0000   1.0000   1.0000   1.0000   1.0000   1.0000
     1.0000   1.0000   1.0000   1.0000   1.0000   1.0000   1.0000   1.0000
     1.0000   1.0000   1.0000   1.0000   0.0000   0.0000   0.0000   0.0000
     0.0000   0.0000   0.0000   0.0000   0.0000   0.0000   0.0000   0.0000
     0.0000   0.0000   0.0000   0.0000   0.0000   0.0000   0.0000   0.0000

          k = 0.0000 0.3334 0.2372 (  5034 PWs)   bands (ev):

   -10.5928 -10.5711 -10.5440 -10.4255 -10.3514 -10.3331 -10.3270 -10.3255
   -10.3152 -10.3000 -10.2912 -10.2893 -10.2783 -10.2676 -10.2582 -10.2543
   -10.2520 -10.2372 -10.2244 -10.2179  -9.0680  -8.0926  -7.5152  -7.4067
    -5.7427  -5.5197  -2.2958  -1.8752  -1.4304  -0.2482   0.5988   0.6717
     1.2278   1.5609   1.8250   2.3175   2.3251   2.7059   2.7845   2.8642
     3.3417   3.3968   4.1548   4.3297   6.6796   7.1447   7.2299   7.4239
     8.2789   8.5789   8.8224   9.5266   9.5865   9.6154   9.9313  10.4990
    10.6035  10.9110  11.2603  11.9400  12.1598  12.4252  12.5034  13.0902

     occupation numbers 
     1.0000   1.0000   1.0000   1.0000   1.0000   1.0000   1.0000   1.0000
     1.0000   1.0000   1.0000   1.0000   1.0000   1.0000   1.0000   1.0000
     1.0000   1.0000   1.0000   1.0000   1.0000   1.0000   1.0000   1.0000
     1.0000   1.0000   1.0000   1.0000   1.0000   1.0000   1.0000   1.0000
     1.0000   1.0000   1.0000   1.0000   1.0000   1.0000   1.0000   1.0000
     1.0000   1.0000   1.0000   1.0000   0.0000   0.0000   0.0000   0.0000
     0.0000   0.0000   0.0000   0.0000   0.0000   0.0000   0.0000   0.0000
     0.0000   0.0000   0.0000   0.0000   0.0000   0.0000   0.0000   0.0000

          k = 0.0000 0.3334 0.7116 (  5050 PWs)   bands (ev):

   -10.5890 -10.5818 -10.5025 -10.4628 -10.3410 -10.3380 -10.3270 -10.3198
   -10.3081 -10.2980 -10.2931 -10.2914 -10.2813 -10.2744 -10.2602 -10.2599
   -10.2515 -10.2434 -10.2244 -10.2238  -8.7935  -8.4415  -7.4787  -7.4232
    -5.7142  -5.6465  -1.9820  -1.6987  -1.0120  -0.4432   0.6007   0.6252
     1.1737   1.4179   1.7102   2.0314   2.1648   2.5631   2.7270   2.9528
     3.2021   3.2960   4.2252   4.3450   6.9116   7.0202   7.2685   7.5441
     8.3860   8.4916   8.7708   9.2607   9.8004   9.8970  10.3575  10.5067
    10.7069  10.7152  11.5231  11.8938  12.2680  12.5667  12.9144  13.2196

     occupation numbers 
     1.0000   1.0000   1.0000   1.0000   1.0000   1.0000   1.0000   1.0000
     1.0000   1.0000   1.0000   1.0000   1.0000   1.0000   1.0000   1.0000
     1.0000   1.0000   1.0000   1.0000   1.0000   1.0000   1.0000   1.0000
     1.0000   1.0000   1.0000   1.0000   1.0000   1.0000   1.0000   1.0000
     1.0000   1.0000   1.0000   1.0000   1.0000   1.0000   1.0000   1.0000
     1.0000   1.0000   1.0000   1.0000   0.0000   0.0000   0.0000   0.0000
     0.0000   0.0000   0.0000   0.0000   0.0000   0.0000   0.0000   0.0000
     0.0000   0.0000   0.0000   0.0000   0.0000   0.0000   0.0000   0.0000

          k = 0.3333-0.0042 0.2372 (  5034 PWs)   bands (ev):

   -10.5928 -10.5711 -10.5440 -10.4255 -10.3514 -10.3331 -10.3270 -10.3255
   -10.3151 -10.3001 -10.2912 -10.2893 -10.2783 -10.2676 -10.2582 -10.2543
   -10.2520 -10.2372 -10.2244 -10.2179  -9.0680  -8.0926  -7.5152  -7.4067
    -5.7427  -5.5197  -2.2958  -1.8752  -1.4304  -0.2482   0.5988   0.6717
     1.2278   1.5609   1.8250   2.3175   2.3251   2.7059   2.7845   2.8642
     3.3417   3.3968   4.1548   4.3297   6.6796   7.1447   7.2299   7.4239
     8.2789   8.5789   8.8224   9.5266   9.5865   9.6154   9.9313  10.4990
    10.6035  10.9110  11.2603  11.9400  12.1598  12.4253  12.5034  13.0904

     occupation numbers 
     1.0000   1.0000   1.0000   1.0000   1.0000   1.0000   1.0000   1.0000
     1.0000   1.0000   1.0000   1.0000   1.0000   1.0000   1.0000   1.0000
     1.0000   1.0000   1.0000   1.0000   1.0000   1.0000   1.0000   1.0000
     1.0000   1.0000   1.0000   1.0000   1.0000   1.0000   1.0000   1.0000
     1.0000   1.0000   1.0000   1.0000   1.0000   1.0000   1.0000   1.0000
     1.0000   1.0000   1.0000   1.0000   0.0000   0.0000   0.0000   0.0000
     0.0000   0.0000   0.0000   0.0000   0.0000   0.0000   0.0000   0.0000
     0.0000   0.0000   0.0000   0.0000   0.0000   0.0000   0.0000   0.0000

          k = 0.3333-0.0042 0.7116 (  5050 PWs)   bands (ev):

   -10.5890 -10.5818 -10.5025 -10.4628 -10.3410 -10.3380 -10.3269 -10.3198
   -10.3081 -10.2980 -10.2931 -10.2914 -10.2813 -10.2744 -10.2602 -10.2599
   -10.2515 -10.2433 -10.2244 -10.2238  -8.7935  -8.4415  -7.4787  -7.4231
    -5.7142  -5.6465  -1.9820  -1.6987  -1.0120  -0.4433   0.6007   0.6252
     1.1737   1.4179   1.7102   2.0314   2.1648   2.5631   2.7271   2.9528
     3.2021   3.2960   4.2252   4.3450   6.9116   7.0202   7.2685   7.5441
     8.3860   8.4916   8.7707   9.2607   9.8004   9.8970  10.3575  10.5067
    10.7069  10.7152  11.5231  11.8938  12.2680  12.5667  12.9144  13.2193

     occupation numbers 
     1.0000   1.0000   1.0000   1.0000   1.0000   1.0000   1.0000   1.0000
     1.0000   1.0000   1.0000   1.0000   1.0000   1.0000   1.0000   1.0000
     1.0000   1.0000   1.0000   1.0000   1.0000   1.0000   1.0000   1.0000
     1.0000   1.0000   1.0000   1.0000   1.0000   1.0000   1.0000   1.0000
     1.0000   1.0000   1.0000   1.0000   1.0000   1.0000   1.0000   1.0000
     1.0000   1.0000   1.0000   1.0000   0.0000   0.0000   0.0000   0.0000
     0.0000   0.0000   0.0000   0.0000   0.0000   0.0000   0.0000   0.0000
     0.0000   0.0000   0.0000   0.0000   0.0000   0.0000   0.0000   0.0000

          k = 0.3333 0.3291 0.4744 (  5050 PWs)   bands (ev):

   -10.5890 -10.5818 -10.5025 -10.4628 -10.3410 -10.3380 -10.3269 -10.3198
   -10.3081 -10.2980 -10.2931 -10.2914 -10.2813 -10.2744 -10.2602 -10.2599
   -10.2515 -10.2433 -10.2244 -10.2238  -8.7935  -8.4415  -7.4787  -7.4231
    -5.7142  -5.6465  -1.9820  -1.6987  -1.0120  -0.4433   0.6007   0.6252
     1.1737   1.4179   1.7102   2.0314   2.1648   2.5631   2.7271   2.9528
     3.2021   3.2960   4.2252   4.3450   6.9116   7.0202   7.2685   7.5441
     8.3860   8.4916   8.7708   9.2607   9.8004   9.8970  10.3575  10.5067
    10.7069  10.7153  11.5231  11.8938  12.2680  12.5667  12.9144  13.2192

     occupation numbers 
     1.0000   1.0000   1.0000   1.0000   1.0000   1.0000   1.0000   1.0000
     1.0000   1.0000   1.0000   1.0000   1.0000   1.0000   1.0000   1.0000
     1.0000   1.0000   1.0000   1.0000   1.0000   1.0000   1.0000   1.0000
     1.0000   1.0000   1.0000   1.0000   1.0000   1.0000   1.0000   1.0000
     1.0000   1.0000   1.0000   1.0000   1.0000   1.0000   1.0000   1.0000
     1.0000   1.0000   1.0000   1.0000   0.0000   0.0000   0.0000   0.0000
     0.0000   0.0000   0.0000   0.0000   0.0000   0.0000   0.0000   0.0000
     0.0000   0.0000   0.0000   0.0000   0.0000   0.0000   0.0000   0.0000

          k = 0.3333 0.3291 0.0000 (  5045 PWs)   bands (ev):

   -10.5688 -10.5688 -10.5504 -10.4598 -10.3460 -10.3423 -10.3284 -10.3283
   -10.3086 -10.3011 -10.2870 -10.2780 -10.2780 -10.2737 -10.2562 -10.2554
   -10.2554 -10.2447 -10.2184 -10.2184  -8.9488  -8.1731  -7.5292  -7.5292
    -5.6897  -5.5226  -1.7489  -1.7471  -1.7471  -0.3009   0.4565   0.9649
     1.1451   1.4156   1.4156   1.9451   2.7233   2.7233   2.8553   2.8660
     3.2581   3.2581   4.1393   4.1393   7.0937   7.4600   7.4600   7.4967
     8.2595   8.9289   8.9289   9.2882   9.6401   9.8920  10.1477  10.2337
    10.2337  11.2844  11.2844  11.3649  11.4985  12.1507  12.3987  12.6377

     occupation numbers 
     1.0000   1.0000   1.0000   1.0000   1.0000   1.0000   1.0000   1.0000
     1.0000   1.0000   1.0000   1.0000   1.0000   1.0000   1.0000   1.0000
     1.0000   1.0000   1.0000   1.0000   1.0000   1.0000   1.0000   1.0000
     1.0000   1.0000   1.0000   1.0000   1.0000   1.0000   1.0000   1.0000
     1.0000   1.0000   1.0000   1.0000   1.0000   1.0000   1.0000   1.0000
     1.0000   1.0000   1.0000   1.0000   0.0000   0.0000   0.0000   0.0000
     0.0000   0.0000   0.0000   0.0000   0.0000   0.0000   0.0000   0.0000
     0.0000   0.0000   0.0000   0.0000   0.0000   0.0000   0.0000   0.0000

          k = 0.3333-0.3376-0.0000 (  5037 PWs)   bands (ev):

   -10.5934 -10.5822 -10.5218 -10.4309 -10.3479 -10.3355 -10.3304 -10.3137
   -10.3131 -10.3005 -10.2922 -10.2893 -10.2866 -10.2682 -10.2605 -10.2589
   -10.2495 -10.2394 -10.2242 -10.2242  -8.9716  -8.2491  -7.4670  -7.3892
    -5.7581  -5.6119  -2.1420  -1.6975  -1.3328  -0.3995   0.6213   0.9182
     1.2292   1.5459   1.7085   1.8815   2.5090   2.5459   2.7215   2.8034
     3.1962   3.5740   3.9185   4.4614   6.6749   7.1638   7.2529   7.5899
     8.1042   8.3838   9.1707   9.3212   9.4090  10.0416  10.0709  10.5214
    11.0071  11.1401  11.3032  11.7227  11.9659  12.4140  12.7332  13.0915

     occupation numbers 
     1.0000   1.0000   1.0000   1.0000   1.0000   1.0000   1.0000   1.0000
     1.0000   1.0000   1.0000   1.0000   1.0000   1.0000   1.0000   1.0000
     1.0000   1.0000   1.0000   1.0000   1.0000   1.0000   1.0000   1.0000
     1.0000   1.0000   1.0000   1.0000   1.0000   1.0000   1.0000   1.0000
     1.0000   1.0000   1.0000   1.0000   1.0000   1.0000   1.0000   1.0000
     1.0000   1.0000   1.0000   1.0000   0.0000   0.0000   0.0000   0.0000
     0.0000   0.0000   0.0000   0.0000   0.0000   0.0000   0.0000   0.0000
     0.0000   0.0000   0.0000   0.0000   0.0000   0.0000   0.0000   0.0000

          k = 0.3333-0.3376 0.4744 (  5054 PWs)   bands (ev):

   -10.5850 -10.5674 -10.5214 -10.4689 -10.3493 -10.3353 -10.3280 -10.3214
   -10.3048 -10.3016 -10.2951 -10.2842 -10.2764 -10.2745 -10.2600 -10.2598
   -10.2517 -10.2461 -10.2245 -10.2182  -8.7785  -8.4170  -7.5264  -7.4645
    -5.6951  -5.5871  -1.8926  -1.7497  -1.0069  -0.5015   0.4933   0.7629
     0.9117   1.6005   1.6559   1.7861   2.2943   2.7280   2.7869   2.7949
     3.2236   3.4081   4.2353   4.2611   6.8944   7.2286   7.4492   7.5805
     8.6169   8.6589   9.0930   9.1434   9.4212   9.6827   9.9416  10.1783
    10.6998  11.0730  11.6867  11.8155  11.9550  12.4236  12.4839  13.0401

     occupation numbers 
     1.0000   1.0000   1.0000   1.0000   1.0000   1.0000   1.0000   1.0000
     1.0000   1.0000   1.0000   1.0000   1.0000   1.0000   1.0000   1.0000
     1.0000   1.0000   1.0000   1.0000   1.0000   1.0000   1.0000   1.0000
     1.0000   1.0000   1.0000   1.0000   1.0000   1.0000   1.0000   1.0000
     1.0000   1.0000   1.0000   1.0000   1.0000   1.0000   1.0000   1.0000
     1.0000   1.0000   1.0000   1.0000   0.0000   0.0000   0.0000   0.0000
     0.0000   0.0000   0.0000   0.0000   0.0000   0.0000   0.0000   0.0000
     0.0000   0.0000   0.0000   0.0000   0.0000   0.0000   0.0000   0.0000

     highest occupied, lowest unoccupied level (ev):     4.4614    6.3701

!    total energy              =   -1261.31143463 Ry
     estimated scf accuracy    <       0.00000006 Ry

     The total energy is the sum of the following terms:
     one-electron contribution =    -630.61632326 Ry
     hartree contribution      =     377.32943354 Ry
     xc contribution           =    -215.03381622 Ry
     ewald contribution        =    -349.22349230 Ry
     one-center paw contrib.   =    -443.76723639 Ry
      -> PAW hartree energy AE =     280.42698942 Ry
      -> PAW hartree energy PS =    -276.01998258 Ry
      -> PAW xc energy AE      =    -301.53109325 Ry
      -> PAW xc energy PS      =      75.24047234 Ry
      -> total E_H with PAW    =     381.73644038 Ry
      -> total E_XC with PAW   =    -441.32443713 Ry

     convergence has been achieved in   8 iterations

     Writing all to output data dir calculations_bands/myprefix.save/
 
     init_run     :     17.10s CPU      7.45s WALL (       1 calls)
     electrons    :    173.00s CPU     61.93s WALL (       1 calls)

     Called by init_run:
     wfcinit      :      7.31s CPU      3.47s WALL (       1 calls)
     wfcinit:atom :      0.02s CPU      0.01s WALL (       5 calls)
     wfcinit:wfcr :      7.26s CPU      3.37s WALL (       5 calls)
     potinit      :      4.77s CPU      1.66s WALL (       1 calls)
     hinit0       :      3.48s CPU      1.49s WALL (       1 calls)

     Called by electrons:
     c_bands      :    129.15s CPU     47.01s WALL (       9 calls)
     sum_band     :     23.99s CPU      8.13s WALL (       9 calls)
     v_of_rho     :      2.62s CPU      0.80s WALL (       9 calls)
     v_h          :      0.17s CPU      0.05s WALL (       9 calls)
     v_xc         :      2.45s CPU      0.75s WALL (       9 calls)
     newd         :      8.54s CPU      2.66s WALL (       9 calls)
     PAW_pot      :      9.41s CPU      3.07s WALL (       9 calls)
     mix_rho      :      0.47s CPU      0.15s WALL (       9 calls)

     Called by c_bands:
     init_us_2    :      0.42s CPU      0.22s WALL (      95 calls)
     init_us_2:cp :      0.42s CPU      0.22s WALL (      95 calls)
     cegterg      :    101.81s CPU     32.27s WALL (      45 calls)

     Called by sum_band:
     sum_band:wei :      0.01s CPU      0.00s WALL (       9 calls)
     sum_band:loo :     11.68s CPU      3.47s WALL (       9 calls)
     sum_band:buf :      0.04s CPU      0.02s WALL (      45 calls)
     sum_band:ini :      0.08s CPU      0.02s WALL (      45 calls)
     sum_band:cal :      0.59s CPU      0.18s WALL (      45 calls)
     sum_band:bec :      0.04s CPU      0.01s WALL (      45 calls)
     addusdens    :      4.95s CPU      1.94s WALL (       9 calls)
     addusd:skk   :      0.23s CPU      0.10s WALL (      27 calls)
     addusd:dgemm :      0.55s CPU      0.34s WALL (      27 calls)
     addusd:qvan2 :      2.43s CPU      0.83s WALL (      27 calls)

     Called by *egterg:
     cdiaghg      :     12.46s CPU      3.89s WALL (     251 calls)
     cegterg:over :     10.42s CPU      3.33s WALL (     211 calls)
     cegterg:upda :      2.65s CPU      0.84s WALL (     211 calls)
     cegterg:last :      2.89s CPU      0.93s WALL (     101 calls)
     cdiaghg:chol :      1.04s CPU      0.32s WALL (     251 calls)
     cdiaghg:inve :      0.17s CPU      0.05s WALL (     251 calls)
     cdiaghg:para :      4.25s CPU      1.36s WALL (     502 calls)
     h_psi        :     75.52s CPU     24.85s WALL (     261 calls)
     s_psi        :      0.52s CPU      0.16s WALL (     261 calls)
     g_psi        :      0.03s CPU      0.01s WALL (     211 calls)

     Called by h_psi:
     h_psi:calbec :      3.58s CPU      1.10s WALL (     261 calls)
     vloc_psi     :     71.02s CPU     23.44s WALL (     261 calls)
     add_vuspsi   :      0.83s CPU      0.27s WALL (     261 calls)

     General routines
     calbec       :      4.16s CPU      1.27s WALL (     306 calls)
     fft          :      3.56s CPU      1.25s WALL (     116 calls)
     ffts         :      1.42s CPU      0.52s WALL (      18 calls)
     fftw         :     78.45s CPU     25.47s WALL (   19090 calls)
     interpolate  :      1.24s CPU      0.46s WALL (       9 calls)
 
     Parallel routines

     PAW routines
     PAW_pot      :      9.41s CPU      3.07s WALL (       9 calls)
     PAW_symme    :      0.53s CPU      0.17s WALL (      18 calls)
 
     PWSCF        :   3m12.30s CPU   1m11.61s WALL

 
   This run was terminated on:  18: 0: 3   4Jun2023            

=------------------------------------------------------------------------------=
   JOB DONE.
=------------------------------------------------------------------------------=
