
     Program PWSCF v.7.0 starts on  6Jun2023 at 10:14:17 

     This program is part of the open-source Quantum ESPRESSO suite
     for quantum simulation of materials; please cite
         "P. Giannozzi et al., J. Phys.:Condens. Matter 21 395502 (2009);
         "P. Giannozzi et al., J. Phys.:Condens. Matter 29 465901 (2017);
         "P. Giannozzi et al., J. Chem. Phys. 152 154105 (2020);
          URL http://www.quantum-espresso.org", 
     in publications or presentations arising from this work. More details at
     http://www.quantum-espresso.org/quote

     Parallel version (MPI & OpenMP), running on      32 processor cores
     Number of MPI processes:                 8
     Threads/MPI process:                     4

     MPI processes distributed on     1 nodes
     K-points division:     npool     =       2
     R & G space division:  proc/nbgrp/npool/nimage =       4
     44012 MiB available memory on the printing compute node when the environment starts
 
     Reading input from espresso_16254.pwi
Warning: card &CELL ignored
Warning: card / ignored

     Current dimensions of program PWSCF are:
     Max number of different atomic species (ntypx) = 10
     Max number of k-points (npk) =  40000
     Max angular momentum in pseudopotentials (lmaxx) =  4
     Message from routine setup:
     using ibrav=0 with symmetry is DISCOURAGED, use correct ibrav instead

     Subspace diagonalization in iterative solution of the eigenvalue problem:
     one sub-group per band group will be used
     scalapack distributed-memory algorithm (size of sub-group:  2*  2 procs)

 
     Parallelization info
     --------------------
     sticks:   dense  smooth     PW     G-vecs:    dense   smooth      PW
     Min         354     175     52                26030     9165    1465
     Max         355     176     53                26039     9174    1469
     Sum        1417     703    211               104137    36683    5869
 
     Using Slab Decomposition
 


     bravais-lattice index     =            0
     lattice parameter (alat)  =       9.2695  a.u.
     unit-cell volume          =    1657.6928 (a.u.)^3
     number of atoms/cell      =            9
     number of atomic types    =            2
     number of electrons       =        72.00
     number of Kohn-Sham states=           64
     kinetic-energy cutoff     =      30.0000  Ry
     charge density cutoff     =     240.0000  Ry
     scf convergence threshold =      1.0E-06
     mixing beta               =       0.7000
     number of iterations used =            8  plain     mixing
     Exchange-correlation= SLA  PW   PBE  PBE
                           (   1   4   3   4   0   0   0)

     celldm(1)=   9.269472  celldm(2)=   0.000000  celldm(3)=   0.000000
     celldm(4)=   0.000000  celldm(5)=   0.000000  celldm(6)=   0.000000

     crystal axes: (cart. coord. in units of alat)
               a(1) = (   1.000000   0.000000   0.000000 )  
               a(2) = (  -0.500000   0.866026   0.000000 )  
               a(3) = (   0.000000   0.000000   2.403302 )  

     reciprocal axes: (cart. coord. in units 2 pi/alat)
               b(1) = (  1.000000  0.577350  0.000000 )  
               b(2) = (  0.000000  1.154700  0.000000 )  
               b(3) = (  0.000000  0.000000  0.416094 )  


     PseudoPot. # 1 for Ce read from file:
     /home/pragov/projects/rrg-bengioy-ad/pragov/crystal_structure_design/SSSP/Ce.GGA-PBE-paw-v1.0.UPF
     MD5 check sum: f2b950f613061344c13339c8d844425d
     Pseudo is Projector augmented-wave + core cor, Zval = 12.0
     Generated using ATOMPAW code
     Shape of augmentation charge: BESSEL
     Using radial grid of 1102 points,  8 beta functions with: 
                l(1) =   0
                l(2) =   0
                l(3) =   1
                l(4) =   1
                l(5) =   2
                l(6) =   2
                l(7) =   3
                l(8) =   3
     Q(r) pseudized with 0 coefficients 


     PseudoPot. # 2 for Se read from file:
     /home/pragov/projects/rrg-bengioy-ad/pragov/crystal_structure_design/SSSP/Se_pbe_v1.uspp.F.UPF
     MD5 check sum: 1b3568f3a8ae88f9a2a0ad0698632c85
     Pseudo is Ultrasoft + core correction, Zval =  6.0
     Generated by new atomic code, or converted to UPF format
     Using radial grid of  877 points,  6 beta functions with: 
                l(1) =   0
                l(2) =   0
                l(3) =   1
                l(4) =   1
                l(5) =   2
                l(6) =   2
     Q(r) pseudized with  8 coefficients,  rinner =    1.300   1.300   1.300
                                                       1.300   1.300

     atomic species   valence    mass     pseudopotential
        Ce            12.00   140.11600     Ce( 1.00)
        Se             6.00    78.97100     Se( 1.00)

      3 Sym. Ops. (no inversion) found ( 2 have fractional translation)


                                    s                        frac. trans.

      isym =  1     identity                                     

 cryst.   s( 1) = (     1          0          0      )
                  (     0          1          0      )
                  (     0          0          1      )

 cart.    s( 1) = (  1.0000000 -0.0000000  0.0000000 )
                  (  0.0000000  1.0000000  0.0000000 )
                  (  0.0000000  0.0000000  1.0000000 )


      isym =  2     120 deg rotation - cryst. axis [0,0,1]       

 cryst.   s( 2) = (     0          1          0      )    f =( -0.0000000 )
                  (    -1         -1          0      )       (  0.0000000 )
                  (     0          0          1      )       (  0.3333340 )

 cart.    s( 2) = ( -0.4999999 -0.8660252  0.0000000 )    f =( -0.0000000 )
                  (  0.8660256 -0.5000001  0.0000000 )       (  0.0000000 )
                  (  0.0000000  0.0000000  1.0000000 )       (  0.8011024 )


      isym =  3     120 deg rotation - cryst. axis [0,0,-1]      

 cryst.   s( 3) = (    -1         -1          0      )    f =( -0.0000000 )
                  (     1          0          0      )       ( -0.0000000 )
                  (     0          0          1      )       ( -0.3333330 )

 cart.    s( 3) = ( -0.5000001  0.8660252  0.0000000 )    f =( -0.0000000 )
                  ( -0.8660256 -0.4999999  0.0000000 )       ( -0.0000000 )
                  (  0.0000000  0.0000000  1.0000000 )       ( -0.8011000 )


   Cartesian axes

     site n.     atom                  positions (alat units)
         1           Ce  tau(   1) = (   0.6596460   0.0002702   2.4028673  )
         2           Ce  tau(   2) = (   0.1704110   0.2946202   0.8006674  )
         3           Ce  tau(   3) = (   0.6699430   0.5711352   1.6017673  )
         4           Se  tau(   4) = (   0.1624425   0.2887165   0.1950712  )
         5           Se  tau(   5) = (  -0.3311855   0.5809880   0.9961736  )
         6           Se  tau(   6) = (   0.1687431   0.8623467   1.7972736  )
         7           Se  tau(   7) = (   0.6622520   0.5777690   2.2087453  )
         8           Se  tau(   8) = (   0.1685120   0.2846418   1.4076430  )
         9           Se  tau(   9) = (   0.6692375   0.0036139   0.6065430  )

   Crystallographic axes

     site n.     atom                  positions (cryst. coord.)
         1           Ce  tau(   1) = (  0.6598020  0.0003120  0.9998190  )
         2           Ce  tau(   2) = (  0.3405100  0.3401980  0.3331530  )
         3           Ce  tau(   3) = (  0.9996880  0.6594900  0.6664860  )
         4           Se  tau(   4) = (  0.3291330  0.3333810  0.0811680  )
         5           Se  tau(   5) = (  0.0042480  0.6708670  0.4145020  )
         6           Se  tau(   6) = (  0.6666190  0.9957520  0.7478350  )
         7           Se  tau(   7) = (  0.9958270  0.6671500  0.9190460  )
         8           Se  tau(   8) = (  0.3328500  0.3286760  0.5857120  )
         9           Se  tau(   9) = (  0.6713240  0.0041730  0.2523790  )

     number of k points=     8
                       cart. coord. in units 2pi/alat
        k(    1) = (   0.0000000   0.0000000   0.0000000), wk =   0.0740741
        k(    2) = (   0.0000000   0.0000000   0.1386980), wk =   0.1481481
        k(    3) = (   0.0000000   0.3849001   0.0000000), wk =   0.4444444
        k(    4) = (   0.0000000   0.3849001   0.1386980), wk =   0.4444444
        k(    5) = (   0.3333333   0.5773501   0.0000000), wk =   0.1481481
        k(    6) = (   0.3333333   0.5773501   0.1386980), wk =   0.1481481
        k(    7) = (  -0.3333333   0.1924501   0.1386980), wk =   0.4444444
        k(    8) = (   0.3333333  -0.5773502  -0.1386980), wk =   0.1481481

                       cryst. coord.
        k(    1) = (   0.0000000   0.0000000   0.0000000), wk =   0.0740741
        k(    2) = (   0.0000000   0.0000000   0.3333333), wk =   0.1481481
        k(    3) = (   0.0000000   0.3333333   0.0000000), wk =   0.4444444
        k(    4) = (   0.0000000   0.3333333   0.3333333), wk =   0.4444444
        k(    5) = (   0.3333333   0.3333333   0.0000000), wk =   0.1481481
        k(    6) = (   0.3333333   0.3333333   0.3333333), wk =   0.1481481
        k(    7) = (  -0.3333333   0.3333333   0.3333333), wk =   0.4444444
        k(    8) = (   0.3333333  -0.6666667  -0.3333333), wk =   0.1481481

     Dense  grid:   104137 G-vectors     FFT dimensions: (  45,  45, 120)

     Smooth grid:    36683 G-vectors     FFT dimensions: (  36,  36,  81)

     Dynamical RAM for                 wfc:       1.12 MB

     Dynamical RAM for     wfc (w. buffer):       5.62 MB

     Dynamical RAM for           str. fact:       0.79 MB

     Dynamical RAM for           local pot:       0.00 MB

     Dynamical RAM for          nlocal pot:       3.58 MB

     Dynamical RAM for                qrad:       5.97 MB

     Dynamical RAM for          rho,v,vnew:       2.58 MB

     Dynamical RAM for               rhoin:       0.86 MB

     Dynamical RAM for            rho*nmix:       6.36 MB

     Dynamical RAM for           G-vectors:       1.56 MB

     Dynamical RAM for          h,s,v(r/c):       0.19 MB

     Dynamical RAM for          <psi|beta>:       0.20 MB

     Dynamical RAM for                 psi:       2.25 MB

     Dynamical RAM for                hpsi:       2.25 MB

     Dynamical RAM for                spsi:       2.25 MB

     Dynamical RAM for      wfcinit/wfcrot:       4.54 MB

     Dynamical RAM for           addusdens:     111.63 MB

     Estimated static dynamical RAM per process >      24.47 MB

     Estimated max dynamical RAM per process >     142.46 MB

     Estimated total dynamical RAM >       1.09 GB

     Initial potential from superposition of free atoms

     starting charge      71.9786, renormalised to      72.0000
     Starting wfcs are  120 randomized atomic wfcs
     Checking if some PAW data can be deallocated... 
       PAW data deallocated on    6 nodes for type:  1

     total cpu time spent up to now is        4.3 secs

     Self-consistent Calculation

     iteration #  1     ecut=    30.00 Ry     beta= 0.70
     Davidson diagonalization with overlap

---- Real-time Memory Report at c_bands before calling an iterative solver
           269 MiB given to the printing process from OS
             0 MiB allocation reported by mallinfo(arena+hblkhd)
         43420 MiB available memory on the node where the printing process lives
------------------
     ethr =  1.00E-02,  avg # of iterations =  2.0

     total cpu time spent up to now is        6.1 secs

     total energy              =   -1707.40906786 Ry
     estimated scf accuracy    <       1.55757704 Ry

     iteration #  2     ecut=    30.00 Ry     beta= 0.70
     Davidson diagonalization with overlap

---- Real-time Memory Report at c_bands before calling an iterative solver
           308 MiB given to the printing process from OS
             0 MiB allocation reported by mallinfo(arena+hblkhd)
         43278 MiB available memory on the node where the printing process lives
------------------
     ethr =  2.16E-03,  avg # of iterations =  3.1

     total cpu time spent up to now is        8.3 secs

     total energy              =   -1699.70898258 Ry
     estimated scf accuracy    <     243.01661809 Ry

     iteration #  3     ecut=    30.00 Ry     beta= 0.70
     Davidson diagonalization with overlap

---- Real-time Memory Report at c_bands before calling an iterative solver
           318 MiB given to the printing process from OS
             0 MiB allocation reported by mallinfo(arena+hblkhd)
         43212 MiB available memory on the node where the printing process lives
------------------
     ethr =  2.16E-03,  avg # of iterations =  2.8

     total cpu time spent up to now is       10.2 secs

     total energy              =   -1708.97431152 Ry
     estimated scf accuracy    <       0.21502550 Ry

     iteration #  4     ecut=    30.00 Ry     beta= 0.70
     Davidson diagonalization with overlap

---- Real-time Memory Report at c_bands before calling an iterative solver
           320 MiB given to the printing process from OS
             0 MiB allocation reported by mallinfo(arena+hblkhd)
         43210 MiB available memory on the node where the printing process lives
------------------
     ethr =  2.99E-04,  avg # of iterations =  3.1

     total cpu time spent up to now is       11.6 secs

     total energy              =   -1708.77091169 Ry
     estimated scf accuracy    <       0.24065583 Ry

     iteration #  5     ecut=    30.00 Ry     beta= 0.70
     Davidson diagonalization with overlap

---- Real-time Memory Report at c_bands before calling an iterative solver
           320 MiB given to the printing process from OS
             0 MiB allocation reported by mallinfo(arena+hblkhd)
         43212 MiB available memory on the node where the printing process lives
------------------
     ethr =  2.99E-04,  avg # of iterations =  1.0

     total cpu time spent up to now is       13.4 secs

     total energy              =   -1708.78075441 Ry
     estimated scf accuracy    <       0.23608865 Ry

     iteration #  6     ecut=    30.00 Ry     beta= 0.70
     Davidson diagonalization with overlap

---- Real-time Memory Report at c_bands before calling an iterative solver
           322 MiB given to the printing process from OS
             0 MiB allocation reported by mallinfo(arena+hblkhd)
         43208 MiB available memory on the node where the printing process lives
------------------
     ethr =  2.99E-04,  avg # of iterations =  1.0

     total cpu time spent up to now is       14.8 secs

     total energy              =   -1708.77620447 Ry
     estimated scf accuracy    <       0.08993462 Ry

     iteration #  7     ecut=    30.00 Ry     beta= 0.70
     Davidson diagonalization with overlap

---- Real-time Memory Report at c_bands before calling an iterative solver
           322 MiB given to the printing process from OS
             0 MiB allocation reported by mallinfo(arena+hblkhd)
         43210 MiB available memory on the node where the printing process lives
------------------
     ethr =  1.25E-04,  avg # of iterations =  1.0

     total cpu time spent up to now is       16.5 secs

     total energy              =   -1708.77580808 Ry
     estimated scf accuracy    <       0.01578145 Ry

     iteration #  8     ecut=    30.00 Ry     beta= 0.70
     Davidson diagonalization with overlap

---- Real-time Memory Report at c_bands before calling an iterative solver
           322 MiB given to the printing process from OS
             0 MiB allocation reported by mallinfo(arena+hblkhd)
         43209 MiB available memory on the node where the printing process lives
------------------
     ethr =  2.19E-05,  avg # of iterations =  4.4

     total cpu time spent up to now is       18.5 secs

     total energy              =   -1708.77785004 Ry
     estimated scf accuracy    <       0.00103408 Ry

     iteration #  9     ecut=    30.00 Ry     beta= 0.70
     Davidson diagonalization with overlap

---- Real-time Memory Report at c_bands before calling an iterative solver
           322 MiB given to the printing process from OS
             0 MiB allocation reported by mallinfo(arena+hblkhd)
         43209 MiB available memory on the node where the printing process lives
------------------
     ethr =  1.44E-06,  avg # of iterations = 10.9

     total cpu time spent up to now is       20.2 secs

     total energy              =   -1708.77780959 Ry
     estimated scf accuracy    <       0.00202127 Ry

     iteration # 10     ecut=    30.00 Ry     beta= 0.70
     Davidson diagonalization with overlap

---- Real-time Memory Report at c_bands before calling an iterative solver
           324 MiB given to the printing process from OS
             0 MiB allocation reported by mallinfo(arena+hblkhd)
         43192 MiB available memory on the node where the printing process lives
------------------
     ethr =  1.44E-06,  avg # of iterations =  1.0

     total cpu time spent up to now is       21.6 secs

     total energy              =   -1708.77787126 Ry
     estimated scf accuracy    <       0.00022596 Ry

     iteration # 11     ecut=    30.00 Ry     beta= 0.70
     Davidson diagonalization with overlap

---- Real-time Memory Report at c_bands before calling an iterative solver
           324 MiB given to the printing process from OS
             0 MiB allocation reported by mallinfo(arena+hblkhd)
         43195 MiB available memory on the node where the printing process lives
------------------
     ethr =  3.14E-07,  avg # of iterations =  1.5

     total cpu time spent up to now is       23.0 secs

     total energy              =   -1708.77785767 Ry
     estimated scf accuracy    <       0.00012670 Ry

     iteration # 12     ecut=    30.00 Ry     beta= 0.70
     Davidson diagonalization with overlap

---- Real-time Memory Report at c_bands before calling an iterative solver
           324 MiB given to the printing process from OS
             0 MiB allocation reported by mallinfo(arena+hblkhd)
         43196 MiB available memory on the node where the printing process lives
------------------
     ethr =  1.76E-07,  avg # of iterations =  1.4

     total cpu time spent up to now is       24.5 secs

     total energy              =   -1708.77786962 Ry
     estimated scf accuracy    <       0.00000340 Ry

     iteration # 13     ecut=    30.00 Ry     beta= 0.70
     Davidson diagonalization with overlap

---- Real-time Memory Report at c_bands before calling an iterative solver
           324 MiB given to the printing process from OS
             0 MiB allocation reported by mallinfo(arena+hblkhd)
         43196 MiB available memory on the node where the printing process lives
------------------
     ethr =  4.72E-09,  avg # of iterations =  8.4

     total cpu time spent up to now is       26.5 secs

     End of self-consistent calculation

          k = 0.0000 0.0000 0.0000 (  4479 PWs)   bands (ev):

   -26.3942 -26.3871 -26.3870  -9.3744  -9.3742  -9.1439  -9.1435  -9.1435
    -9.1430  -9.1191  -9.1191  -9.1119  -4.8763  -4.2554  -4.2553  -3.3834
    -3.3833  -3.0100   4.2899   4.2899   4.3719   4.8011   4.8261   4.8261
     4.8515   5.6985   5.6986   6.4184   6.4186   6.7864   6.8041   6.8041
     6.8217   7.4187   7.4789   7.4790   8.4931   8.4958   8.4958   8.4992
     8.5227   8.5229   8.5707   8.5721   8.5722   8.5748   8.5748   8.6632
     8.7673   8.7675   8.7973   8.8031   8.8031   8.8082   9.2478   9.2550
     9.2551  10.0988  10.0988  11.0035  11.0100  11.0100  11.0182  12.1304

     occupation numbers 
     1.0000   1.0000   1.0000   1.0000   1.0000   1.0000   1.0000   1.0000
     1.0000   1.0000   1.0000   1.0000   1.0000   1.0000   1.0000   1.0000
     1.0000   1.0000   1.0000   1.0000   1.0000   1.0000   1.0000   1.0000
     1.0000   1.0000   1.0000   1.0000   1.0000   1.0000   1.0000   1.0000
     1.0000   1.0000   1.0000   1.0000   0.0000   0.0000   0.0000   0.0000
     0.0000   0.0000   0.0000   0.0000   0.0000   0.0000   0.0000   0.0000
     0.0000   0.0000   0.0000   0.0000   0.0000   0.0000   0.0000   0.0000
     0.0000   0.0000   0.0000   0.0000   0.0000   0.0000   0.0000   0.0000

          k = 0.0000 0.0000 0.1387 (  4557 PWs)   bands (ev):

   -26.3931 -26.3903 -26.3850  -9.4410  -9.2640  -9.1574  -9.1505  -9.1504
    -9.1328  -9.1324  -9.1229  -9.1228  -4.7650  -4.4985  -4.1742  -3.3585
    -3.2728  -3.0941   4.3648   4.3670   4.5712   4.5741   4.5925   5.0058
     5.0072   5.1335   6.0144   6.1033   6.6398   6.6402   6.8811   7.0864
     7.0877   7.2714   7.3656   7.3662   8.4065   8.4778   8.4779   8.5332
     8.5332   8.5647   8.5651   8.5700   8.5709   8.5731   8.6721   8.6897
     8.7826   8.8077   8.8236   8.8264   8.8329   8.8350   9.0165   9.0166
     9.0720  10.4982  10.4995  10.8139  10.8140  10.9759  10.9773  12.3097

     occupation numbers 
     1.0000   1.0000   1.0000   1.0000   1.0000   1.0000   1.0000   1.0000
     1.0000   1.0000   1.0000   1.0000   1.0000   1.0000   1.0000   1.0000
     1.0000   1.0000   1.0000   1.0000   1.0000   1.0000   1.0000   1.0000
     1.0000   1.0000   1.0000   1.0000   1.0000   1.0000   1.0000   1.0000
     1.0000   1.0000   1.0000   1.0000   0.0000   0.0000   0.0000   0.0000
     0.0000   0.0000   0.0000   0.0000   0.0000   0.0000   0.0000   0.0000
     0.0000   0.0000   0.0000   0.0000   0.0000   0.0000   0.0000   0.0000
     0.0000   0.0000   0.0000   0.0000   0.0000   0.0000   0.0000   0.0000

          k = 0.0000 0.3849 0.0000 (  4612 PWs)   bands (ev):

   -26.3880 -26.3844 -26.3836  -9.4497  -9.3843  -9.3465  -9.2585  -9.1952
    -9.1820  -9.1562  -9.1507  -9.1472  -4.2240  -3.8773  -3.7448  -3.6413
    -3.5626  -3.4164   4.0736   4.5708   4.7775   4.8061   5.1629   5.1773
     5.2990   5.5987   5.7339   5.8830   5.9678   6.7472   7.1490   7.1506
     7.2591   7.3394   7.4185   7.6101   8.4209   8.4471   8.4800   8.4839
     8.4870   8.5055   8.5200   8.5210   8.5253   8.5766   8.5851   8.5976
     8.6624   8.6688   8.6869   8.6959   8.6988   8.8099   8.8888   9.0256
     9.2115  10.6106  10.7282  10.7990  11.2095  11.2609  11.4254  12.2306

     occupation numbers 
     1.0000   1.0000   1.0000   1.0000   1.0000   1.0000   1.0000   1.0000
     1.0000   1.0000   1.0000   1.0000   1.0000   1.0000   1.0000   1.0000
     1.0000   1.0000   1.0000   1.0000   1.0000   1.0000   1.0000   1.0000
     1.0000   1.0000   1.0000   1.0000   1.0000   1.0000   1.0000   1.0000
     1.0000   1.0000   1.0000   1.0000   0.0000   0.0000   0.0000   0.0000
     0.0000   0.0000   0.0000   0.0000   0.0000   0.0000   0.0000   0.0000
     0.0000   0.0000   0.0000   0.0000   0.0000   0.0000   0.0000   0.0000
     0.0000   0.0000   0.0000   0.0000   0.0000   0.0000   0.0000   0.0000

          k = 0.0000 0.3849 0.1387 (  4603 PWs)   bands (ev):

   -26.3871 -26.3862 -26.3826  -9.4313  -9.4006  -9.3582  -9.2563  -9.1802
    -9.1727  -9.1671  -9.1603  -9.1436  -4.0905  -4.0829  -3.7694  -3.5482
    -3.5031  -3.4714   4.0359   4.7611   4.8097   4.8189   5.0633   5.1481
     5.1854   5.3820   5.8628   6.0968   6.2283   6.3064   6.8250   7.3096
     7.3191   7.4810   7.4921   7.5300   8.4297   8.4466   8.4537   8.4736
     8.4947   8.4982   8.5084   8.5206   8.5415   8.5757   8.5784   8.6014
     8.6192   8.6716   8.7208   8.7335   8.8132   8.8595   8.8643   8.9002
     9.4165  10.7413  10.7765  10.8410  11.0029  11.1758  11.4088  12.1240

     occupation numbers 
     1.0000   1.0000   1.0000   1.0000   1.0000   1.0000   1.0000   1.0000
     1.0000   1.0000   1.0000   1.0000   1.0000   1.0000   1.0000   1.0000
     1.0000   1.0000   1.0000   1.0000   1.0000   1.0000   1.0000   1.0000
     1.0000   1.0000   1.0000   1.0000   1.0000   1.0000   1.0000   1.0000
     1.0000   1.0000   1.0000   1.0000   0.0000   0.0000   0.0000   0.0000
     0.0000   0.0000   0.0000   0.0000   0.0000   0.0000   0.0000   0.0000
     0.0000   0.0000   0.0000   0.0000   0.0000   0.0000   0.0000   0.0000
     0.0000   0.0000   0.0000   0.0000   0.0000   0.0000   0.0000   0.0000

          k = 0.3333 0.5774 0.0000 (  4566 PWs)   bands (ev):

   -26.3834 -26.3833 -26.3830  -9.3676  -9.3662  -9.3657  -9.3276  -9.3237
    -9.3233  -9.1650  -9.1626  -9.1624  -3.7690  -3.7551  -3.7546  -3.5776
    -3.5767  -3.5533   4.2444   4.2447   4.2505   5.0566   5.0680   5.0689
     5.6402   5.6419   5.6925   6.2121   6.2237   6.2238   7.2009   7.2023
     7.2440   7.6198   7.6627   7.6636   8.4140   8.4146   8.4147   8.4705
     8.4705   8.4711   8.5341   8.5369   8.5371   8.5670   8.5674   8.5712
     8.5896   8.5897   8.5948   8.6646   8.6647   8.6654   9.3195   9.3421
     9.3426  10.8293  10.8312  10.8541  11.5170  11.5928  11.5962  12.3890

     occupation numbers 
     1.0000   1.0000   1.0000   1.0000   1.0000   1.0000   1.0000   1.0000
     1.0000   1.0000   1.0000   1.0000   1.0000   1.0000   1.0000   1.0000
     1.0000   1.0000   1.0000   1.0000   1.0000   1.0000   1.0000   1.0000
     1.0000   1.0000   1.0000   1.0000   1.0000   1.0000   1.0000   1.0000
     1.0000   1.0000   1.0000   1.0000   0.0000   0.0000   0.0000   0.0000
     0.0000   0.0000   0.0000   0.0000   0.0000   0.0000   0.0000   0.0000
     0.0000   0.0000   0.0000   0.0000   0.0000   0.0000   0.0000   0.0000
     0.0000   0.0000   0.0000   0.0000   0.0000   0.0000   0.0000   0.0000

          k = 0.3333 0.5774 0.1387 (  4590 PWs)   bands (ev):

   -26.3834 -26.3832 -26.3831  -9.3814  -9.3801  -9.3795  -9.3059  -9.3048
    -9.3035  -9.1714  -9.1711  -9.1664  -3.7656  -3.7607  -3.7484  -3.5865
    -3.5667  -3.5584   4.3715   4.3850   4.3867   4.7611   4.7848   4.7850
     5.7481   5.7550   5.7615   6.3173   6.3264   6.3317   7.2625   7.2691
     7.2963   7.5114   7.5464   7.5508   8.4118   8.4122   8.4126   8.4682
     8.4685   8.4693   8.5099   8.5100   8.5107   8.5745   8.5756   8.5763
     8.6284   8.6289   8.6316   8.6638   8.6653   8.6656   9.2969   9.3057
     9.3189  10.9884  11.0105  11.0281  11.3221  11.3763  11.3919  12.3221

     occupation numbers 
     1.0000   1.0000   1.0000   1.0000   1.0000   1.0000   1.0000   1.0000
     1.0000   1.0000   1.0000   1.0000   1.0000   1.0000   1.0000   1.0000
     1.0000   1.0000   1.0000   1.0000   1.0000   1.0000   1.0000   1.0000
     1.0000   1.0000   1.0000   1.0000   1.0000   1.0000   1.0000   1.0000
     1.0000   1.0000   1.0000   1.0000   0.0000   0.0000   0.0000   0.0000
     0.0000   0.0000   0.0000   0.0000   0.0000   0.0000   0.0000   0.0000
     0.0000   0.0000   0.0000   0.0000   0.0000   0.0000   0.0000   0.0000
     0.0000   0.0000   0.0000   0.0000   0.0000   0.0000   0.0000   0.0000

          k =-0.3333 0.1925 0.1387 (  4603 PWs)   bands (ev):

   -26.3877 -26.3853 -26.3829  -9.4148  -9.3797  -9.3620  -9.3258  -9.1744
    -9.1698  -9.1675  -9.1406  -9.1354  -4.2259  -3.8742  -3.7641  -3.6219
    -3.5735  -3.4069   4.2767   4.4251   4.8820   4.8870   4.9646   5.0069
     5.0829   5.6116   5.6598   6.2270   6.4272   6.7265   6.7800   6.8018
     7.2055   7.5445   7.5804   7.6260   8.4169   8.4594   8.4681   8.4938
     8.4957   8.5027   8.5232   8.5267   8.5445   8.5469   8.5735   8.5752
     8.5930   8.6505   8.7514   8.7745   8.7919   8.8102   8.8280   8.9609
     9.2941  10.6308  10.8764  10.9097  11.0290  11.0372  11.5170  12.0464

     occupation numbers 
     1.0000   1.0000   1.0000   1.0000   1.0000   1.0000   1.0000   1.0000
     1.0000   1.0000   1.0000   1.0000   1.0000   1.0000   1.0000   1.0000
     1.0000   1.0000   1.0000   1.0000   1.0000   1.0000   1.0000   1.0000
     1.0000   1.0000   1.0000   1.0000   1.0000   1.0000   1.0000   1.0000
     1.0000   1.0000   1.0000   1.0000   0.0000   0.0000   0.0000   0.0000
     0.0000   0.0000   0.0000   0.0000   0.0000   0.0000   0.0000   0.0000
     0.0000   0.0000   0.0000   0.0000   0.0000   0.0000   0.0000   0.0000
     0.0000   0.0000   0.0000   0.0000   0.0000   0.0000   0.0000   0.0000

          k = 0.3333-0.5774-0.1387 (  4590 PWs)   bands (ev):

   -26.3834 -26.3832 -26.3831  -9.3810  -9.3803  -9.3798  -9.3066  -9.3043
    -9.3033  -9.1715  -9.1709  -9.1665  -3.7661  -3.7600  -3.7486  -3.5862
    -3.5679  -3.5576   4.3711   4.3850   4.3870   4.7612   4.7843   4.7854
     5.7482   5.7549   5.7614   6.3174   6.3274   6.3307   7.2613   7.2698
     7.2967   7.5123   7.5456   7.5509   8.4119   8.4121   8.4127   8.4682
     8.4684   8.4693   8.5099   8.5100   8.5108   8.5745   8.5756   8.5763
     8.6282   8.6290   8.6316   8.6638   8.6652   8.6658   9.2969   9.3059
     9.3186  10.9867  11.0131  11.0272  11.3240  11.3726  11.3936  12.3232

     occupation numbers 
     1.0000   1.0000   1.0000   1.0000   1.0000   1.0000   1.0000   1.0000
     1.0000   1.0000   1.0000   1.0000   1.0000   1.0000   1.0000   1.0000
     1.0000   1.0000   1.0000   1.0000   1.0000   1.0000   1.0000   1.0000
     1.0000   1.0000   1.0000   1.0000   1.0000   1.0000   1.0000   1.0000
     1.0000   1.0000   1.0000   1.0000   0.0000   0.0000   0.0000   0.0000
     0.0000   0.0000   0.0000   0.0000   0.0000   0.0000   0.0000   0.0000
     0.0000   0.0000   0.0000   0.0000   0.0000   0.0000   0.0000   0.0000
     0.0000   0.0000   0.0000   0.0000   0.0000   0.0000   0.0000   0.0000

     highest occupied, lowest unoccupied level (ev):     7.6636    8.4065

!    total energy              =   -1708.77787675 Ry
     estimated scf accuracy    <       0.00000010 Ry

     The total energy is the sum of the following terms:
     one-electron contribution =     -28.69527446 Ry
     hartree contribution      =      53.55829576 Ry
     xc contribution           =    -209.37460961 Ry
     ewald contribution        =    -299.36226661 Ry
     one-center paw contrib.   =   -1224.90402183 Ry
      -> PAW hartree energy AE =      86.61486808 Ry
      -> PAW hartree energy PS =     -86.11324480 Ry
      -> PAW xc energy AE      =    -834.08423107 Ry
      -> PAW xc energy PS      =      16.97992657 Ry
      -> total E_H with PAW    =      54.05991904 Ry
      -> total E_XC with PAW   =   -1026.47891411 Ry

     convergence has been achieved in  13 iterations

     Writing all to output data dir calculations_bands/myprefix.save/
 
     init_run     :     12.30s CPU      3.96s WALL (       1 calls)
     electrons    :     82.39s CPU     22.25s WALL (       1 calls)

     Called by init_run:
     wfcinit      :      2.29s CPU      0.80s WALL (       1 calls)
     wfcinit:atom :      0.01s CPU      0.00s WALL (       4 calls)
     wfcinit:wfcr :      2.18s CPU      0.76s WALL (       4 calls)
     potinit      :      4.65s CPU      1.33s WALL (       1 calls)
     hinit0       :      3.51s CPU      1.29s WALL (       1 calls)

     Called by electrons:
     c_bands      :     28.60s CPU      7.45s WALL (      13 calls)
     sum_band     :     12.22s CPU      3.64s WALL (      13 calls)
     v_of_rho     :      1.19s CPU      0.32s WALL (      14 calls)
     v_h          :      0.08s CPU      0.02s WALL (      14 calls)
     v_xc         :      1.11s CPU      0.30s WALL (      14 calls)
     newd         :     11.15s CPU      3.28s WALL (      14 calls)
     PAW_pot      :     32.59s CPU      8.54s WALL (      14 calls)
     mix_rho      :      0.39s CPU      0.10s WALL (      13 calls)

     Called by c_bands:
     init_us_2    :      0.23s CPU      0.06s WALL (     108 calls)
     init_us_2:cp :      0.23s CPU      0.06s WALL (     108 calls)
     cegterg      :     24.41s CPU      6.33s WALL (      52 calls)

     Called by sum_band:
     sum_band:wei :      0.03s CPU      0.01s WALL (      13 calls)
     sum_band:loo :      3.81s CPU      0.99s WALL (      13 calls)
     sum_band:buf :      0.04s CPU      0.01s WALL (      52 calls)
     sum_band:ini :      0.10s CPU      0.03s WALL (      52 calls)
     sum_band:cal :      0.27s CPU      0.07s WALL (      52 calls)
     sum_band:bec :      0.03s CPU      0.01s WALL (      52 calls)
     addusdens    :      5.12s CPU      1.79s WALL (      13 calls)
     addusd:skk   :      0.01s CPU      0.00s WALL (      26 calls)
     addusd:dgemm :      0.60s CPU      0.53s WALL (      26 calls)
     addusd:qvan2 :      2.61s CPU      0.65s WALL (      26 calls)

     Called by *egterg:
     cdiaghg      :      4.14s CPU      1.10s WALL (     214 calls)
     cegterg:over :      1.14s CPU      0.30s WALL (     162 calls)
     cegterg:upda :      0.47s CPU      0.12s WALL (     162 calls)
     cegterg:last :      0.68s CPU      0.17s WALL (      93 calls)
     cdiaghg:chol :      0.29s CPU      0.08s WALL (     214 calls)
     cdiaghg:inve :      0.06s CPU      0.02s WALL (     214 calls)
     cdiaghg:para :      0.66s CPU      0.18s WALL (     428 calls)
     h_psi        :     18.66s CPU      4.97s WALL (     218 calls)
     s_psi        :      0.42s CPU      0.11s WALL (     218 calls)
     g_psi        :      0.03s CPU      0.01s WALL (     162 calls)

     Called by h_psi:
     h_psi:calbec :      0.95s CPU      0.26s WALL (     218 calls)
     vloc_psi     :     17.11s CPU      4.55s WALL (     218 calls)
     add_vuspsi   :      0.50s CPU      0.13s WALL (     218 calls)

     General routines
     calbec       :      1.21s CPU      0.33s WALL (     270 calls)
     fft          :      2.33s CPU      0.77s WALL (     180 calls)
     ffts         :      0.77s CPU      0.23s WALL (      27 calls)
     fftw         :     18.36s CPU      4.85s WALL (   20298 calls)
     interpolate  :      0.82s CPU      0.25s WALL (      14 calls)
 
     Parallel routines

     PAW routines
     PAW_pot      :     32.59s CPU      8.54s WALL (      14 calls)
     PAW_symme    :      0.69s CPU      0.18s WALL (      27 calls)
 
     PWSCF        :   1m35.44s CPU     26.78s WALL

 
   This run was terminated on:  10:14:44   6Jun2023            

=------------------------------------------------------------------------------=
   JOB DONE.
=------------------------------------------------------------------------------=
