
     Program PWSCF v.7.0 starts on  6Jun2023 at 14:22:10 

     This program is part of the open-source Quantum ESPRESSO suite
     for quantum simulation of materials; please cite
         "P. Giannozzi et al., J. Phys.:Condens. Matter 21 395502 (2009);
         "P. Giannozzi et al., J. Phys.:Condens. Matter 29 465901 (2017);
         "P. Giannozzi et al., J. Chem. Phys. 152 154105 (2020);
          URL http://www.quantum-espresso.org", 
     in publications or presentations arising from this work. More details at
     http://www.quantum-espresso.org/quote

     Parallel version (MPI & OpenMP), running on      32 processor cores
     Number of MPI processes:                 8
     Threads/MPI process:                     4

     MPI processes distributed on     1 nodes
     K-points division:     npool     =       2
     R & G space division:  proc/nbgrp/npool/nimage =       4
     47203 MiB available memory on the printing compute node when the environment starts
 
     Reading input from espresso_16927.pwi
Warning: card &CELL ignored
Warning: card / ignored

     Current dimensions of program PWSCF are:
     Max number of different atomic species (ntypx) = 10
     Max number of k-points (npk) =  40000
     Max angular momentum in pseudopotentials (lmaxx) =  4
     file Ga.pbe-dn-kjpaw_psl.1.0.0.UPF: wavefunction(s)  4S renormalized
     Message from routine setup:
     using ibrav=0 with symmetry is DISCOURAGED, use correct ibrav instead

     Subspace diagonalization in iterative solution of the eigenvalue problem:
     one sub-group per band group will be used
     scalapack distributed-memory algorithm (size of sub-group:  2*  2 procs)

 
     Parallelization info
     --------------------
     sticks:   dense  smooth     PW     G-vecs:    dense   smooth      PW
     Min         148      76     22                 4956     1760     316
     Max         149      80     23                 4963     1762     319
     Sum         595     313     91                19843     7043    1273
 
     Using Slab Decomposition
 


     bravais-lattice index     =            0
     lattice parameter (alat)  =       6.0779  a.u.
     unit-cell volume          =     316.7859 (a.u.)^3
     number of atoms/cell      =            4
     number of atomic types    =            2
     number of electrons       =        36.00
     number of Kohn-Sham states=           64
     kinetic-energy cutoff     =      30.0000  Ry
     charge density cutoff     =     240.0000  Ry
     scf convergence threshold =      1.0E-06
     mixing beta               =       0.7000
     number of iterations used =            8  plain     mixing
     Exchange-correlation= PBE
                           (   1   4   3   4   0   0   0)

     celldm(1)=   6.077907  celldm(2)=   0.000000  celldm(3)=   0.000000
     celldm(4)=   0.000000  celldm(5)=   0.000000  celldm(6)=   0.000000

     crystal axes: (cart. coord. in units of alat)
               a(1) = (   1.000000   0.000000   0.000000 )  
               a(2) = (  -0.500000   0.866025   0.000000 )  
               a(3) = (   0.000000   0.000000   1.629194 )  

     reciprocal axes: (cart. coord. in units 2 pi/alat)
               b(1) = (  1.000000  0.577350  0.000000 )  
               b(2) = (  0.000000  1.154701  0.000000 )  
               b(3) = (  0.000000  0.000000  0.613800 )  


     PseudoPot. # 1 for Ga read from file:
     /home/pragov/projects/rrg-bengioy-ad/pragov/crystal_structure_design/SSSP/Ga.pbe-dn-kjpaw_psl.1.0.0.UPF
     MD5 check sum: a27b4342b1af7e5f338de752e9ed7044
     Pseudo is Projector augmented-wave + core cor, Zval = 13.0
     Generated using "atomic" code by A. Dal Corso  v.5.1
     Shape of augmentation charge: PSQ
     Using radial grid of 1205 points,  6 beta functions with: 
                l(1) =   0
                l(2) =   0
                l(3) =   1
                l(4) =   1
                l(5) =   2
                l(6) =   2
     Q(r) pseudized with 0 coefficients 


     PseudoPot. # 2 for N  read from file:
     /home/pragov/projects/rrg-bengioy-ad/pragov/crystal_structure_design/SSSP/N.pbe-n-radius_5.UPF
     MD5 check sum: 16739722b17309cd8fe442a2ace49922
     Pseudo is Ultrasoft + core correction, Zval =  5.0
     Generated using "atomic" code by A. Dal Corso  v.5.1
     Using radial grid of 1085 points,  4 beta functions with: 
                l(1) =   0
                l(2) =   0
                l(3) =   1
                l(4) =   1
     Q(r) pseudized with 0 coefficients 


     atomic species   valence    mass     pseudopotential
        Ga            13.00    69.72300     Ga( 1.00)
        N              5.00    14.00700     N ( 1.00)

     12 Sym. Ops. (no inversion) found ( 6 have fractional translation)


                                    s                        frac. trans.

      isym =  1     identity                                     

 cryst.   s( 1) = (     1          0          0      )
                  (     0          1          0      )
                  (     0          0          1      )

 cart.    s( 1) = (  1.0000000  0.0000000  0.0000000 )
                  (  0.0000000  1.0000000  0.0000000 )
                  (  0.0000000  0.0000000  1.0000000 )


      isym =  2     180 deg rotation - cart. axis [0,0,1]        

 cryst.   s( 2) = (    -1          0          0      )    f =(  0.0000000 )
                  (     0         -1          0      )       (  0.0000000 )
                  (     0          0          1      )       ( -0.5000000 )

 cart.    s( 2) = ( -1.0000000 -0.0000000  0.0000000 )    f =( -0.0000000 )
                  (  0.0000000 -1.0000000  0.0000000 )       (  0.0000000 )
                  (  0.0000000  0.0000000  1.0000000 )       ( -0.8145972 )


      isym =  3      60 deg rotation - cryst. axis [0,0,1]       

 cryst.   s( 3) = (     1          1          0      )    f =( -0.0000010 )
                  (    -1          0          0      )       ( -0.0000000 )
                  (     0          0          1      )       ( -0.5000000 )

 cart.    s( 3) = (  0.5000000 -0.8660254  0.0000000 )    f =( -0.0000010 )
                  (  0.8660254  0.5000000  0.0000000 )       ( -0.0000000 )
                  (  0.0000000  0.0000000  1.0000000 )       ( -0.8145972 )


      isym =  4      60 deg rotation - cryst. axis [0,0,-1]      

 cryst.   s( 4) = (     0         -1          0      )    f =( -0.0000000 )
                  (     1          1          0      )       (  0.0000010 )
                  (     0          0          1      )       ( -0.5000000 )

 cart.    s( 4) = (  0.5000000  0.8660254  0.0000000 )    f =( -0.0000005 )
                  ( -0.8660254  0.5000000  0.0000000 )       (  0.0000009 )
                  (  0.0000000  0.0000000  1.0000000 )       ( -0.8145972 )


      isym =  5     120 deg rotation - cryst. axis [0,0,1]       

 cryst.   s( 5) = (     0          1          0      )
                  (    -1         -1          0      )
                  (     0          0          1      )

 cart.    s( 5) = ( -0.5000000 -0.8660254  0.0000000 )
                  (  0.8660254 -0.5000000  0.0000000 )
                  (  0.0000000  0.0000000  1.0000000 )


      isym =  6     120 deg rotation - cryst. axis [0,0,-1]      

 cryst.   s( 6) = (    -1         -1          0      )
                  (     1          0          0      )
                  (     0          0          1      )

 cart.    s( 6) = ( -0.5000000  0.8660254  0.0000000 )
                  ( -0.8660254 -0.5000000  0.0000000 )
                  (  0.0000000  0.0000000  1.0000000 )


      isym =  7     inv. 180 deg rotation - cart. axis [0,1,0]   

 cryst.   s( 7) = (     1          0          0      )    f =( -0.0000010 )
                  (    -1         -1          0      )       (  0.0000000 )
                  (     0          0          1      )       ( -0.5000000 )

 cart.    s( 7) = (  1.0000000  0.0000001  0.0000000 )    f =( -0.0000010 )
                  (  0.0000000 -1.0000000  0.0000000 )       (  0.0000000 )
                  (  0.0000000  0.0000000  1.0000000 )       ( -0.8145972 )


      isym =  8     inv. 180 deg rotation - cart. axis [1,0,0]   

 cryst.   s( 8) = (    -1          0          0      )
                  (     1          1          0      )
                  (     0          0          1      )

 cart.    s( 8) = ( -1.0000000 -0.0000001  0.0000000 )
                  (  0.0000000  1.0000000  0.0000000 )
                  (  0.0000000  0.0000000  1.0000000 )


      isym =  9     inv. 180 deg rotation - cryst. axis [1,-1,0] 

 cryst.   s( 9) = (     0          1          0      )    f =( -0.0000000 )
                  (     1          0          0      )       ( -0.0000000 )
                  (     0          0          1      )       ( -0.5000000 )

 cart.    s( 9) = ( -0.5000000  0.8660254  0.0000000 )    f =( -0.0000000 )
                  (  0.8660254  0.5000000  0.0000000 )       ( -0.0000000 )
                  (  0.0000000  0.0000000  1.0000000 )       ( -0.8145972 )


      isym = 10     inv. 180 deg rotation - cryst. axis [2,1,0]  

 cryst.   s(10) = (    -1         -1          0      )    f =(  0.0000000 )
                  (     0          1          0      )       (  0.0000010 )
                  (     0          0          1      )       ( -0.5000000 )

 cart.    s(10) = ( -0.5000000 -0.8660255  0.0000000 )    f =( -0.0000005 )
                  ( -0.8660254  0.5000000  0.0000000 )       (  0.0000009 )
                  (  0.0000000  0.0000000  1.0000000 )       ( -0.8145972 )


      isym = 11     inv. 180 deg rotation - cryst. axis [0,1,0]  

 cryst.   s(11) = (     1          1          0      )
                  (     0         -1          0      )
                  (     0          0          1      )

 cart.    s(11) = (  0.5000000  0.8660255  0.0000000 )
                  (  0.8660254 -0.5000000  0.0000000 )
                  (  0.0000000  0.0000000  1.0000000 )


      isym = 12     inv. 180 deg rotation - cryst. axis [1,1,0]  

 cryst.   s(12) = (     0         -1          0      )
                  (    -1          0          0      )
                  (     0          0          1      )

 cart.    s(12) = (  0.5000000 -0.8660254  0.0000000 )
                  ( -0.8660254 -0.5000000  0.0000000 )
                  (  0.0000000  0.0000000  1.0000000 )


   Cartesian axes

     site n.     atom                  positions (alat units)
         1           Ga  tau(   1) = (   0.5000005   0.2886748   0.8131635  )
         2           Ga  tau(   2) = (  -0.0000005   0.5773505   1.6277607  )
         3           N   tau(   3) = (   0.5000005   0.2886748   1.4269788  )
         4           N   tau(   4) = (  -0.0000005   0.5773505   0.6123816  )

   Crystallographic axes

     site n.     atom                  positions (cryst. coord.)
         1           Ga  tau(   1) = (  0.6666670  0.3333330  0.4991200  )
         2           Ga  tau(   2) = (  0.3333330  0.6666670  0.9991200  )
         3           N   tau(   3) = (  0.6666670  0.3333330  0.8758800  )
         4           N   tau(   4) = (  0.3333330  0.6666670  0.3758800  )

     number of k points=     6
                       cart. coord. in units 2pi/alat
        k(    1) = (   0.0000000   0.0000000   0.0000000), wk =   0.0740741
        k(    2) = (   0.0000000   0.0000000   0.2046001), wk =   0.1481481
        k(    3) = (   0.0000000   0.3849002   0.0000000), wk =   0.4444444
        k(    4) = (   0.0000000   0.3849002   0.2046001), wk =   0.8888889
        k(    5) = (   0.3333333   0.5773503   0.0000000), wk =   0.1481481
        k(    6) = (   0.3333333   0.5773503   0.2046001), wk =   0.2962963

                       cryst. coord.
        k(    1) = (   0.0000000   0.0000000   0.0000000), wk =   0.0740741
        k(    2) = (   0.0000000   0.0000000   0.3333333), wk =   0.1481481
        k(    3) = (   0.0000000   0.3333333   0.0000000), wk =   0.4444444
        k(    4) = (   0.0000000   0.3333333   0.3333333), wk =   0.8888889
        k(    5) = (   0.3333333   0.3333333   0.0000000), wk =   0.1481481
        k(    6) = (   0.3333333   0.3333333   0.3333333), wk =   0.2962963

     Dense  grid:    19843 G-vectors     FFT dimensions: (  30,  30,  50)

     Smooth grid:     7043 G-vectors     FFT dimensions: (  24,  24,  36)

     Dynamical RAM for                 wfc:       0.21 MB

     Dynamical RAM for     wfc (w. buffer):       0.86 MB

     Dynamical RAM for           str. fact:       0.15 MB

     Dynamical RAM for           local pot:       0.00 MB

     Dynamical RAM for          nlocal pot:       0.17 MB

     Dynamical RAM for                qrad:       2.49 MB

     Dynamical RAM for          rho,v,vnew:       0.49 MB

     Dynamical RAM for               rhoin:       0.16 MB

     Dynamical RAM for            rho*nmix:       1.21 MB

     Dynamical RAM for           G-vectors:       0.30 MB

     Dynamical RAM for          h,s,v(r/c):       0.19 MB

     Dynamical RAM for          <psi|beta>:       0.05 MB

     Dynamical RAM for                 psi:       0.43 MB

     Dynamical RAM for                hpsi:       0.43 MB

     Dynamical RAM for                spsi:       0.43 MB

     Dynamical RAM for      wfcinit/wfcrot:       0.52 MB

     Dynamical RAM for           addusdens:       7.15 MB

     Estimated static dynamical RAM per process >       5.30 MB

     Estimated max dynamical RAM per process >      13.65 MB

     Estimated total dynamical RAM >     104.40 MB

     Check: negative core charge=   -0.000003

     Initial potential from superposition of free atoms

     starting charge      35.9941, renormalised to      36.0000
     Starting wfcs are   26 randomized atomic wfcs +   38 random wfcs
     Checking if some PAW data can be deallocated... 
       PAW data deallocated on    4 nodes for type:  1

     total cpu time spent up to now is        1.7 secs

     Self-consistent Calculation

     iteration #  1     ecut=    30.00 Ry     beta= 0.70
     Davidson diagonalization with overlap

---- Real-time Memory Report at c_bands before calling an iterative solver
           138 MiB given to the printing process from OS
             0 MiB allocation reported by mallinfo(arena+hblkhd)
         46957 MiB available memory on the node where the printing process lives
------------------
     ethr =  1.00E-02,  avg # of iterations =  6.8

     total cpu time spent up to now is        2.8 secs

     total energy              =    -595.60127695 Ry
     estimated scf accuracy    <       1.10221814 Ry

     iteration #  2     ecut=    30.00 Ry     beta= 0.70
     Davidson diagonalization with overlap

---- Real-time Memory Report at c_bands before calling an iterative solver
           151 MiB given to the printing process from OS
             0 MiB allocation reported by mallinfo(arena+hblkhd)
         46869 MiB available memory on the node where the printing process lives
------------------
     ethr =  3.06E-03,  avg # of iterations =  1.8

     total cpu time spent up to now is        3.9 secs

     total energy              =    -595.88339205 Ry
     estimated scf accuracy    <       1.19680142 Ry

     iteration #  3     ecut=    30.00 Ry     beta= 0.70
     Davidson diagonalization with overlap

---- Real-time Memory Report at c_bands before calling an iterative solver
           153 MiB given to the printing process from OS
             0 MiB allocation reported by mallinfo(arena+hblkhd)
         46860 MiB available memory on the node where the printing process lives
------------------
     ethr =  3.06E-03,  avg # of iterations =  1.0

     total cpu time spent up to now is        4.4 secs

     total energy              =    -596.11204470 Ry
     estimated scf accuracy    <       0.00334485 Ry

     iteration #  4     ecut=    30.00 Ry     beta= 0.70
     Davidson diagonalization with overlap

---- Real-time Memory Report at c_bands before calling an iterative solver
           153 MiB given to the printing process from OS
             0 MiB allocation reported by mallinfo(arena+hblkhd)
         46863 MiB available memory on the node where the printing process lives
------------------
     ethr =  9.29E-06,  avg # of iterations =  6.3

     total cpu time spent up to now is        5.1 secs

     total energy              =    -596.11242696 Ry
     estimated scf accuracy    <       0.00021384 Ry

     iteration #  5     ecut=    30.00 Ry     beta= 0.70
     Davidson diagonalization with overlap

---- Real-time Memory Report at c_bands before calling an iterative solver
           154 MiB given to the printing process from OS
             0 MiB allocation reported by mallinfo(arena+hblkhd)
         46853 MiB available memory on the node where the printing process lives
------------------
     ethr =  5.94E-07,  avg # of iterations =  1.7

     total cpu time spent up to now is        5.3 secs

     total energy              =    -596.11244295 Ry
     estimated scf accuracy    <       0.00000509 Ry

     iteration #  6     ecut=    30.00 Ry     beta= 0.70
     Davidson diagonalization with overlap

---- Real-time Memory Report at c_bands before calling an iterative solver
           154 MiB given to the printing process from OS
             0 MiB allocation reported by mallinfo(arena+hblkhd)
         46854 MiB available memory on the node where the printing process lives
------------------
     ethr =  1.41E-08,  avg # of iterations =  4.2

     total cpu time spent up to now is        5.6 secs

     End of self-consistent calculation

          k = 0.0000 0.0000 0.0000 (   881 PWs)   bands (ev):

    -6.3507  -5.5445  -4.2473  -4.2308  -4.2308  -4.1786  -4.1786  -4.0144
    -4.0144  -3.9284  -3.9284  -2.5273   2.5133   8.7751   8.7752   9.9624
    10.0199  10.0200  11.1386  13.5549  18.7379  19.2560  19.2561  19.8885
    21.1121  21.1122  24.5486  27.0373  27.0374  27.4801  27.9071  28.5822
    28.5823  30.7843  35.8914  36.1705  36.1705  38.2403  38.2404  38.6107
    39.9373  39.9373  42.9605  42.9606  43.3867  46.0236  46.0236  47.1936
    53.0010  53.0010  53.3121  54.8185  56.6279  57.7628  59.6575  59.6576
    60.0698  60.0698  60.3998  60.3998  60.5457  60.5971  64.1661  64.2249

     occupation numbers 
     1.0000   1.0000   1.0000   1.0000   1.0000   1.0000   1.0000   1.0000
     1.0000   1.0000   1.0000   1.0000   1.0000   1.0000   1.0000   1.0000
     1.0000   1.0000   0.0000   0.0000   0.0000   0.0000   0.0000   0.0000
     0.0000   0.0000   0.0000   0.0000   0.0000   0.0000   0.0000   0.0000
     0.0000   0.0000   0.0000   0.0000   0.0000   0.0000   0.0000   0.0000
     0.0000   0.0000   0.0000   0.0000   0.0000   0.0000   0.0000   0.0000
     0.0000   0.0000   0.0000   0.0000   0.0000   0.0000   0.0000   0.0000
     0.0000   0.0000   0.0000   0.0000   0.0000   0.0000   0.0000   0.0000

          k = 0.0000 0.0000 0.2046 (   887 PWs)   bands (ev):

    -6.0683  -5.6507  -4.2244  -4.2244  -4.1982  -4.1982  -4.1183  -3.9865
    -3.9865  -3.9437  -3.9437  -3.3843   4.2898   7.4787   9.0676   9.0677
     9.6929   9.6929  12.8968  13.6315  18.1430  18.3413  19.5469  19.5470
    20.4191  20.4192  25.1280  26.7392  28.1711  28.1712  29.4703  29.4703
    31.1138  31.7839  33.9461  33.9461  35.8472  36.3091  36.3091  36.7660
    41.0584  41.0585  42.9336  42.9337  43.3899  44.1202  50.4070  50.4071
    53.2532  53.2532  54.2894  55.3245  56.6843  57.1415  57.1416  58.3255
    58.8643  58.8644  60.2986  60.2986  60.3843  60.3843  60.5314  61.0943

     occupation numbers 
     1.0000   1.0000   1.0000   1.0000   1.0000   1.0000   1.0000   1.0000
     1.0000   1.0000   1.0000   1.0000   1.0000   1.0000   1.0000   1.0000
     1.0000   1.0000   0.0000   0.0000   0.0000   0.0000   0.0000   0.0000
     0.0000   0.0000   0.0000   0.0000   0.0000   0.0000   0.0000   0.0000
     0.0000   0.0000   0.0000   0.0000   0.0000   0.0000   0.0000   0.0000
     0.0000   0.0000   0.0000   0.0000   0.0000   0.0000   0.0000   0.0000
     0.0000   0.0000   0.0000   0.0000   0.0000   0.0000   0.0000   0.0000
     0.0000   0.0000   0.0000   0.0000   0.0000   0.0000   0.0000   0.0000

          k = 0.0000 0.3849 0.0000 (   875 PWs)   bands (ev):

    -5.6903  -5.4344  -4.1864  -4.1701  -4.0975  -4.0471  -4.0462  -4.0191
    -3.9720  -3.9117  -3.5082  -1.9312   3.5815   4.7444   5.7698   7.2668
     8.5185   9.0868  14.2198  15.2842  16.5421  17.9973  19.9711  20.2981
    21.5392  22.6612  22.7988  26.1329  27.7304  28.5080  31.0302  33.4986
    34.4121  34.6176  35.4057  35.9575  36.8624  37.0926  38.3698  38.6968
    39.1741  40.4176  43.5636  44.1443  47.1182  47.6460  48.2036  48.9719
    49.5164  51.2423  51.8250  52.4701  52.8865  54.5978  55.6258  55.9932
    56.6993  57.0581  58.2845  58.5015  59.4278  60.7996  61.0858  61.7350

     occupation numbers 
     1.0000   1.0000   1.0000   1.0000   1.0000   1.0000   1.0000   1.0000
     1.0000   1.0000   1.0000   1.0000   1.0000   1.0000   1.0000   1.0000
     1.0000   1.0000   0.0000   0.0000   0.0000   0.0000   0.0000   0.0000
     0.0000   0.0000   0.0000   0.0000   0.0000   0.0000   0.0000   0.0000
     0.0000   0.0000   0.0000   0.0000   0.0000   0.0000   0.0000   0.0000
     0.0000   0.0000   0.0000   0.0000   0.0000   0.0000   0.0000   0.0000
     0.0000   0.0000   0.0000   0.0000   0.0000   0.0000   0.0000   0.0000
     0.0000   0.0000   0.0000   0.0000   0.0000   0.0000   0.0000   0.0000

          k = 0.0000 0.3849 0.2046 (   881 PWs)   bands (ev):

    -5.5760  -5.4508  -4.1919  -4.1450  -4.1378  -4.0755  -4.0373  -4.0019
    -3.9612  -3.9323  -3.2730  -2.5198   3.7604   4.6961   6.4759   7.6673
     8.4558   8.5596  13.8805  15.0893  16.9467  17.6516  19.5790  20.2261
    20.9129  22.1387  23.4465  26.2076  28.8529  29.4990  30.7722  31.8684
    33.6126  34.1121  35.6098  36.9709  37.9819  38.2365  38.6974  39.6767
    40.0484  40.8198  43.1379  44.0376  45.2035  46.4659  47.0737  48.7679
    48.9769  50.5725  51.1592  51.8530  53.7531  54.0453  55.0571  55.5149
    56.3442  56.9929  58.1086  59.0242  59.6356  59.9023  60.2861  62.2737

     occupation numbers 
     1.0000   1.0000   1.0000   1.0000   1.0000   1.0000   1.0000   1.0000
     1.0000   1.0000   1.0000   1.0000   1.0000   1.0000   1.0000   1.0000
     1.0000   1.0000   0.0000   0.0000   0.0000   0.0000   0.0000   0.0000
     0.0000   0.0000   0.0000   0.0000   0.0000   0.0000   0.0000   0.0000
     0.0000   0.0000   0.0000   0.0000   0.0000   0.0000   0.0000   0.0000
     0.0000   0.0000   0.0000   0.0000   0.0000   0.0000   0.0000   0.0000
     0.0000   0.0000   0.0000   0.0000   0.0000   0.0000   0.0000   0.0000
     0.0000   0.0000   0.0000   0.0000   0.0000   0.0000   0.0000   0.0000

          k = 0.3333 0.5774 0.0000 (   885 PWs)   bands (ev):

    -5.4455  -5.4455  -4.2337  -4.0533  -4.0533  -4.0394  -4.0287  -4.0286
    -3.9847  -3.9444  -2.0579  -2.0579   4.1628   4.1629   4.3257   6.6901
     6.6902   6.9954  15.2509  17.0091  17.0092  18.4825  19.7618  19.7619
    21.7712  21.7713  22.8563  28.7210  28.9311  28.9312  30.3414  33.0480
    33.5018  33.5019  36.0981  36.0982  36.2033  36.5940  38.2024  38.2024
    45.9271  46.0153  46.0154  47.2691  47.2692  48.9161  49.5370  49.5370
    50.8659  50.8968  50.8968  50.9808  51.9604  51.9605  53.1857  53.8763
    53.8763  55.5648  56.0459  56.7181  56.7181  57.2127  57.2128  57.3101

     occupation numbers 
     1.0000   1.0000   1.0000   1.0000   1.0000   1.0000   1.0000   1.0000
     1.0000   1.0000   1.0000   1.0000   1.0000   1.0000   1.0000   1.0000
     1.0000   1.0000   0.0000   0.0000   0.0000   0.0000   0.0000   0.0000
     0.0000   0.0000   0.0000   0.0000   0.0000   0.0000   0.0000   0.0000
     0.0000   0.0000   0.0000   0.0000   0.0000   0.0000   0.0000   0.0000
     0.0000   0.0000   0.0000   0.0000   0.0000   0.0000   0.0000   0.0000
     0.0000   0.0000   0.0000   0.0000   0.0000   0.0000   0.0000   0.0000
     0.0000   0.0000   0.0000   0.0000   0.0000   0.0000   0.0000   0.0000

          k = 0.3333 0.5774 0.2046 (   873 PWs)   bands (ev):

    -5.4165  -5.4164  -4.1744  -4.1147  -4.1147  -4.0617  -3.9904  -3.9861
    -3.9816  -3.9816  -2.0455  -2.0455   3.5378   3.5378   4.8673   6.1554
     7.8450   7.8451  16.2862  16.2863  16.4413  18.0460  18.5577  18.5577
    23.1645  23.1646  23.3189  25.4725  28.4030  28.4030  32.1703  32.6354
    34.4405  34.4406  37.0216  37.0216  38.1407  38.2415  38.3931  38.3931
    44.2661  45.6493  45.6493  46.8626  46.8627  47.2038  47.9322  47.9322
    49.6260  49.6261  49.8137  50.7511  51.3328  51.3328  52.0943  54.8198
    54.8198  55.8724  57.0581  57.0581  57.9921  58.6111  59.5930  59.5930

     occupation numbers 
     1.0000   1.0000   1.0000   1.0000   1.0000   1.0000   1.0000   1.0000
     1.0000   1.0000   1.0000   1.0000   1.0000   1.0000   1.0000   1.0000
     1.0000   1.0000   0.0000   0.0000   0.0000   0.0000   0.0000   0.0000
     0.0000   0.0000   0.0000   0.0000   0.0000   0.0000   0.0000   0.0000
     0.0000   0.0000   0.0000   0.0000   0.0000   0.0000   0.0000   0.0000
     0.0000   0.0000   0.0000   0.0000   0.0000   0.0000   0.0000   0.0000
     0.0000   0.0000   0.0000   0.0000   0.0000   0.0000   0.0000   0.0000
     0.0000   0.0000   0.0000   0.0000   0.0000   0.0000   0.0000   0.0000

     highest occupied, lowest unoccupied level (ev):    10.0200   11.1386

!    total energy              =    -596.11244475 Ry
     estimated scf accuracy    <       0.00000012 Ry

     The total energy is the sum of the following terms:
     one-electron contribution =    -184.42117712 Ry
     hartree contribution      =     128.82487216 Ry
     xc contribution           =     -87.38070749 Ry
     ewald contribution        =    -231.14733478 Ry
     one-center paw contrib.   =    -221.98809751 Ry
      -> PAW hartree energy AE =     142.57834392 Ry
      -> PAW hartree energy PS =    -140.43196148 Ry
      -> PAW xc energy AE      =    -150.94104371 Ry
      -> PAW xc energy PS      =      37.80061251 Ry
      -> total E_H with PAW    =     130.97125460 Ry
      -> total E_XC with PAW   =    -200.52113869 Ry

     convergence has been achieved in   6 iterations

     Writing all to output data dir calculations_bands/myprefix.save/
 
     init_run     :      4.85s CPU      1.56s WALL (       1 calls)
     electrons    :     13.20s CPU      3.89s WALL (       1 calls)

     Called by init_run:
     wfcinit      :      0.40s CPU      0.11s WALL (       1 calls)
     wfcinit:atom :      0.00s CPU      0.00s WALL (       3 calls)
     wfcinit:wfcr :      0.39s CPU      0.10s WALL (       3 calls)
     potinit      :      1.84s CPU      0.60s WALL (       1 calls)
     hinit0       :      1.29s CPU      0.38s WALL (       1 calls)

     Called by electrons:
     c_bands      :      9.24s CPU      2.71s WALL (       6 calls)
     sum_band     :      1.46s CPU      0.44s WALL (       6 calls)
     v_of_rho     :      0.12s CPU      0.04s WALL (       7 calls)
     v_h          :      0.01s CPU      0.00s WALL (       7 calls)
     v_xc         :      0.11s CPU      0.03s WALL (       7 calls)
     newd         :      0.88s CPU      0.27s WALL (       7 calls)
     PAW_pot      :      2.32s CPU      0.70s WALL (       7 calls)
     mix_rho      :      0.02s CPU      0.01s WALL (       6 calls)

     Called by c_bands:
     init_us_2    :      0.02s CPU      0.01s WALL (      39 calls)
     init_us_2:cp :      0.02s CPU      0.01s WALL (      39 calls)
     cegterg      :      7.81s CPU      2.29s WALL (      18 calls)

     Called by sum_band:
     sum_band:wei :      0.00s CPU      0.00s WALL (       6 calls)
     sum_band:loo :      0.79s CPU      0.23s WALL (       6 calls)
     sum_band:buf :      0.00s CPU      0.00s WALL (      18 calls)
     sum_band:ini :      0.01s CPU      0.00s WALL (      18 calls)
     sum_band:cal :      0.02s CPU      0.01s WALL (      18 calls)
     sum_band:bec :      0.01s CPU      0.00s WALL (      18 calls)
     addusdens    :      0.22s CPU      0.07s WALL (       6 calls)
     addusd:skk   :      0.02s CPU      0.01s WALL (      12 calls)
     addusd:dgemm :      0.02s CPU      0.01s WALL (      12 calls)
     addusd:qvan2 :      0.12s CPU      0.03s WALL (      12 calls)

     Called by *egterg:
     cdiaghg      :      1.76s CPU      0.51s WALL (      88 calls)
     cegterg:over :      0.24s CPU      0.07s WALL (      70 calls)
     cegterg:upda :      0.15s CPU      0.04s WALL (      70 calls)
     cegterg:last :      0.43s CPU      0.13s WALL (      41 calls)
     cdiaghg:chol :      0.10s CPU      0.03s WALL (      88 calls)
     cdiaghg:inve :      0.02s CPU      0.01s WALL (      88 calls)
     cdiaghg:para :      0.35s CPU      0.10s WALL (     176 calls)
     h_psi        :      5.46s CPU      1.58s WALL (      91 calls)
     s_psi        :      0.02s CPU      0.00s WALL (      91 calls)
     g_psi        :      0.00s CPU      0.00s WALL (      70 calls)

     Called by h_psi:
     h_psi:calbec :      0.09s CPU      0.02s WALL (      91 calls)
     vloc_psi     :      5.33s CPU      1.55s WALL (      91 calls)
     add_vuspsi   :      0.03s CPU      0.01s WALL (      91 calls)

     General routines
     calbec       :      0.10s CPU      0.03s WALL (     109 calls)
     fft          :      0.65s CPU      0.20s WALL (      89 calls)
     ffts         :      0.64s CPU      0.22s WALL (      13 calls)
     fftw         :      5.72s CPU      1.67s WALL (    7532 calls)
     interpolate  :      0.66s CPU      0.23s WALL (       7 calls)
 
     Parallel routines

     PAW routines
     PAW_pot      :      2.32s CPU      0.70s WALL (       7 calls)
     PAW_symme    :      0.15s CPU      0.05s WALL (      13 calls)
 
     PWSCF        :     19.19s CPU      6.47s WALL

 
   This run was terminated on:  14:22:16   6Jun2023            

=------------------------------------------------------------------------------=
   JOB DONE.
=------------------------------------------------------------------------------=
