
     Program PWSCF v.7.1 starts on 16Jul2023 at 12:56: 1 

     This program is part of the open-source Quantum ESPRESSO suite
     for quantum simulation of materials; please cite
         "P. Giannozzi et al., J. Phys.:Condens. Matter 21 395502 (2009);
         "P. Giannozzi et al., J. Phys.:Condens. Matter 29 465901 (2017);
         "P. Giannozzi et al., J. Chem. Phys. 152 154105 (2020);
          URL http://www.quantum-espresso.org", 
     in publications or presentations arising from this work. More details at
     http://www.quantum-espresso.org/quote

     Parallel version (MPI & OpenMP), running on      32 processor cores
     Number of MPI processes:                 8
     Threads/MPI process:                     4

     MPI processes distributed on     1 nodes
     172796 MiB available memory on the printing compute node when the environment starts
 
     Reading input from espresso_23885.pwi
Warning: card &CELL ignored
Warning: card / ignored

     Current dimensions of program PWSCF are:
     Max number of different atomic species (ntypx) = 10
     Max number of k-points (npk) =  40000
     Max angular momentum in pseudopotentials (lmaxx) =  4
     file K.pbe-spn-kjpaw_psl.1.0.0.UPF: wavefunction(s)  3S renormalized
     Message from routine setup:
     using ibrav=0 with symmetry is DISCOURAGED, use correct ibrav instead
 
     K-points division:     npool     =       2
     R & G space division:  proc/nbgrp/npool/nimage =       4
     Subspace diagonalization in iterative solution of the eigenvalue problem:
     a serial algorithm will be used

 
     Parallelization info
     --------------------
     sticks:   dense  smooth     PW     G-vecs:    dense   smooth      PW
     Min         515     259     75                15607     5513     861
     Max         517     260     76                15609     5516     864
     Sum        2065    1039    301                62433    22057    3449
 
     Using Slab Decomposition
 


     bravais-lattice index     =            0
     lattice parameter (alat)  =      11.1728  a.u.
     unit-cell volume          =     992.0360 (a.u.)^3
     number of atoms/cell      =            9
     number of atomic types    =            3
     number of electrons       =        78.00
     number of Kohn-Sham states=           64
     kinetic-energy cutoff     =      30.0000  Ry
     charge density cutoff     =     240.0000  Ry
     scf convergence threshold =      1.0E-06
     mixing beta               =       0.7000
     number of iterations used =            8  plain     mixing
     Exchange-correlation=  SLA  PW   PBX  PBC
                           (   1   4   3   4   0   0   0)

     celldm(1)=  11.172798  celldm(2)=   0.000000  celldm(3)=   0.000000
     celldm(4)=   0.000000  celldm(5)=   0.000000  celldm(6)=   0.000000

     crystal axes: (cart. coord. in units of alat)
               a(1) = (   1.000000   0.000000   0.000000 )  
               a(2) = (  -0.500000   0.866025   0.000000 )  
               a(3) = (   0.000000   0.000000   0.821317 )  

     reciprocal axes: (cart. coord. in units 2 pi/alat)
               b(1) = (  1.000000  0.577350  0.000000 )  
               b(2) = (  0.000000  1.154701  0.000000 )  
               b(3) = (  0.000000  0.000000  1.217556 )  


     PseudoPot. # 1 for K  read from file:
     /lustre07/scratch/pragov/crystal_structure_design/utils/SSSP/K.pbe-spn-kjpaw_psl.1.0.0.UPF
     MD5 check sum: 7d58810084cac21f60fbe77ea2b688fd
     Pseudo is Projector augmented-wave + core cor, Zval =  9.0
     Generated using "atomic" code by A. Dal Corso  v.5.1
     Shape of augmentation charge: PSQ
     Using radial grid of 1165 points,  6 beta functions with: 
                l(1) =   0
                l(2) =   0
                l(3) =   1
                l(4) =   1
                l(5) =   2
                l(6) =   2
     Q(r) pseudized with 0 coefficients 


     PseudoPot. # 2 for Pd read from file:
     /lustre07/scratch/pragov/crystal_structure_design/utils/SSSP/Pd_ONCV_PBE-1.0.oncvpsp.upf
     MD5 check sum: eb77f42b51d86fb18e25f68156a31cf1
     Pseudo is Norm-conserving, Zval = 18.0
     Generated using ONCVPSP code by D. R. Hamann
     Using radial grid of 1410 points,  6 beta functions with: 
                l(1) =   0
                l(2) =   0
                l(3) =   1
                l(4) =   1
                l(5) =   2
                l(6) =   2

     PseudoPot. # 3 for F  read from file:
     /lustre07/scratch/pragov/crystal_structure_design/utils/SSSP/f_pbe_v1.4.uspp.F.UPF
     MD5 check sum: 4c38b6a325caf53ec0e86aed9459de46
     Pseudo is Ultrasoft, Zval =  7.0
     Generated by new atomic code, or converted to UPF format
     Using radial grid of  799 points,  4 beta functions with: 
                l(1) =   0
                l(2) =   0
                l(3) =   1
                l(4) =   1
     Q(r) pseudized with  8 coefficients,  rinner =    0.950   0.950   0.950


     atomic species   valence    mass     pseudopotential
        K              9.00    39.09830     K ( 1.00)
        Pd            18.00   106.42000     Pd( 1.00)
        F              7.00    18.99840     F ( 1.00)

     12 Sym. Ops., with inversion, found


                                    s                        frac. trans.

      isym =  1     identity                                     

 cryst.   s( 1) = (     1          0          0      )
                  (     0          1          0      )
                  (     0          0          1      )

 cart.    s( 1) = (  1.0000000  0.0000000  0.0000000 )
                  (  0.0000000  1.0000000  0.0000000 )
                  (  0.0000000  0.0000000  1.0000000 )


      isym =  2     180 deg rotation - cart. axis [1,0,0]        

 cryst.   s( 2) = (     1          0          0      )
                  (    -1         -1          0      )
                  (     0          0         -1      )

 cart.    s( 2) = (  1.0000000  0.0000000  0.0000000 )
                  (  0.0000000 -1.0000000  0.0000000 )
                  (  0.0000000  0.0000000 -1.0000000 )


      isym =  3     120 deg rotation - cryst. axis [0,0,1]       

 cryst.   s( 3) = (     0          1          0      )
                  (    -1         -1          0      )
                  (     0          0          1      )

 cart.    s( 3) = ( -0.5000000 -0.8660254  0.0000000 )
                  (  0.8660254 -0.5000000  0.0000000 )
                  (  0.0000000  0.0000000  1.0000000 )


      isym =  4     120 deg rotation - cryst. axis [0,0,-1]      

 cryst.   s( 4) = (    -1         -1          0      )
                  (     1          0          0      )
                  (     0          0          1      )

 cart.    s( 4) = ( -0.5000000  0.8660254  0.0000000 )
                  ( -0.8660254 -0.5000000  0.0000000 )
                  (  0.0000000  0.0000000  1.0000000 )


      isym =  5     180 deg rotation - cryst. axis [0,1,0]       

 cryst.   s( 5) = (    -1         -1          0      )
                  (     0          1          0      )
                  (     0          0         -1      )

 cart.    s( 5) = ( -0.5000000 -0.8660254  0.0000000 )
                  ( -0.8660254  0.5000000  0.0000000 )
                  (  0.0000000  0.0000000 -1.0000000 )


      isym =  6     180 deg rotation - cryst. axis [1,1,0]       

 cryst.   s( 6) = (     0          1          0      )
                  (     1          0          0      )
                  (     0          0         -1      )

 cart.    s( 6) = ( -0.5000000  0.8660254  0.0000000 )
                  (  0.8660254  0.5000000  0.0000000 )
                  (  0.0000000  0.0000000 -1.0000000 )


      isym =  7     inversion                                    

 cryst.   s( 7) = (    -1          0          0      )
                  (     0         -1          0      )
                  (     0          0         -1      )

 cart.    s( 7) = ( -1.0000000  0.0000000  0.0000000 )
                  (  0.0000000 -1.0000000  0.0000000 )
                  (  0.0000000  0.0000000 -1.0000000 )


      isym =  8     inv. 180 deg rotation - cart. axis [1,0,0]   

 cryst.   s( 8) = (    -1          0          0      )
                  (     1          1          0      )
                  (     0          0          1      )

 cart.    s( 8) = ( -1.0000000 -0.0000000  0.0000000 )
                  (  0.0000000  1.0000000  0.0000000 )
                  (  0.0000000  0.0000000  1.0000000 )


      isym =  9     inv. 120 deg rotation - cryst. axis [0,0,1]  

 cryst.   s( 9) = (     0         -1          0      )
                  (     1          1          0      )
                  (     0          0         -1      )

 cart.    s( 9) = (  0.5000000  0.8660254  0.0000000 )
                  ( -0.8660254  0.5000000  0.0000000 )
                  (  0.0000000  0.0000000 -1.0000000 )


      isym = 10     inv. 120 deg rotation - cryst. axis [0,0,-1] 

 cryst.   s(10) = (     1          1          0      )
                  (    -1          0          0      )
                  (     0          0         -1      )

 cart.    s(10) = (  0.5000000 -0.8660254  0.0000000 )
                  (  0.8660254  0.5000000  0.0000000 )
                  (  0.0000000  0.0000000 -1.0000000 )


      isym = 11     inv. 180 deg rotation - cryst. axis [0,1,0]  

 cryst.   s(11) = (     1          1          0      )
                  (     0         -1          0      )
                  (     0          0          1      )

 cart.    s(11) = (  0.5000000  0.8660254  0.0000000 )
                  (  0.8660254 -0.5000000  0.0000000 )
                  (  0.0000000  0.0000000  1.0000000 )


      isym = 12     inv. 180 deg rotation - cryst. axis [1,1,0]  

 cryst.   s(12) = (     0         -1          0      )
                  (    -1          0          0      )
                  (     0          0          1      )

 cart.    s(12) = (  0.5000000 -0.8660254  0.0000000 )
                  ( -0.8660254 -0.5000000  0.0000000 )
                  (  0.0000000  0.0000000  1.0000000 )


   Cartesian axes

     site n.     atom                  positions (alat units)
         1           K   tau(   1) = (  -0.0000005   0.5773506   0.5906240  )
         2           K   tau(   2) = (   0.5000005   0.2886748   0.2306932  )
         3           Pd  tau(   3) = (   0.0000000   0.0000000   0.0000000  )
         4           F   tau(   4) = (   0.7598500   0.1386507   0.6404492  )
         5           F   tau(   5) = (   0.4999995   0.5887249   0.6404492  )
         6           F   tau(   6) = (   0.2401490   0.1386507   0.6404492  )
         7           F   tau(   7) = (  -0.2598500   0.7273747   0.1808680  )
         8           F   tau(   8) = (   0.0000005   0.2773005   0.1808680  )
         9           F   tau(   9) = (   0.2598510   0.7273747   0.1808680  )

   Crystallographic axes

     site n.     atom                  positions (cryst. coord.)
         1           K   tau(   1) = (  0.3333330  0.6666670  0.7191180  )
         2           K   tau(   2) = (  0.6666670  0.3333330  0.2808820  )
         3           Pd  tau(   3) = (  0.0000000  0.0000000  0.0000000  )
         4           F   tau(   4) = (  0.8399000  0.1601000  0.7797830  )
         5           F   tau(   5) = (  0.8399000  0.6798010  0.7797830  )
         6           F   tau(   6) = (  0.3201990  0.1601000  0.7797830  )
         7           F   tau(   7) = (  0.1601000  0.8399000  0.2202170  )
         8           F   tau(   8) = (  0.1601000  0.3201990  0.2202170  )
         9           F   tau(   9) = (  0.6798010  0.8399000  0.2202170  )

     number of k points=     7
                       cart. coord. in units 2pi/alat
        k(    1) = (   0.0000000   0.0000000   0.0000000), wk =   0.0740741
        k(    2) = (   0.0000000   0.0000000   0.4058521), wk =   0.1481481
        k(    3) = (   0.0000000   0.3849002   0.0000000), wk =   0.4444444
        k(    4) = (   0.0000000   0.3849002   0.4058521), wk =   0.4444444
        k(    5) = (   0.3333333   0.5773503   0.0000000), wk =   0.1481481
        k(    6) = (   0.3333333   0.5773503   0.4058521), wk =   0.2962963
        k(    7) = (   0.0000000   0.3849002  -0.4058521), wk =   0.4444444

                       cryst. coord.
        k(    1) = (   0.0000000   0.0000000   0.0000000), wk =   0.0740741
        k(    2) = (   0.0000000   0.0000000   0.3333333), wk =   0.1481481
        k(    3) = (   0.0000000   0.3333333   0.0000000), wk =   0.4444444
        k(    4) = (   0.0000000   0.3333333   0.3333333), wk =   0.4444444
        k(    5) = (   0.3333333   0.3333333   0.0000000), wk =   0.1481481
        k(    6) = (   0.3333333   0.3333333   0.3333333), wk =   0.2962963
        k(    7) = (   0.0000000   0.3333333  -0.3333333), wk =   0.4444444

     Dense  grid:    62433 G-vectors     FFT dimensions: (  60,  60,  45)

     Smooth grid:    22057 G-vectors     FFT dimensions: (  40,  40,  32)

     Dynamical RAM for                 wfc:       0.67 MB

     Dynamical RAM for     wfc (w. buffer):       3.36 MB

     Dynamical RAM for           str. fact:       0.71 MB

     Dynamical RAM for           local pot:       0.00 MB

     Dynamical RAM for          nlocal pot:       1.07 MB

     Dynamical RAM for                qrad:       3.73 MB

     Dynamical RAM for          rho,v,vnew:       1.70 MB

     Dynamical RAM for               rhoin:       0.57 MB

     Dynamical RAM for            rho*nmix:       3.81 MB

     Dynamical RAM for           G-vectors:       0.94 MB

     Dynamical RAM for          h,s,v(r/c):       0.75 MB

     Dynamical RAM for          <psi|beta>:       0.10 MB

     Dynamical RAM for                 psi:       1.34 MB

     Dynamical RAM for                hpsi:       1.34 MB

     Dynamical RAM for                spsi:       1.34 MB

     Dynamical RAM for      wfcinit/wfcrot:       1.44 MB

     Dynamical RAM for           addusdens:      22.98 MB

     Estimated static dynamical RAM per process >      14.68 MB

     Estimated max dynamical RAM per process >      41.48 MB

     Estimated total dynamical RAM >     316.57 MB

     Check: negative core charge=   -0.000003

     Initial potential from superposition of free atoms

     starting charge      77.9620, renormalised to      78.0000
     Starting wfcs are   50 randomized atomic wfcs +   14 random wfcs
     Checking if some PAW data can be deallocated... 
       PAW data deallocated on    7 nodes for type:  1

     total cpu time spent up to now is        1.0 secs

     Self-consistent Calculation

     iteration #  1     ecut=    30.00 Ry     beta= 0.70
     Davidson diagonalization with overlap

---- Real-time Memory Report at c_bands before calling an iterative solver
           222 MiB given to the printing process from OS
             0 MiB allocation reported by mallinfo(arena+hblkhd)
        177202 MiB available memory on the node where the printing process lives
------------------
     ethr =  1.00E-02,  avg # of iterations =  6.4

     total cpu time spent up to now is        1.8 secs

     total energy              =    -770.34804865 Ry
     estimated scf accuracy    <       1.31971977 Ry

     iteration #  2     ecut=    30.00 Ry     beta= 0.70
     Davidson diagonalization with overlap

---- Real-time Memory Report at c_bands before calling an iterative solver
           245 MiB given to the printing process from OS
             0 MiB allocation reported by mallinfo(arena+hblkhd)
        177122 MiB available memory on the node where the printing process lives
------------------
     ethr =  1.69E-03,  avg # of iterations =  2.0

     total cpu time spent up to now is        2.4 secs

     total energy              =    -770.28983263 Ry
     estimated scf accuracy    <       4.73443666 Ry

     iteration #  3     ecut=    30.00 Ry     beta= 0.70
     Davidson diagonalization with overlap

---- Real-time Memory Report at c_bands before calling an iterative solver
           249 MiB given to the printing process from OS
             0 MiB allocation reported by mallinfo(arena+hblkhd)
        177086 MiB available memory on the node where the printing process lives
------------------
     ethr =  1.69E-03,  avg # of iterations =  2.0

     total cpu time spent up to now is        3.1 secs

     total energy              =    -771.05133617 Ry
     estimated scf accuracy    <       0.03173081 Ry

     iteration #  4     ecut=    30.00 Ry     beta= 0.70
     Davidson diagonalization with overlap

---- Real-time Memory Report at c_bands before calling an iterative solver
           250 MiB given to the printing process from OS
             0 MiB allocation reported by mallinfo(arena+hblkhd)
        177074 MiB available memory on the node where the printing process lives
------------------
     ethr =  4.07E-05,  avg # of iterations =  2.4

     total cpu time spent up to now is        4.2 secs

     total energy              =    -771.05807016 Ry
     estimated scf accuracy    <       0.00476518 Ry

     iteration #  5     ecut=    30.00 Ry     beta= 0.70
     Davidson diagonalization with overlap

---- Real-time Memory Report at c_bands before calling an iterative solver
           254 MiB given to the printing process from OS
             0 MiB allocation reported by mallinfo(arena+hblkhd)
        177070 MiB available memory on the node where the printing process lives
------------------
     ethr =  6.11E-06,  avg # of iterations =  5.9

     total cpu time spent up to now is        4.9 secs

     total energy              =    -771.05886774 Ry
     estimated scf accuracy    <       0.00004874 Ry

     iteration #  6     ecut=    30.00 Ry     beta= 0.70
     Davidson diagonalization with overlap

---- Real-time Memory Report at c_bands before calling an iterative solver
           254 MiB given to the printing process from OS
             0 MiB allocation reported by mallinfo(arena+hblkhd)
        177070 MiB available memory on the node where the printing process lives
------------------
     ethr =  6.25E-08,  avg # of iterations =  2.0

     total cpu time spent up to now is        5.5 secs

     total energy              =    -771.05887739 Ry
     estimated scf accuracy    <       0.00000129 Ry

     iteration #  7     ecut=    30.00 Ry     beta= 0.70
     Davidson diagonalization with overlap

---- Real-time Memory Report at c_bands before calling an iterative solver
           254 MiB given to the printing process from OS
             0 MiB allocation reported by mallinfo(arena+hblkhd)
        177067 MiB available memory on the node where the printing process lives
------------------
     ethr =  1.66E-09,  avg # of iterations =  2.0

     total cpu time spent up to now is        6.2 secs

     End of self-consistent calculation

          k = 0.0000 0.0000 0.0000 (  2775 PWs)   bands (ev):

   -83.9889 -49.3259 -49.3259 -49.1960 -24.4778 -24.4502 -18.9273 -18.5280
   -18.5279 -18.4687 -18.4687 -18.3998  -8.0311  -8.0311  -8.0037  -7.9152
    -7.9152  -7.9037  -2.9140  -2.9140  -2.1088  -1.7998  -1.7998  -1.7914
    -0.8533  -0.6755  -0.6755   0.4644   0.4644   0.5582   0.7241   0.7242
     0.8883   1.0618   1.0618   1.1551   1.9488   2.0765   2.0765   4.5693
     4.5693   8.4949  12.1025  12.4584  12.4584  12.5631  12.5632  12.8883
    12.8883  13.5872  14.3869  14.3869  14.3969  14.8768  15.6451  15.8759
    15.8760  17.5043  17.5043  17.5656  18.1807  19.6156  20.0012  20.0012

     occupation numbers 
     1.0000   1.0000   1.0000   1.0000   1.0000   1.0000   1.0000   1.0000
     1.0000   1.0000   1.0000   1.0000   1.0000   1.0000   1.0000   1.0000
     1.0000   1.0000   1.0000   1.0000   1.0000   1.0000   1.0000   1.0000
     1.0000   1.0000   1.0000   1.0000   1.0000   1.0000   1.0000   1.0000
     1.0000   1.0000   1.0000   1.0000   1.0000   1.0000   1.0000   0.0000
     0.0000   0.0000   0.0000   0.0000   0.0000   0.0000   0.0000   0.0000
     0.0000   0.0000   0.0000   0.0000   0.0000   0.0000   0.0000   0.0000
     0.0000   0.0000   0.0000   0.0000   0.0000   0.0000   0.0000   0.0000

          k = 0.0000 0.0000 0.4059 (  2752 PWs)   bands (ev):

   -83.9888 -49.3251 -49.3251 -49.1946 -24.4702 -24.4542 -18.8907 -18.5511
   -18.5511 -18.4494 -18.4429 -18.4429  -8.0133  -8.0133  -7.9773  -7.9486
    -7.9486  -7.9283  -2.9155  -2.9155  -2.0422  -1.8595  -1.8595  -1.6077
    -0.8500  -0.7108  -0.7107   0.3444   0.6294   0.6496   0.6496   0.7517
     0.7517   1.0816   1.1462   1.1462   2.0133   2.0133   2.1049   4.5866
     4.5866   9.5927  11.6119  11.8092  11.8092  12.2903  12.2904  13.6225
    13.8956  13.8956  13.9066  14.3932  14.3932  15.0641  15.7767  16.3199
    16.3577  16.3577  17.2801  17.2801  17.3200  19.1145  19.6821  19.6822

     occupation numbers 
     1.0000   1.0000   1.0000   1.0000   1.0000   1.0000   1.0000   1.0000
     1.0000   1.0000   1.0000   1.0000   1.0000   1.0000   1.0000   1.0000
     1.0000   1.0000   1.0000   1.0000   1.0000   1.0000   1.0000   1.0000
     1.0000   1.0000   1.0000   1.0000   1.0000   1.0000   1.0000   1.0000
     1.0000   1.0000   1.0000   1.0000   1.0000   1.0000   1.0000   0.0000
     0.0000   0.0000   0.0000   0.0000   0.0000   0.0000   0.0000   0.0000
     0.0000   0.0000   0.0000   0.0000   0.0000   0.0000   0.0000   0.0000
     0.0000   0.0000   0.0000   0.0000   0.0000   0.0000   0.0000   0.0000

          k = 0.0000 0.3849 0.0000 (  2731 PWs)   bands (ev):

   -83.9888 -49.3244 -49.3235 -49.1936 -24.4708 -24.4550 -18.9010 -18.5668
   -18.5242 -18.5103 -18.4731 -18.3546  -8.0081  -7.9865  -7.9707  -7.9202
    -7.9102  -7.9008  -3.0472  -2.9052  -2.0275  -1.8533  -1.7422  -1.6185
    -0.7990  -0.6265  -0.4898   0.3103   0.3163   0.4212   0.5501   0.6749
     0.9134   0.9523   0.9997   1.1017   2.0036   2.1380   2.2477   4.4084
     4.6187   9.5089  11.5331  12.2250  12.5426  12.6327  13.0543  13.1865
    13.2295  13.5028  13.9608  14.3348  14.4520  14.7685  15.2291  16.1537
    16.3917  17.3833  17.6514  18.3651  18.6681  19.0324  19.7825  19.8965

     occupation numbers 
     1.0000   1.0000   1.0000   1.0000   1.0000   1.0000   1.0000   1.0000
     1.0000   1.0000   1.0000   1.0000   1.0000   1.0000   1.0000   1.0000
     1.0000   1.0000   1.0000   1.0000   1.0000   1.0000   1.0000   1.0000
     1.0000   1.0000   1.0000   1.0000   1.0000   1.0000   1.0000   1.0000
     1.0000   1.0000   1.0000   1.0000   1.0000   1.0000   1.0000   0.0000
     0.0000   0.0000   0.0000   0.0000   0.0000   0.0000   0.0000   0.0000
     0.0000   0.0000   0.0000   0.0000   0.0000   0.0000   0.0000   0.0000
     0.0000   0.0000   0.0000   0.0000   0.0000   0.0000   0.0000   0.0000

          k = 0.0000 0.3849 0.4059 (  2750 PWs)   bands (ev):

   -83.9888 -49.3243 -49.3242 -49.1951 -24.4658 -24.4567 -18.8576 -18.5914
   -18.5510 -18.4944 -18.4445 -18.4024  -7.9966  -7.9960  -7.9726  -7.9392
    -7.9264  -7.8972  -3.0473  -2.9189  -1.9286  -1.9091  -1.8007  -1.4879
    -0.8741  -0.6428  -0.5205   0.2610   0.3682   0.4439   0.6433   0.6485
     0.7885   0.9278   1.0386   1.1504   1.9795   2.1655   2.2350   4.3678
     4.5831  10.4313  11.6012  12.2107  12.3139  12.4254  12.6168  13.0433
    13.7305  13.7581  13.9916  14.3049  14.3922  14.8132  15.3007  15.8578
    15.9543  16.5124  17.5746  17.9366  18.5054  19.2160  19.3976  19.7533

     occupation numbers 
     1.0000   1.0000   1.0000   1.0000   1.0000   1.0000   1.0000   1.0000
     1.0000   1.0000   1.0000   1.0000   1.0000   1.0000   1.0000   1.0000
     1.0000   1.0000   1.0000   1.0000   1.0000   1.0000   1.0000   1.0000
     1.0000   1.0000   1.0000   1.0000   1.0000   1.0000   1.0000   1.0000
     1.0000   1.0000   1.0000   1.0000   1.0000   1.0000   1.0000   0.0000
     0.0000   0.0000   0.0000   0.0000   0.0000   0.0000   0.0000   0.0000
     0.0000   0.0000   0.0000   0.0000   0.0000   0.0000   0.0000   0.0000
     0.0000   0.0000   0.0000   0.0000   0.0000   0.0000   0.0000   0.0000

          k = 0.3333 0.5774 0.0000 (  2754 PWs)   bands (ev):

   -83.9888 -49.3249 -49.3249 -49.1942 -24.4625 -24.4625 -18.8858 -18.5683
   -18.5682 -18.4884 -18.4884 -18.3386  -7.9801  -7.9696  -7.9696  -7.9203
    -7.9203  -7.8885  -3.0163  -3.0163  -2.0132  -1.8087  -1.8087  -1.5113
    -0.7054  -0.7054  -0.3703   0.2507   0.3370   0.3370   0.4731   0.4731
     0.9253   0.9720   0.9835   0.9835   2.0666   2.2086   2.2086   4.4402
     4.4402  10.9842  11.0786  11.0786  12.5828  13.0643  13.0643  13.1871
    13.5761  13.5761  13.8578  13.8578  14.0314  14.5127  16.7668  17.0747
    17.1285  17.1285  17.4971  17.5742  17.5742  19.1637  19.1637  20.7658

     occupation numbers 
     1.0000   1.0000   1.0000   1.0000   1.0000   1.0000   1.0000   1.0000
     1.0000   1.0000   1.0000   1.0000   1.0000   1.0000   1.0000   1.0000
     1.0000   1.0000   1.0000   1.0000   1.0000   1.0000   1.0000   1.0000
     1.0000   1.0000   1.0000   1.0000   1.0000   1.0000   1.0000   1.0000
     1.0000   1.0000   1.0000   1.0000   1.0000   1.0000   1.0000   0.0000
     0.0000   0.0000   0.0000   0.0000   0.0000   0.0000   0.0000   0.0000
     0.0000   0.0000   0.0000   0.0000   0.0000   0.0000   0.0000   0.0000
     0.0000   0.0000   0.0000   0.0000   0.0000   0.0000   0.0000   0.0000

          k = 0.3333 0.5774 0.4059 (  2748 PWs)   bands (ev):

   -83.9888 -49.3238 -49.3238 -49.1957 -24.4608 -24.4608 -18.8367 -18.5909
   -18.5909 -18.4694 -18.4694 -18.3909  -7.9896  -7.9896  -7.9737  -7.9091
    -7.9091  -7.9058  -3.0195  -3.0194  -1.8641  -1.8641  -1.8500  -1.4124
    -0.7474  -0.7473  -0.4318   0.2972   0.2973   0.3387   0.4780   0.7126
     0.7126   0.8606   1.0664   1.0664   2.1155   2.1155   2.2623   4.4247
     4.4247  11.4973  11.6284  11.6284  12.3857  12.6845  12.6845  12.9450
    13.6681  13.9277  13.9277  14.2407  14.2407  15.0287  15.2149  15.2149
    15.6701  16.9862  18.1603  18.1603  18.1841  18.9833  18.9834  20.5870

     occupation numbers 
     1.0000   1.0000   1.0000   1.0000   1.0000   1.0000   1.0000   1.0000
     1.0000   1.0000   1.0000   1.0000   1.0000   1.0000   1.0000   1.0000
     1.0000   1.0000   1.0000   1.0000   1.0000   1.0000   1.0000   1.0000
     1.0000   1.0000   1.0000   1.0000   1.0000   1.0000   1.0000   1.0000
     1.0000   1.0000   1.0000   1.0000   1.0000   1.0000   1.0000   0.0000
     0.0000   0.0000   0.0000   0.0000   0.0000   0.0000   0.0000   0.0000
     0.0000   0.0000   0.0000   0.0000   0.0000   0.0000   0.0000   0.0000
     0.0000   0.0000   0.0000   0.0000   0.0000   0.0000   0.0000   0.0000

          k = 0.0000 0.3849-0.4059 (  2750 PWs)   bands (ev):

   -83.9888 -49.3244 -49.3241 -49.1952 -24.4658 -24.4566 -18.8575 -18.5956
   -18.5491 -18.4873 -18.4466 -18.4053  -8.0061  -7.9930  -7.9758  -7.9286
    -7.9230  -7.9011  -3.0561  -2.9128  -1.9761  -1.8656  -1.7956  -1.4921
    -0.8497  -0.6487  -0.5373   0.2766   0.3698   0.4288   0.6220   0.6932
     0.7660   0.9531   1.0014   1.1647   1.9861   2.1486   2.2368   4.3618
     4.5981  10.3803  11.8801  12.0564  12.2562  12.3565  12.6118  13.3542
    13.6488  13.7059  13.9820  14.2209  14.2458  14.5381  15.2934  16.1240
    16.1506  16.6745  17.6372  17.7574  18.6437  19.1550  19.4793  19.5473

     occupation numbers 
     1.0000   1.0000   1.0000   1.0000   1.0000   1.0000   1.0000   1.0000
     1.0000   1.0000   1.0000   1.0000   1.0000   1.0000   1.0000   1.0000
     1.0000   1.0000   1.0000   1.0000   1.0000   1.0000   1.0000   1.0000
     1.0000   1.0000   1.0000   1.0000   1.0000   1.0000   1.0000   1.0000
     1.0000   1.0000   1.0000   1.0000   1.0000   1.0000   1.0000   0.0000
     0.0000   0.0000   0.0000   0.0000   0.0000   0.0000   0.0000   0.0000
     0.0000   0.0000   0.0000   0.0000   0.0000   0.0000   0.0000   0.0000
     0.0000   0.0000   0.0000   0.0000   0.0000   0.0000   0.0000   0.0000

     highest occupied, lowest unoccupied level (ev):     2.2623    4.3618

!    total energy              =    -771.05887762 Ry
     estimated scf accuracy    <       0.00000008 Ry

     The total energy is the sum of the following terms:
     one-electron contribution =    -424.71047313 Ry
     hartree contribution      =     245.07171022 Ry
     xc contribution           =    -103.06880153 Ry
     ewald contribution        =    -377.51780812 Ry
     one-center paw contrib.   =    -110.83350506 Ry
      -> PAW hartree energy AE =      75.25379277 Ry
      -> PAW hartree energy PS =     -74.83375794 Ry
      -> PAW xc energy AE      =    -132.41795257 Ry
      -> PAW xc energy PS      =      21.16441267 Ry
      -> total E_H with PAW    =     245.49174506 Ry
      -> total E_XC with PAW   =    -214.32234143 Ry

     convergence has been achieved in   7 iterations

     Writing all to output data dir bands_nm/myprefix.save/
 
     init_run     :      2.73s CPU      0.83s WALL (       1 calls)
     electrons    :     19.88s CPU      5.21s WALL (       1 calls)

     Called by init_run:
     wfcinit      :      0.30s CPU      0.08s WALL (       1 calls)
     wfcinit:atom :      0.00s CPU      0.00s WALL (       4 calls)
     wfcinit:wfcr :      0.28s CPU      0.07s WALL (       4 calls)
     potinit      :      0.59s CPU      0.16s WALL (       1 calls)
     hinit0       :      0.86s CPU      0.30s WALL (       1 calls)

     Called by electrons:
     c_bands      :     12.92s CPU      3.36s WALL (       7 calls)
     sum_band     :      3.09s CPU      0.82s WALL (       7 calls)
     v_of_rho     :      0.33s CPU      0.09s WALL (       8 calls)
     v_h          :      0.02s CPU      0.01s WALL (       8 calls)
     v_xc         :      0.31s CPU      0.08s WALL (       8 calls)
     newd         :      0.90s CPU      0.24s WALL (       8 calls)
     PAW_pot      :      2.79s CPU      0.72s WALL (       8 calls)
     mix_rho      :      0.06s CPU      0.02s WALL (       7 calls)

     Called by c_bands:
     init_us_2    :      0.03s CPU      0.01s WALL (      60 calls)
     init_us_2:cp :      0.03s CPU      0.01s WALL (      60 calls)
     cegterg      :     10.67s CPU      2.76s WALL (      28 calls)

     Called by sum_band:
     sum_band:wei :      0.00s CPU      0.00s WALL (       7 calls)
     sum_band:loo :      1.58s CPU      0.41s WALL (       7 calls)
     sum_band:buf :      0.02s CPU      0.00s WALL (      28 calls)
     sum_band:ini :      0.02s CPU      0.00s WALL (      28 calls)
     sum_band:cal :      0.19s CPU      0.05s WALL (      28 calls)
     sum_band:bec :      0.00s CPU      0.00s WALL (      28 calls)
     addusdens    :      0.27s CPU      0.09s WALL (       7 calls)
     addusd:skk   :      0.00s CPU      0.00s WALL (      14 calls)
     addusd:dgemm :      0.05s CPU      0.03s WALL (      14 calls)
     addusd:qvan2 :      0.16s CPU      0.05s WALL (      14 calls)

     Called by *egterg:
     cdiaghg      :      1.67s CPU      0.43s WALL (     118 calls)
     cegterg:over :      0.98s CPU      0.23s WALL (      90 calls)
     cegterg:upda :      0.17s CPU      0.06s WALL (      90 calls)
     cegterg:last :      0.51s CPU      0.13s WALL (      60 calls)
     h_psi        :      6.30s CPU      1.65s WALL (     122 calls)
     s_psi        :      0.23s CPU      0.07s WALL (     122 calls)
     g_psi        :      0.00s CPU      0.00s WALL (      90 calls)

     Called by h_psi:
     h_psi:calbec :      0.62s CPU      0.16s WALL (     122 calls)
     vloc_psi     :      5.47s CPU      1.41s WALL (     122 calls)
     add_vuspsi   :      0.21s CPU      0.07s WALL (     122 calls)

     General routines
     calbec       :      0.81s CPU      0.21s WALL (     150 calls)
     fft          :      0.26s CPU      0.07s WALL (     102 calls)
     ffts         :      0.03s CPU      0.01s WALL (      15 calls)
     fftw         :      6.66s CPU      1.62s WALL (   11328 calls)
     interpolate  :      0.04s CPU      0.01s WALL (       8 calls)
 
     Parallel routines

     PAW routines
     PAW_pot      :      2.79s CPU      0.72s WALL (       8 calls)
     PAW_symme    :      0.10s CPU      0.03s WALL (      15 calls)
 
     PWSCF        :     23.72s CPU      6.59s WALL

 
   This run was terminated on:  12:56: 8  16Jul2023            

=------------------------------------------------------------------------------=
   JOB DONE.
=------------------------------------------------------------------------------=
