
     Program PWSCF v.7.0 starts on  7Jun2023 at  9:12:16 

     This program is part of the open-source Quantum ESPRESSO suite
     for quantum simulation of materials; please cite
         "P. Giannozzi et al., J. Phys.:Condens. Matter 21 395502 (2009);
         "P. Giannozzi et al., J. Phys.:Condens. Matter 29 465901 (2017);
         "P. Giannozzi et al., J. Chem. Phys. 152 154105 (2020);
          URL http://www.quantum-espresso.org", 
     in publications or presentations arising from this work. More details at
     http://www.quantum-espresso.org/quote

     Parallel version (MPI & OpenMP), running on      32 processor cores
     Number of MPI processes:                 8
     Threads/MPI process:                     4

     MPI processes distributed on     1 nodes
     K-points division:     npool     =       2
     R & G space division:  proc/nbgrp/npool/nimage =       4
     123335 MiB available memory on the printing compute node when the environment starts
 
     Reading input from espresso_9638.pwi
Warning: card &CELL ignored
Warning: card / ignored

     Current dimensions of program PWSCF are:
     Max number of different atomic species (ntypx) = 10
     Max number of k-points (npk) =  40000
     Max angular momentum in pseudopotentials (lmaxx) =  4
     file K.pbe-spn-kjpaw_psl.1.0.0.UPF: wavefunction(s)  3S renormalized
     Message from routine setup:
     using ibrav=0 with symmetry is DISCOURAGED, use correct ibrav instead

     Subspace diagonalization in iterative solution of the eigenvalue problem:
     one sub-group per band group will be used
     scalapack distributed-memory algorithm (size of sub-group:  2*  2 procs)

 
     Parallelization info
     --------------------
     sticks:   dense  smooth     PW     G-vecs:    dense   smooth      PW
     Min         945     472    127                38084    13493    1947
     Max         946     473    128                38086    13495    1951
     Sum        3781    1891    511               152341    53977    7799
 
     Using Slab Decomposition
 


     bravais-lattice index     =            0
     lattice parameter (alat)  =      15.0873  a.u.
     unit-cell volume          =    2428.3974 (a.u.)^3
     number of atoms/cell      =           10
     number of atomic types    =            4
     number of electrons       =        82.00
     number of Kohn-Sham states=           64
     kinetic-energy cutoff     =      30.0000  Ry
     charge density cutoff     =     240.0000  Ry
     scf convergence threshold =      1.0E-06
     mixing beta               =       0.7000
     number of iterations used =            8  plain     mixing
     Exchange-correlation=  SLA  PW   PBX  PBC
                           (   1   4   3   4   0   0   0)

     celldm(1)=  15.087302  celldm(2)=   0.000000  celldm(3)=   0.000000
     celldm(4)=   0.000000  celldm(5)=   0.000000  celldm(6)=   0.000000

     crystal axes: (cart. coord. in units of alat)
               a(1) = (   1.000000   0.000000   0.000000 )  
               a(2) = (   0.500000   0.866025   0.000000 )  
               a(3) = (   0.500000   0.288675   0.816497 )  

     reciprocal axes: (cart. coord. in units 2 pi/alat)
               b(1) = (  1.000000 -0.577350 -0.408248 )  
               b(2) = (  0.000000  1.154701 -0.408248 )  
               b(3) = (  0.000000  0.000000  1.224745 )  


     PseudoPot. # 1 for Cs read from file:
     /home/pragov/projects/rrg-bengioy-ad/pragov/crystal_structure_design/SSSP/Cs_pbe_v1.uspp.F.UPF
     MD5 check sum: 3476d69cb178dfad3ffaa59df4e07ca4
     Pseudo is Ultrasoft + core correction, Zval =  9.0
     Generated by new atomic code, or converted to UPF format
     Using radial grid of  905 points,  6 beta functions with: 
                l(1) =   0
                l(2) =   0
                l(3) =   1
                l(4) =   1
                l(5) =   2
                l(6) =   2
     Q(r) pseudized with  6 coefficients,  rinner =    1.500   1.500   1.500
                                                       1.500   1.500

     PseudoPot. # 2 for K  read from file:
     /home/pragov/projects/rrg-bengioy-ad/pragov/crystal_structure_design/SSSP/K.pbe-spn-kjpaw_psl.1.0.0.UPF
     MD5 check sum: 7d58810084cac21f60fbe77ea2b688fd
     Pseudo is Projector augmented-wave + core cor, Zval =  9.0
     Generated using "atomic" code by A. Dal Corso  v.5.1
     Shape of augmentation charge: PSQ
     Using radial grid of 1165 points,  6 beta functions with: 
                l(1) =   0
                l(2) =   0
                l(3) =   1
                l(4) =   1
                l(5) =   2
                l(6) =   2
     Q(r) pseudized with 0 coefficients 


     PseudoPot. # 3 for Tl read from file:
     /home/pragov/projects/rrg-bengioy-ad/pragov/crystal_structure_design/SSSP/Tl_pbe_v1.2.uspp.F.UPF
     MD5 check sum: b76cf1f7e72655a2b2c53cf6385d7059
     Pseudo is Ultrasoft + core correction, Zval = 13.0
     Generated by new atomic code, or converted to UPF format
     Using radial grid of  899 points,  6 beta functions with: 
                l(1) =   0
                l(2) =   0
                l(3) =   1
                l(4) =   1
                l(5) =   2
                l(6) =   2
     Q(r) pseudized with  6 coefficients,  rinner =    1.100   1.100   1.100
                                                       1.100   1.100

     PseudoPot. # 4 for Cl read from file:
     /home/pragov/projects/rrg-bengioy-ad/pragov/crystal_structure_design/SSSP/cl_pbe_v1.4.uspp.F.UPF
     MD5 check sum: fc6f6913ecf08c9257cb748ef0700058
     Pseudo is Ultrasoft + core correction, Zval =  7.0
     Generated by new atomic code, or converted to UPF format
     Using radial grid of  909 points,  6 beta functions with: 
                l(1) =   0
                l(2) =   0
                l(3) =   1
                l(4) =   1
                l(5) =   2
                l(6) =   2
     Q(r) pseudized with  8 coefficients,  rinner =    1.300   1.300   1.300
                                                       1.300   1.300

     atomic species   valence    mass     pseudopotential
        Cs             9.00   132.90545     Cs( 1.00)
        K              9.00    39.09830     K ( 1.00)
        Tl            13.00   204.38000     Tl( 1.00)
        Cl             7.00    35.45000     Cl( 1.00)

     12 Sym. Ops., with inversion, found


                                    s                        frac. trans.

      isym =  1     identity                                     

 cryst.   s( 1) = (     1          0          0      )
                  (     0          1          0      )
                  (     0          0          1      )

 cart.    s( 1) = (  1.0000000  0.0000000  0.0000000 )
                  (  0.0000000  1.0000000 -0.0000000 )
                  (  0.0000000  0.0000000  1.0000000 )


      isym =  2     180 deg rotation - cart. axis [1,0,0]        

 cryst.   s( 2) = (     1          0          0      )
                  (     1         -1          0      )
                  (     1          0         -1      )

 cart.    s( 2) = (  1.0000000  0.0000000  0.0000000 )
                  (  0.0000000 -1.0000000  0.0000000 )
                  (  0.0000000  0.0000000 -1.0000000 )


      isym =  3     120 deg rotation - cryst. axis [0,0,1]       

 cryst.   s( 3) = (    -1          1          0      )
                  (    -1          0          0      )
                  (    -1          0          1      )

 cart.    s( 3) = ( -0.5000000 -0.8660254  0.0000000 )
                  (  0.8660254 -0.5000000  0.0000000 )
                  (  0.0000000  0.0000000  1.0000000 )


      isym =  4     120 deg rotation - cryst. axis [0,0,-1]      

 cryst.   s( 4) = (     0         -1          0      )
                  (     1         -1          0      )
                  (     0         -1          1      )

 cart.    s( 4) = ( -0.5000000  0.8660254 -0.0000000 )
                  ( -0.8660254 -0.5000000  0.0000000 )
                  (  0.0000000  0.0000000  1.0000000 )


      isym =  5     180 deg rotation - cryst. axis [0,1,0]       

 cryst.   s( 5) = (     0         -1          0      )
                  (    -1          0          0      )
                  (     0          0         -1      )

 cart.    s( 5) = ( -0.5000000 -0.8660254  0.0000000 )
                  ( -0.8660254  0.5000000 -0.0000000 )
                  (  0.0000000  0.0000000 -1.0000000 )


      isym =  6     180 deg rotation - cryst. axis [1,1,0]       

 cryst.   s( 6) = (    -1          1          0      )
                  (     0          1          0      )
                  (     0          1         -1      )

 cart.    s( 6) = ( -0.5000000  0.8660254 -0.0000000 )
                  (  0.8660254  0.5000000 -0.0000000 )
                  (  0.0000000  0.0000000 -1.0000000 )


      isym =  7     inversion                                    

 cryst.   s( 7) = (    -1          0          0      )
                  (     0         -1          0      )
                  (     0          0         -1      )

 cart.    s( 7) = ( -1.0000000  0.0000000  0.0000000 )
                  (  0.0000000 -1.0000000  0.0000000 )
                  (  0.0000000  0.0000000 -1.0000000 )


      isym =  8     inv. 180 deg rotation - cart. axis [1,0,0]   

 cryst.   s( 8) = (    -1          0          0      )
                  (    -1          1          0      )
                  (    -1          0          1      )

 cart.    s( 8) = ( -1.0000000  0.0000000  0.0000000 )
                  (  0.0000000  1.0000000 -0.0000000 )
                  (  0.0000000  0.0000000  1.0000000 )


      isym =  9     inv. 120 deg rotation - cryst. axis [0,0,1]  

 cryst.   s( 9) = (     1         -1          0      )
                  (     1          0          0      )
                  (     1          0         -1      )

 cart.    s( 9) = (  0.5000000  0.8660254 -0.0000000 )
                  ( -0.8660254  0.5000000 -0.0000000 )
                  (  0.0000000  0.0000000 -1.0000000 )


      isym = 10     inv. 120 deg rotation - cryst. axis [0,0,-1] 

 cryst.   s(10) = (     0          1          0      )
                  (    -1          1          0      )
                  (     0          1         -1      )

 cart.    s(10) = (  0.5000000 -0.8660254  0.0000000 )
                  (  0.8660254  0.5000000 -0.0000000 )
                  (  0.0000000  0.0000000 -1.0000000 )


      isym = 11     inv. 180 deg rotation - cryst. axis [0,1,0]  

 cryst.   s(11) = (     0          1          0      )
                  (     1          0          0      )
                  (     0          0          1      )

 cart.    s(11) = (  0.5000000  0.8660254 -0.0000000 )
                  (  0.8660254 -0.5000000  0.0000000 )
                  (  0.0000000  0.0000000  1.0000000 )


      isym = 12     inv. 180 deg rotation - cryst. axis [1,1,0]  

 cryst.   s(12) = (     1         -1          0      )
                  (     0         -1          0      )
                  (     0         -1          1      )

 cart.    s(12) = (  0.5000000 -0.8660254  0.0000000 )
                  ( -0.8660254 -0.5000000  0.0000000 )
                  (  0.0000000  0.0000000  1.0000000 )


   Cartesian axes

     site n.     atom                  positions (alat units)
         1           Cs  tau(   1) = (   1.5000000   0.8660254   0.6123724  )
         2           Cs  tau(   2) = (   0.5000000   0.2886751   0.2041241  )
         3           K   tau(   3) = (   1.0000000   0.5773503   0.4082483  )
         4           Tl  tau(   4) = (   0.0000000   0.0000000   0.0000000  )
         5           Cl  tau(   5) = (   1.0000000   0.2684217   0.1898028  )
         6           Cl  tau(   6) = (   0.7324600   0.4228860   0.6266938  )
         7           Cl  tau(   7) = (   1.0000000   0.8862789   0.6266938  )
         8           Cl  tau(   8) = (   0.7324600   0.7318146   0.1898028  )
         9           Cl  tau(   9) = (   1.2675400   0.4228860   0.6266938  )
        10           Cl  tau(  10) = (   1.2675400   0.7318146   0.1898028  )

   Crystallographic axes

     site n.     atom                  positions (cryst. coord.)
         1           Cs  tau(   1) = (  0.7500000  0.7500000  0.7500000  )
         2           Cs  tau(   2) = (  0.2500000  0.2500000  0.2500000  )
         3           K   tau(   3) = (  0.5000000  0.5000000  0.5000000  )
         4           Tl  tau(   4) = (  0.0000000  0.0000000  0.0000000  )
         5           Cl  tau(   5) = (  0.7675400  0.2324600  0.2324600  )
         6           Cl  tau(   6) = (  0.2324600  0.2324600  0.7675400  )
         7           Cl  tau(   7) = (  0.2324600  0.7675400  0.7675400  )
         8           Cl  tau(   8) = (  0.2324600  0.7675400  0.2324600  )
         9           Cl  tau(   9) = (  0.7675400  0.2324600  0.7675400  )
        10           Cl  tau(  10) = (  0.7675400  0.7675400  0.2324600  )

     number of k points=     6
                       cart. coord. in units 2pi/alat
        k(    1) = (   0.0000000   0.0000000   0.0000000), wk =   0.0740741
        k(    2) = (   0.0000000   0.0000000   0.4082483), wk =   0.1481481
        k(    3) = (   0.0000000   0.3849002  -0.1360828), wk =   0.4444444
        k(    4) = (   0.0000000   0.3849002   0.2721655), wk =   0.4444444
        k(    5) = (   0.0000000   0.3849002  -0.5443311), wk =   0.4444444
        k(    6) = (   0.3333333  -0.5773503   0.0000000), wk =   0.4444444

                       cryst. coord.
        k(    1) = (   0.0000000   0.0000000   0.0000000), wk =   0.0740741
        k(    2) = (   0.0000000   0.0000000   0.3333333), wk =   0.1481481
        k(    3) = (   0.0000000   0.3333333   0.0000000), wk =   0.4444444
        k(    4) = (   0.0000000   0.3333333   0.3333333), wk =   0.4444444
        k(    5) = (   0.0000000   0.3333333  -0.3333333), wk =   0.4444444
        k(    6) = (   0.3333333  -0.3333333   0.0000000), wk =   0.4444444

     Dense  grid:   152341 G-vectors     FFT dimensions: (  75,  75,  75)

     Smooth grid:    53977 G-vectors     FFT dimensions: (  54,  54,  54)

     Dynamical RAM for                 wfc:       1.64 MB

     Dynamical RAM for     wfc (w. buffer):       6.58 MB

     Dynamical RAM for           str. fact:       2.32 MB

     Dynamical RAM for           local pot:       0.00 MB

     Dynamical RAM for          nlocal pot:       4.63 MB

     Dynamical RAM for                qrad:       4.98 MB

     Dynamical RAM for          rho,v,vnew:       4.19 MB

     Dynamical RAM for               rhoin:       1.40 MB

     Dynamical RAM for            rho*nmix:       9.30 MB

     Dynamical RAM for           G-vectors:       2.28 MB

     Dynamical RAM for          h,s,v(r/c):       0.19 MB

     Dynamical RAM for          <psi|beta>:       0.18 MB

     Dynamical RAM for                 psi:       3.29 MB

     Dynamical RAM for                hpsi:       3.29 MB

     Dynamical RAM for                spsi:       3.29 MB

     Dynamical RAM for      wfcinit/wfcrot:       3.55 MB

     Dynamical RAM for           addusdens:      56.08 MB

     Estimated static dynamical RAM per process >      33.36 MB

     Estimated max dynamical RAM per process >      98.73 MB

     Estimated total dynamical RAM >     752.65 MB

     Check: negative core charge=   -0.000003

     Initial potential from superposition of free atoms

     starting charge      81.8975, renormalised to      82.0000

     negative rho (up, down):  1.449E-01 0.000E+00
     Starting wfcs are   67 randomized atomic wfcs
     Checking if some PAW data can be deallocated... 
       PAW data deallocated on    7 nodes for type:  2

     total cpu time spent up to now is        2.5 secs

     Self-consistent Calculation

     iteration #  1     ecut=    30.00 Ry     beta= 0.70
     Davidson diagonalization with overlap

---- Real-time Memory Report at c_bands before calling an iterative solver
           209 MiB given to the printing process from OS
             0 MiB allocation reported by mallinfo(arena+hblkhd)
        123144 MiB available memory on the node where the printing process lives
------------------
     ethr =  1.00E-02,  avg # of iterations =  7.5

     Threshold (ethr) on eigenvalues was too large:
     Diagonalizing with lowered threshold

     Davidson diagonalization with overlap

---- Real-time Memory Report at c_bands before calling an iterative solver
           238 MiB given to the printing process from OS
             0 MiB allocation reported by mallinfo(arena+hblkhd)
        122978 MiB available memory on the node where the printing process lives
------------------
     ethr =  5.35E-04,  avg # of iterations =  2.0

     negative rho (up, down):  1.556E-01 0.000E+00

     total cpu time spent up to now is        4.5 secs

     total energy              =    -584.77479261 Ry
     estimated scf accuracy    <       0.42121794 Ry

     iteration #  2     ecut=    30.00 Ry     beta= 0.70
     Davidson diagonalization with overlap

---- Real-time Memory Report at c_bands before calling an iterative solver
           241 MiB given to the printing process from OS
             0 MiB allocation reported by mallinfo(arena+hblkhd)
        121980 MiB available memory on the node where the printing process lives
------------------
     ethr =  5.14E-04,  avg # of iterations =  3.3

     negative rho (up, down):  1.528E-01 0.000E+00

     total cpu time spent up to now is        5.7 secs

     total energy              =    -584.88535851 Ry
     estimated scf accuracy    <       0.26611507 Ry

     iteration #  3     ecut=    30.00 Ry     beta= 0.70
     Davidson diagonalization with overlap

---- Real-time Memory Report at c_bands before calling an iterative solver
           258 MiB given to the printing process from OS
             0 MiB allocation reported by mallinfo(arena+hblkhd)
        122434 MiB available memory on the node where the printing process lives
------------------
     ethr =  3.25E-04,  avg # of iterations =  2.2

     negative rho (up, down):  1.531E-01 0.000E+00

     total cpu time spent up to now is        6.7 secs

     total energy              =    -584.94443009 Ry
     estimated scf accuracy    <       0.01030117 Ry

     iteration #  4     ecut=    30.00 Ry     beta= 0.70
     Davidson diagonalization with overlap

---- Real-time Memory Report at c_bands before calling an iterative solver
           259 MiB given to the printing process from OS
             0 MiB allocation reported by mallinfo(arena+hblkhd)
        122427 MiB available memory on the node where the printing process lives
------------------
     ethr =  1.26E-05,  avg # of iterations =  7.5

     negative rho (up, down):  1.536E-01 0.000E+00

     total cpu time spent up to now is        7.9 secs

     total energy              =    -584.94708171 Ry
     estimated scf accuracy    <       0.00065190 Ry

     iteration #  5     ecut=    30.00 Ry     beta= 0.70
     Davidson diagonalization with overlap

---- Real-time Memory Report at c_bands before calling an iterative solver
           265 MiB given to the printing process from OS
             0 MiB allocation reported by mallinfo(arena+hblkhd)
        122403 MiB available memory on the node where the printing process lives
------------------
     ethr =  7.95E-07,  avg # of iterations =  4.8

     negative rho (up, down):  1.538E-01 0.000E+00

     total cpu time spent up to now is        9.0 secs

     total energy              =    -584.94719499 Ry
     estimated scf accuracy    <       0.00001165 Ry

     iteration #  6     ecut=    30.00 Ry     beta= 0.70
     Davidson diagonalization with overlap

---- Real-time Memory Report at c_bands before calling an iterative solver
           266 MiB given to the printing process from OS
             0 MiB allocation reported by mallinfo(arena+hblkhd)
        122457 MiB available memory on the node where the printing process lives
------------------
     ethr =  1.42E-08,  avg # of iterations =  5.7

     negative rho (up, down):  1.539E-01 0.000E+00

     total cpu time spent up to now is       10.2 secs

     total energy              =    -584.94721068 Ry
     estimated scf accuracy    <       0.00000154 Ry

     iteration #  7     ecut=    30.00 Ry     beta= 0.70
     Davidson diagonalization with overlap

---- Real-time Memory Report at c_bands before calling an iterative solver
           266 MiB given to the printing process from OS
             0 MiB allocation reported by mallinfo(arena+hblkhd)
        122451 MiB available memory on the node where the printing process lives
------------------
     ethr =  1.87E-09,  avg # of iterations =  2.0

     negative rho (up, down):  1.539E-01 0.000E+00

     total cpu time spent up to now is       11.2 secs

     End of self-consistent calculation

          k = 0.0000 0.0000 0.0000 (  6735 PWs)   bands (ev):

   -26.1930 -18.0086 -18.0038 -11.7260 -11.4342 -11.4342 -11.4015 -11.4015
   -11.4015  -9.6517  -9.6517  -9.6517  -8.1357  -8.1357  -8.1357  -8.0098
    -8.0098  -4.8489  -4.8489  -4.8489  -4.7988  -4.7988  -4.7988  -3.6037
    -0.6821  -0.6821  -0.6821   0.2298   0.2298   0.2298   0.7858   0.7858
     0.7858   0.8960   0.8960   0.9146   0.9146   0.9146   1.2252   1.2252
     1.2252   3.4567   6.7246   7.7186   7.7186   7.7412   7.7412   7.7412
     8.5193   8.5193   8.5193   8.5382   9.9778   9.9778   9.9779  10.1235
    10.1235  10.5705  10.5705  10.5706  11.3456  11.9403  11.9404  11.9405

     occupation numbers 
     1.0000   1.0000   1.0000   1.0000   1.0000   1.0000   1.0000   1.0000
     1.0000   1.0000   1.0000   1.0000   1.0000   1.0000   1.0000   1.0000
     1.0000   1.0000   1.0000   1.0000   1.0000   1.0000   1.0000   1.0000
     1.0000   1.0000   1.0000   1.0000   1.0000   1.0000   1.0000   1.0000
     1.0000   1.0000   1.0000   1.0000   1.0000   1.0000   1.0000   1.0000
     1.0000   0.0000   0.0000   0.0000   0.0000   0.0000   0.0000   0.0000
     0.0000   0.0000   0.0000   0.0000   0.0000   0.0000   0.0000   0.0000
     0.0000   0.0000   0.0000   0.0000   0.0000   0.0000   0.0000   0.0000

          k = 0.0000 0.0000 0.4082 (  6748 PWs)   bands (ev):

   -26.1931 -18.0072 -18.0049 -11.7417 -11.4942 -11.4942 -11.3805 -11.3332
   -11.3332  -9.6741  -9.6736  -9.6736  -8.1355  -8.1355  -8.1352  -7.9942
    -7.9942  -4.8276  -4.8276  -4.8050  -4.8021  -4.8021  -4.7803  -3.4916
    -0.8729  -0.6564  -0.6564   0.1964   0.3062   0.3062   0.5650   0.6367
     0.6367   0.8121   0.8121   0.8597   0.9551   0.9551   1.1395   1.1441
     1.1441   3.8861   7.2768   7.7630   8.1872   8.1872   8.2415   8.2415
     8.5834   8.8736   8.8736   9.2782   9.5211   9.5211   9.7997   9.8041
     9.8041  10.1773  10.7208  10.7208  10.9202  11.2584  11.6695  11.6695

     occupation numbers 
     1.0000   1.0000   1.0000   1.0000   1.0000   1.0000   1.0000   1.0000
     1.0000   1.0000   1.0000   1.0000   1.0000   1.0000   1.0000   1.0000
     1.0000   1.0000   1.0000   1.0000   1.0000   1.0000   1.0000   1.0000
     1.0000   1.0000   1.0000   1.0000   1.0000   1.0000   1.0000   1.0000
     1.0000   1.0000   1.0000   1.0000   1.0000   1.0000   1.0000   1.0000
     1.0000   0.0000   0.0000   0.0000   0.0000   0.0000   0.0000   0.0000
     0.0000   0.0000   0.0000   0.0000   0.0000   0.0000   0.0000   0.0000
     0.0000   0.0000   0.0000   0.0000   0.0000   0.0000   0.0000   0.0000

          k = 0.0000 0.3849-0.1361 (  6748 PWs)   bands (ev):

   -26.1931 -18.0072 -18.0049 -11.7417 -11.4942 -11.4942 -11.3805 -11.3332
   -11.3332  -9.6741  -9.6737  -9.6736  -8.1355  -8.1355  -8.1352  -7.9942
    -7.9942  -4.8276  -4.8276  -4.8050  -4.8021  -4.8021  -4.7803  -3.4916
    -0.8729  -0.6564  -0.6564   0.1964   0.3062   0.3062   0.5650   0.6367
     0.6367   0.8121   0.8121   0.8597   0.9551   0.9551   1.1395   1.1441
     1.1441   3.8861   7.2768   7.7630   8.1872   8.1872   8.2415   8.2415
     8.5834   8.8736   8.8736   9.2782   9.5211   9.5211   9.7997   9.8041
     9.8041  10.1773  10.7208  10.7208  10.9202  11.2583  11.6697  11.6698

     occupation numbers 
     1.0000   1.0000   1.0000   1.0000   1.0000   1.0000   1.0000   1.0000
     1.0000   1.0000   1.0000   1.0000   1.0000   1.0000   1.0000   1.0000
     1.0000   1.0000   1.0000   1.0000   1.0000   1.0000   1.0000   1.0000
     1.0000   1.0000   1.0000   1.0000   1.0000   1.0000   1.0000   1.0000
     1.0000   1.0000   1.0000   1.0000   1.0000   1.0000   1.0000   1.0000
     1.0000   0.0000   0.0000   0.0000   0.0000   0.0000   0.0000   0.0000
     0.0000   0.0000   0.0000   0.0000   0.0000   0.0000   0.0000   0.0000
     0.0000   0.0000   0.0000   0.0000   0.0000   0.0000   0.0000   0.0000

          k = 0.0000 0.3849 0.2722 (  6726 PWs)   bands (ev):

   -26.1930 -18.0072 -18.0048 -11.7143 -11.4937 -11.4329 -11.4050 -11.4050
   -11.3502  -9.6731  -9.6511  -9.6511  -8.1353  -8.1353  -8.1353  -8.0097
    -8.0089  -4.8266  -4.8266  -4.7940  -4.7903  -4.7869  -4.7869  -3.5048
    -0.6949  -0.6509  -0.6509   0.0797   0.3807   0.3807   0.5683   0.7080
     0.7157   0.7157   0.7257   0.8416   0.8416   0.8931   0.9792   0.9792
     1.2184   3.8552   7.5175   8.2128   8.3127   8.3993   8.3993   8.4290
     8.6307   9.1785   9.1785   9.1903   9.4223   9.5110   9.8366   9.8366
    10.1586  10.3708  10.3815  10.3815  10.8772  11.0631  11.0631  11.2577

     occupation numbers 
     1.0000   1.0000   1.0000   1.0000   1.0000   1.0000   1.0000   1.0000
     1.0000   1.0000   1.0000   1.0000   1.0000   1.0000   1.0000   1.0000
     1.0000   1.0000   1.0000   1.0000   1.0000   1.0000   1.0000   1.0000
     1.0000   1.0000   1.0000   1.0000   1.0000   1.0000   1.0000   1.0000
     1.0000   1.0000   1.0000   1.0000   1.0000   1.0000   1.0000   1.0000
     1.0000   0.0000   0.0000   0.0000   0.0000   0.0000   0.0000   0.0000
     0.0000   0.0000   0.0000   0.0000   0.0000   0.0000   0.0000   0.0000
     0.0000   0.0000   0.0000   0.0000   0.0000   0.0000   0.0000   0.0000

          k = 0.0000 0.3849-0.5443 (  6745 PWs)   bands (ev):

   -26.1930 -18.0060 -18.0060 -11.7212 -11.4946 -11.4733 -11.4049 -11.3666
   -11.3339  -9.6737  -9.6732  -9.6508  -8.1353  -8.1352  -8.1351  -8.0140
    -7.9941  -4.8131  -4.8062  -4.7995  -4.7989  -4.7838  -4.7768  -3.4656
    -0.8030  -0.6385  -0.5998   0.1662   0.2512   0.3872   0.5649   0.6622
     0.6740   0.6756   0.7080   0.7797   0.8259   0.9588   0.9733   1.0136
     1.1400   3.9880   7.9531   8.1695   8.3475   8.6402   8.8206   8.8753
     8.9156   9.0521   9.1792   9.2130   9.3986   9.4268   9.5149   9.6777
     9.8405  10.0070  10.4825  10.6342  10.7079  10.7264  11.0379  11.3264

     occupation numbers 
     1.0000   1.0000   1.0000   1.0000   1.0000   1.0000   1.0000   1.0000
     1.0000   1.0000   1.0000   1.0000   1.0000   1.0000   1.0000   1.0000
     1.0000   1.0000   1.0000   1.0000   1.0000   1.0000   1.0000   1.0000
     1.0000   1.0000   1.0000   1.0000   1.0000   1.0000   1.0000   1.0000
     1.0000   1.0000   1.0000   1.0000   1.0000   1.0000   1.0000   1.0000
     1.0000   0.0000   0.0000   0.0000   0.0000   0.0000   0.0000   0.0000
     0.0000   0.0000   0.0000   0.0000   0.0000   0.0000   0.0000   0.0000
     0.0000   0.0000   0.0000   0.0000   0.0000   0.0000   0.0000   0.0000

          k = 0.3333-0.5774 0.0000 (  6745 PWs)   bands (ev):

   -26.1930 -18.0060 -18.0060 -11.7212 -11.4946 -11.4733 -11.4049 -11.3666
   -11.3339  -9.6737  -9.6732  -9.6508  -8.1353  -8.1352  -8.1351  -8.0140
    -7.9941  -4.8131  -4.8062  -4.7995  -4.7989  -4.7838  -4.7768  -3.4656
    -0.8030  -0.6385  -0.5998   0.1662   0.2512   0.3872   0.5649   0.6622
     0.6740   0.6756   0.7080   0.7797   0.8259   0.9588   0.9733   1.0136
     1.1400   3.9880   7.9531   8.1695   8.3475   8.6402   8.8206   8.8753
     8.9156   9.0521   9.1792   9.2130   9.3986   9.4268   9.5148   9.6777
     9.8405  10.0069  10.4825  10.6340  10.7079  10.7264  11.0377  11.3265

     occupation numbers 
     1.0000   1.0000   1.0000   1.0000   1.0000   1.0000   1.0000   1.0000
     1.0000   1.0000   1.0000   1.0000   1.0000   1.0000   1.0000   1.0000
     1.0000   1.0000   1.0000   1.0000   1.0000   1.0000   1.0000   1.0000
     1.0000   1.0000   1.0000   1.0000   1.0000   1.0000   1.0000   1.0000
     1.0000   1.0000   1.0000   1.0000   1.0000   1.0000   1.0000   1.0000
     1.0000   0.0000   0.0000   0.0000   0.0000   0.0000   0.0000   0.0000
     0.0000   0.0000   0.0000   0.0000   0.0000   0.0000   0.0000   0.0000
     0.0000   0.0000   0.0000   0.0000   0.0000   0.0000   0.0000   0.0000

     highest occupied, lowest unoccupied level (ev):     1.2252    3.4567

!    total energy              =    -584.94721111 Ry
     estimated scf accuracy    <       0.00000005 Ry

     The total energy is the sum of the following terms:
     one-electron contribution =    -162.12377112 Ry
     hartree contribution      =     114.89767315 Ry
     xc contribution           =    -190.69271216 Ry
     ewald contribution        =    -291.61068372 Ry
     one-center paw contrib.   =     -55.41771726 Ry
      -> PAW hartree energy AE =       0.00000000 Ry
      -> PAW hartree energy PS =       0.00000000 Ry
      -> PAW xc energy AE      =       0.00000000 Ry
      -> PAW xc energy PS      =       0.00000000 Ry
      -> total E_H with PAW    =     114.89767315 Ry
      -> total E_XC with PAW   =    -190.69271216 Ry

     convergence has been achieved in   7 iterations

     Writing all to output data dir calculations_bands/myprefix.save/
 
     init_run     :      6.47s CPU      2.05s WALL (       1 calls)
     electrons    :     32.82s CPU      8.79s WALL (       1 calls)

     Called by init_run:
     wfcinit      :      0.73s CPU      0.21s WALL (       1 calls)
     wfcinit:atom :      0.01s CPU      0.00s WALL (       3 calls)
     wfcinit:wfcr :      0.65s CPU      0.17s WALL (       3 calls)
     potinit      :      1.96s CPU      0.53s WALL (       1 calls)
     hinit0       :      1.81s CPU      0.70s WALL (       1 calls)

     Called by electrons:
     c_bands      :     18.50s CPU      4.80s WALL (       8 calls)
     sum_band     :      6.27s CPU      1.79s WALL (       8 calls)
     v_of_rho     :      1.47s CPU      0.39s WALL (       8 calls)
     v_h          :      0.13s CPU      0.03s WALL (       8 calls)
     v_xc         :      1.33s CPU      0.36s WALL (       8 calls)
     newd         :      4.70s CPU      1.30s WALL (       8 calls)
     PAW_pot      :      3.11s CPU      0.83s WALL (       8 calls)
     mix_rho      :      0.33s CPU      0.09s WALL (       8 calls)

     Called by c_bands:
     init_us_2    :      0.14s CPU      0.05s WALL (      51 calls)
     init_us_2:cp :      0.14s CPU      0.05s WALL (      51 calls)
     cegterg      :     16.66s CPU      4.32s WALL (      24 calls)

     Called by sum_band:
     sum_band:wei :      0.01s CPU      0.00s WALL (       8 calls)
     sum_band:loo :      2.36s CPU      0.60s WALL (       8 calls)
     sum_band:buf :      0.03s CPU      0.01s WALL (      24 calls)
     sum_band:ini :      0.06s CPU      0.01s WALL (      24 calls)
     sum_band:cal :      0.22s CPU      0.06s WALL (      24 calls)
     sum_band:bec :      0.02s CPU      0.00s WALL (      24 calls)
     addusdens    :      3.11s CPU      0.97s WALL (       8 calls)
     addusd:skk   :      0.01s CPU      0.01s WALL (      32 calls)
     addusd:dgemm :      0.42s CPU      0.26s WALL (      32 calls)
     addusd:qvan2 :      2.33s CPU      0.59s WALL (      32 calls)

     Called by *egterg:
     cdiaghg      :      2.41s CPU      0.63s WALL (     119 calls)
     cegterg:over :      0.93s CPU      0.24s WALL (      98 calls)
     cegterg:upda :      0.53s CPU      0.14s WALL (      98 calls)
     cegterg:last :      0.64s CPU      0.16s WALL (      55 calls)
     cdiaghg:chol :      0.17s CPU      0.05s WALL (     119 calls)
     cdiaghg:inve :      0.03s CPU      0.01s WALL (     119 calls)
     cdiaghg:para :      0.37s CPU      0.10s WALL (     238 calls)
     h_psi        :     12.04s CPU      3.11s WALL (     125 calls)
     s_psi        :      0.32s CPU      0.08s WALL (     125 calls)
     g_psi        :      0.02s CPU      0.01s WALL (      98 calls)

     Called by h_psi:
     h_psi:calbec :      0.64s CPU      0.16s WALL (     125 calls)
     vloc_psi     :     10.95s CPU      2.83s WALL (     125 calls)
     add_vuspsi   :      0.41s CPU      0.11s WALL (     125 calls)

     General routines
     calbec       :      0.86s CPU      0.22s WALL (     149 calls)
     fft          :      1.61s CPU      0.43s WALL (     103 calls)
     ffts         :      0.80s CPU      0.21s WALL (      16 calls)
     fftw         :     10.93s CPU      2.83s WALL (   10196 calls)
     interpolate  :      0.83s CPU      0.22s WALL (       8 calls)
 
     Parallel routines

     PAW routines
     PAW_pot      :      3.11s CPU      0.83s WALL (       8 calls)
     PAW_symme    :      0.07s CPU      0.02s WALL (      16 calls)
 
     PWSCF        :     40.53s CPU     11.87s WALL

 
   This run was terminated on:   9:12:28   7Jun2023            

=------------------------------------------------------------------------------=
   JOB DONE.
=------------------------------------------------------------------------------=
