
     Program PWSCF v.7.1 starts on 15Jul2023 at 21:53: 2 

     This program is part of the open-source Quantum ESPRESSO suite
     for quantum simulation of materials; please cite
         "P. Giannozzi et al., J. Phys.:Condens. Matter 21 395502 (2009);
         "P. Giannozzi et al., J. Phys.:Condens. Matter 29 465901 (2017);
         "P. Giannozzi et al., J. Chem. Phys. 152 154105 (2020);
          URL http://www.quantum-espresso.org", 
     in publications or presentations arising from this work. More details at
     http://www.quantum-espresso.org/quote

     Parallel version (MPI & OpenMP), running on      32 processor cores
     Number of MPI processes:                 8
     Threads/MPI process:                     4

     MPI processes distributed on     1 nodes
     180275 MiB available memory on the printing compute node when the environment starts
 
     Reading input from espresso_13644.pwi
Warning: card &CELL ignored
Warning: card / ignored

     Current dimensions of program PWSCF are:
     Max number of different atomic species (ntypx) = 10
     Max number of k-points (npk) =  40000
     Max angular momentum in pseudopotentials (lmaxx) =  4
     file Pb.pbe-dn-kjpaw_psl.0.2.2.UPF: wavefunction(s)  6S renormalized
     file O.pbe-n-kjpaw_psl.0.1.UPF: wavefunction(s)  2P renormalized
 
     K-points division:     npool     =       2
     R & G space division:  proc/nbgrp/npool/nimage =       4
     Subspace diagonalization in iterative solution of the eigenvalue problem:
     one sub-group per band group will be used
     scalapack distributed-memory algorithm (size of sub-group:  2*  2 procs)

 
     Parallelization info
     --------------------
     sticks:   dense  smooth     PW     G-vecs:    dense   smooth      PW
     Min         783     391    107                28125     9945    1462
     Max         785     393    108                28126     9946    1464
     Sum        3135    1569    429               112501    39783    5851
 
     Using Slab Decomposition
 


     bravais-lattice index     =            0
     lattice parameter (alat)  =      10.8194  a.u.
     unit-cell volume          =    1793.3460 (a.u.)^3
     number of atoms/cell      =           20
     number of atomic types    =            4
     number of electrons       =       190.00
     number of Kohn-Sham states=          256
     kinetic-energy cutoff     =      30.0000  Ry
     charge density cutoff     =     240.0000  Ry
     scf convergence threshold =      1.0E-06
     mixing beta               =       0.7000
     number of iterations used =            8  plain     mixing
     Exchange-correlation= SLA  PW   PBX  PBC
                           (   1   4   3   4   0   0   0)

     celldm(1)=  10.819420  celldm(2)=   0.000000  celldm(3)=   0.000000
     celldm(4)=   0.000000  celldm(5)=   0.000000  celldm(6)=   0.000000

     crystal axes: (cart. coord. in units of alat)
               a(1) = (   1.000000   0.000000   0.000000 )  
               a(2) = (  -0.000008   1.402708   0.000000 )  
               a(3) = (  -0.000058   0.003143   1.009450 )  

     reciprocal axes: (cart. coord. in units 2 pi/alat)
               b(1) = (  1.000000  0.000006  0.000058 )  
               b(2) = (  0.000000  0.712907 -0.002220 )  
               b(3) = (  0.000000  0.000000  0.990638 )  


     PseudoPot. # 1 for Co read from file:
     /lustre07/scratch/pragov/crystal_structure_design/utils/SSSP/Co_pbe_v1.2.uspp.F.UPF
     MD5 check sum: 5f91765df6ddd3222702df6e7b74a16d
     Pseudo is Ultrasoft + core correction, Zval = 17.0
     Generated by new atomic code, or converted to UPF format
     Using radial grid of  863 points,  6 beta functions with: 
                l(1) =   0
                l(2) =   0
                l(3) =   1
                l(4) =   1
                l(5) =   2
                l(6) =   2
     Q(r) pseudized with  8 coefficients,  rinner =    1.200   1.200   1.200
                                                       1.200   1.200

     PseudoPot. # 2 for Pb read from file:
     /lustre07/scratch/pragov/crystal_structure_design/utils/SSSP/Pb.pbe-dn-kjpaw_psl.0.2.2.UPF
     MD5 check sum: 9d431e6316058b74ade52399a6cf67da
     Pseudo is Projector augmented-wave + core cor, Zval = 14.0
     Generated using "atomic" code by A. Dal Corso  v.5.0.99 svn rev. 10869
     Shape of augmentation charge: PSQ
     Using radial grid of 1281 points,  6 beta functions with: 
                l(1) =   0
                l(2) =   0
                l(3) =   1
                l(4) =   1
                l(5) =   2
                l(6) =   2
     Q(r) pseudized with 0 coefficients 


     PseudoPot. # 3 for W  read from file:
     /lustre07/scratch/pragov/crystal_structure_design/utils/SSSP/W_pbe_v1.2.uspp.F.UPF
     MD5 check sum: 9c083fa34c2a2ea0f02f1f893e16e1c8
     Pseudo is Ultrasoft + core correction, Zval = 14.0
     Generated by new atomic code, or converted to UPF format
     Using radial grid of  923 points,  8 beta functions with: 
                l(1) =   0
                l(2) =   0
                l(3) =   0
                l(4) =   1
                l(5) =   1
                l(6) =   2
                l(7) =   2
                l(8) =   3
     Q(r) pseudized with  6 coefficients,  rinner =    1.350   1.350   1.350
                                                       1.350   1.350   1.350
                                                       1.350

     PseudoPot. # 4 for O  read from file:
     /lustre07/scratch/pragov/crystal_structure_design/utils/SSSP/O.pbe-n-kjpaw_psl.0.1.UPF
     MD5 check sum: 0234752ac141de4415c5fc33072bef88
     Pseudo is Projector augmented-wave + core cor, Zval =  6.0
     Generated using "atomic" code by A. Dal Corso  v.5.0.99 svn rev. 10869
     Shape of augmentation charge: BESSEL
     Using radial grid of 1095 points,  4 beta functions with: 
                l(1) =   0
                l(2) =   0
                l(3) =   1
                l(4) =   1
     Q(r) pseudized with 0 coefficients 


     atomic species   valence    mass     pseudopotential
        Co            17.00    58.93319     Co( 1.00)
        Pb            14.00   207.20000     Pb( 1.00)
        W             14.00   183.84000     W ( 1.00)
        O              6.00    15.99900     O ( 1.00)

     No symmetry found


                                    s                        frac. trans.

      isym =  1     identity                                     

 cryst.   s( 1) = (     1          0          0      )
                  (     0          1          0      )
                  (     0          0          1      )

 cart.    s( 1) = (  1.0000000 -0.0000000  0.0000000 )
                  (  0.0000000  1.0000000  0.0000000 )
                  (  0.0000000  0.0000000  1.0000000 )


   Cartesian axes

     site n.     atom                  positions (alat units)
         1           Co  tau(   1) = (   0.4999738   0.0015756   0.5047313  )
         2           Co  tau(   2) = (   0.9999929   0.7013594   0.0000040  )
         3           Pb  tau(   3) = (   0.4999332   0.3539071   0.9996679  )
         4           Pb  tau(   4) = (   0.9999522   1.0547650   0.4948195  )
         5           Pb  tau(   5) = (   0.9999662   0.3510856   0.5146653  )
         6           Pb  tau(   6) = (   0.5000173   1.0519335   0.0097695  )
         7           W   tau(   7) = (   0.9999294   1.4058448   1.0094252  )
         8           W   tau(   8) = (   0.4999697   0.7029477   0.5047202  )
         9           O   tau(   9) = (   0.4999533   1.0391120   0.5636913  )
        10           O   tau(  10) = (   0.0000096   0.3360495   0.0590145  )
        11           O   tau(  11) = (   0.9999088   1.0697967   0.9504127  )
        12           O   tau(  12) = (   0.4999921   0.3667329   0.4457632  )
        13           O   tau(  13) = (   0.7590402   0.0490475   0.7696444  )
        14           O   tau(  14) = (   0.2589873   0.7489408   0.2649535  )
        15           O   tau(  15) = (   0.2589671   0.6568801   0.7444707  )
        16           O   tau(  16) = (   0.7590762   1.3567960   0.2398111  )
        17           O   tau(  17) = (   0.7409601   0.6569111   0.7445000  )
        18           O   tau(  18) = (   0.2408892   1.3568115   0.2398141  )
        19           O   tau(  19) = (   0.2408492   0.0490292   0.7696383  )
        20           O   tau(  20) = (   0.7409663   0.7489788   0.2649888  )

   Crystallographic axes

     site n.     atom                  positions (cryst. coord.)
         1           Co  tau(   1) = (  0.5000030  0.0000030  0.5000060  )
         2           Co  tau(   2) = (  0.9999970  0.5000040  0.0000040  )
         3           Pb  tau(   3) = (  0.4999930  0.2500840  0.9903090  )
         4           Pb  tau(   4) = (  0.9999870  0.7508510  0.4901870  )
         5           Pb  tau(   5) = (  0.9999980  0.2491490  0.5098470  )
         6           Pb  tau(   6) = (  0.5000240  0.7499090  0.0096780  )
         7           W   tau(   7) = (  0.9999960  0.9999960  0.9999750  )
         8           W   tau(   8) = (  0.5000030  0.5000160  0.4999950  )
         9           O   tau(   9) = (  0.4999920  0.7395390  0.5584140  )
        10           O   tau(  10) = (  0.0000150  0.2394410  0.0584620  )
        11           O   tau(  11) = (  0.9999700  0.7605560  0.9415150  )
        12           O   tau(  12) = (  0.5000200  0.2604570  0.4415900  )
        13           O   tau(  13) = (  0.7590850  0.0332580  0.7624390  )
        14           O   tau(  14) = (  0.2590070  0.5333370  0.2624730  )
        15           O   tau(  15) = (  0.2590140  0.4666420  0.7375010  )
        16           O   tau(  16) = (  0.7590980  0.9667370  0.2375660  )
        17           O   tau(  17) = (  0.7410070  0.4666640  0.7375300  )
        18           O   tau(  18) = (  0.2409110  0.9667480  0.2375690  )
        19           O   tau(  19) = (  0.2408940  0.0332450  0.7624330  )
        20           O   tau(  20) = (  0.7409860  0.5333640  0.2625080  )

     number of k points=    14
                       cart. coord. in units 2pi/alat
        k(    1) = (   0.0000000   0.0000000   0.0000000), wk =   0.0740741
        k(    2) = (   0.0000000   0.0000000   0.3302127), wk =   0.1481481
        k(    3) = (   0.0000000   0.2376356  -0.0007399), wk =   0.1481481
        k(    4) = (   0.0000000   0.2376356   0.3294728), wk =   0.1481481
        k(    5) = (   0.0000000   0.2376356  -0.3309525), wk =   0.1481481
        k(    6) = (   0.3333333   0.0000019   0.0000193), wk =   0.1481481
        k(    7) = (   0.3333333   0.0000019   0.3302319), wk =   0.1481481
        k(    8) = (   0.3333333   0.0000019  -0.3301934), wk =   0.1481481
        k(    9) = (   0.3333333   0.2376376  -0.0007206), wk =   0.1481481
        k(   10) = (   0.3333333   0.2376376   0.3294921), wk =   0.1481481
        k(   11) = (   0.3333333   0.2376376  -0.3309333), wk =   0.1481481
        k(   12) = (   0.3333333  -0.2376337   0.0007591), wk =   0.1481481
        k(   13) = (   0.3333333  -0.2376337   0.3309718), wk =   0.1481481
        k(   14) = (   0.3333333  -0.2376337  -0.3294536), wk =   0.1481481

                       cryst. coord.
        k(    1) = (   0.0000000   0.0000000   0.0000000), wk =   0.0740741
        k(    2) = (   0.0000000   0.0000000   0.3333333), wk =   0.1481481
        k(    3) = (   0.0000000   0.3333333   0.0000000), wk =   0.1481481
        k(    4) = (   0.0000000   0.3333333   0.3333333), wk =   0.1481481
        k(    5) = (   0.0000000   0.3333333  -0.3333333), wk =   0.1481481
        k(    6) = (   0.3333333  -0.0000000   0.0000000), wk =   0.1481481
        k(    7) = (   0.3333333  -0.0000000   0.3333333), wk =   0.1481481
        k(    8) = (   0.3333333  -0.0000000  -0.3333333), wk =   0.1481481
        k(    9) = (   0.3333333   0.3333333   0.0000000), wk =   0.1481481
        k(   10) = (   0.3333333   0.3333333   0.3333333), wk =   0.1481481
        k(   11) = (   0.3333333   0.3333333  -0.3333333), wk =   0.1481481
        k(   12) = (   0.3333333  -0.3333333   0.0000000), wk =   0.1481481
        k(   13) = (   0.3333333  -0.3333333   0.3333333), wk =   0.1481481
        k(   14) = (   0.3333333  -0.3333333  -0.3333333), wk =   0.1481481

     Dense  grid:   112501 G-vectors     FFT dimensions: (  54,  75,  54)

     Smooth grid:    39783 G-vectors     FFT dimensions: (  40,  54,  40)

     Dynamical RAM for                 wfc:       4.86 MB

     Dynamical RAM for     wfc (w. buffer):      38.88 MB

     Dynamical RAM for           str. fact:       1.72 MB

     Dynamical RAM for           local pot:       0.00 MB

     Dynamical RAM for          nlocal pot:       4.86 MB

     Dynamical RAM for                qrad:      11.94 MB

     Dynamical RAM for          rho,v,vnew:       2.59 MB

     Dynamical RAM for               rhoin:       0.86 MB

     Dynamical RAM for            rho*nmix:       6.87 MB

     Dynamical RAM for           G-vectors:       1.69 MB

     Dynamical RAM for          h,s,v(r/c):       3.00 MB

     Dynamical RAM for          <psi|beta>:       1.00 MB

     Dynamical RAM for                 psi:       9.72 MB

     Dynamical RAM for                hpsi:       9.72 MB

     Dynamical RAM for                spsi:       9.72 MB

     Dynamical RAM for      wfcinit/wfcrot:      11.22 MB

     Dynamical RAM for           addusdens:      83.90 MB

     Estimated static dynamical RAM per process >      66.84 MB

     Estimated max dynamical RAM per process >     157.60 MB

     Estimated total dynamical RAM >       1.20 GB

     Check: negative core charge=   -0.000012

     Initial potential from superposition of free atoms

     starting charge     187.7899, renormalised to     190.0000

     negative rho (up, down):  1.315E-01 0.000E+00
     Starting wfcs are  136 randomized atomic wfcs +  120 random wfcs
     Checking if some PAW data can be deallocated... 
       PAW data deallocated on    6 nodes for type:  2
       PAW data deallocated on    2 nodes for type:  4

     total cpu time spent up to now is        3.9 secs

     Self-consistent Calculation

     iteration #  1     ecut=    30.00 Ry     beta= 0.70
     Davidson diagonalization with overlap

---- Real-time Memory Report at c_bands before calling an iterative solver
           343 MiB given to the printing process from OS
             0 MiB allocation reported by mallinfo(arena+hblkhd)
        179334 MiB available memory on the node where the printing process lives
------------------
     ethr =  1.00E-02,  avg # of iterations =  6.1

     negative rho (up, down):  1.223E-01 0.000E+00

     total cpu time spent up to now is       16.6 secs

     total energy              =   -4893.10332506 Ry
     estimated scf accuracy    <       6.94755114 Ry

     iteration #  2     ecut=    30.00 Ry     beta= 0.70
     Davidson diagonalization with overlap

---- Real-time Memory Report at c_bands before calling an iterative solver
           451 MiB given to the printing process from OS
             0 MiB allocation reported by mallinfo(arena+hblkhd)
        178792 MiB available memory on the node where the printing process lives
------------------
     ethr =  3.66E-03,  avg # of iterations =  2.1

     negative rho (up, down):  1.279E-01 0.000E+00

     total cpu time spent up to now is       23.2 secs

     total energy              =   -4886.89981809 Ry
     estimated scf accuracy    <      60.80595736 Ry

     iteration #  3     ecut=    30.00 Ry     beta= 0.70
     Davidson diagonalization with overlap

---- Real-time Memory Report at c_bands before calling an iterative solver
           456 MiB given to the printing process from OS
             0 MiB allocation reported by mallinfo(arena+hblkhd)
        178798 MiB available memory on the node where the printing process lives
------------------
     ethr =  3.66E-03,  avg # of iterations =  2.7

     negative rho (up, down):  1.291E-01 0.000E+00

     total cpu time spent up to now is       29.9 secs

     total energy              =   -4893.62314522 Ry
     estimated scf accuracy    <      77.38006331 Ry

     iteration #  4     ecut=    30.00 Ry     beta= 0.70
     Davidson diagonalization with overlap

---- Real-time Memory Report at c_bands before calling an iterative solver
           456 MiB given to the printing process from OS
             0 MiB allocation reported by mallinfo(arena+hblkhd)
        178765 MiB available memory on the node where the printing process lives
------------------
     ethr =  3.66E-03,  avg # of iterations =  2.0

     negative rho (up, down):  1.285E-01 0.000E+00

     total cpu time spent up to now is       36.1 secs

     total energy              =   -4895.96791099 Ry
     estimated scf accuracy    <      17.13620717 Ry

     iteration #  5     ecut=    30.00 Ry     beta= 0.70
     Davidson diagonalization with overlap

---- Real-time Memory Report at c_bands before calling an iterative solver
           456 MiB given to the printing process from OS
             0 MiB allocation reported by mallinfo(arena+hblkhd)
        178851 MiB available memory on the node where the printing process lives
------------------
     ethr =  3.66E-03,  avg # of iterations =  1.0

     negative rho (up, down):  1.276E-01 0.000E+00

     total cpu time spent up to now is       41.0 secs

     total energy              =   -4896.80725531 Ry
     estimated scf accuracy    <       2.39156144 Ry

     iteration #  6     ecut=    30.00 Ry     beta= 0.70
     Davidson diagonalization with overlap

---- Real-time Memory Report at c_bands before calling an iterative solver
           456 MiB given to the printing process from OS
             0 MiB allocation reported by mallinfo(arena+hblkhd)
        178766 MiB available memory on the node where the printing process lives
------------------
     ethr =  1.26E-03,  avg # of iterations =  1.1

     negative rho (up, down):  1.268E-01 0.000E+00

     total cpu time spent up to now is       46.1 secs

     total energy              =   -4896.76962992 Ry
     estimated scf accuracy    <       2.56200030 Ry

     iteration #  7     ecut=    30.00 Ry     beta= 0.70
     Davidson diagonalization with overlap

---- Real-time Memory Report at c_bands before calling an iterative solver
           456 MiB given to the printing process from OS
             0 MiB allocation reported by mallinfo(arena+hblkhd)
        178766 MiB available memory on the node where the printing process lives
------------------
     ethr =  1.26E-03,  avg # of iterations =  1.1

     negative rho (up, down):  1.260E-01 0.000E+00

     total cpu time spent up to now is       51.2 secs

     total energy              =   -4896.80631424 Ry
     estimated scf accuracy    <       1.68340408 Ry

     iteration #  8     ecut=    30.00 Ry     beta= 0.70
     Davidson diagonalization with overlap

---- Real-time Memory Report at c_bands before calling an iterative solver
           456 MiB given to the printing process from OS
             0 MiB allocation reported by mallinfo(arena+hblkhd)
        178758 MiB available memory on the node where the printing process lives
------------------
     ethr =  8.86E-04,  avg # of iterations =  1.1

     negative rho (up, down):  1.256E-01 0.000E+00

     total cpu time spent up to now is       56.3 secs

     total energy              =   -4896.82824773 Ry
     estimated scf accuracy    <       0.88308539 Ry

     iteration #  9     ecut=    30.00 Ry     beta= 0.70
     Davidson diagonalization with overlap

---- Real-time Memory Report at c_bands before calling an iterative solver
           456 MiB given to the printing process from OS
             0 MiB allocation reported by mallinfo(arena+hblkhd)
        178762 MiB available memory on the node where the printing process lives
------------------
     ethr =  4.65E-04,  avg # of iterations =  1.1

     negative rho (up, down):  1.251E-01 0.000E+00

     total cpu time spent up to now is       61.3 secs

     total energy              =   -4896.81684721 Ry
     estimated scf accuracy    <       0.31939543 Ry

     iteration # 10     ecut=    30.00 Ry     beta= 0.70
     Davidson diagonalization with overlap

---- Real-time Memory Report at c_bands before calling an iterative solver
           456 MiB given to the printing process from OS
             0 MiB allocation reported by mallinfo(arena+hblkhd)
        178723 MiB available memory on the node where the printing process lives
------------------
     ethr =  1.68E-04,  avg # of iterations =  1.5

     negative rho (up, down):  1.252E-01 0.000E+00

     total cpu time spent up to now is       66.6 secs

     total energy              =   -4896.83287912 Ry
     estimated scf accuracy    <       1.29610105 Ry

     iteration # 11     ecut=    30.00 Ry     beta= 0.70
     Davidson diagonalization with overlap

---- Real-time Memory Report at c_bands before calling an iterative solver
           456 MiB given to the printing process from OS
             0 MiB allocation reported by mallinfo(arena+hblkhd)
        178730 MiB available memory on the node where the printing process lives
------------------
     ethr =  1.68E-04,  avg # of iterations =  1.0

     negative rho (up, down):  1.252E-01 0.000E+00

     total cpu time spent up to now is       71.6 secs

     total energy              =   -4896.83400717 Ry
     estimated scf accuracy    <       0.21686508 Ry

     iteration # 12     ecut=    30.00 Ry     beta= 0.70
     Davidson diagonalization with overlap

---- Real-time Memory Report at c_bands before calling an iterative solver
           456 MiB given to the printing process from OS
             0 MiB allocation reported by mallinfo(arena+hblkhd)
        178821 MiB available memory on the node where the printing process lives
------------------
     ethr =  1.14E-04,  avg # of iterations =  1.1

     negative rho (up, down):  1.251E-01 0.000E+00

     total cpu time spent up to now is       76.7 secs

     total energy              =   -4896.83411710 Ry
     estimated scf accuracy    <       0.72789214 Ry

     iteration # 13     ecut=    30.00 Ry     beta= 0.70
     Davidson diagonalization with overlap

---- Real-time Memory Report at c_bands before calling an iterative solver
           456 MiB given to the printing process from OS
             0 MiB allocation reported by mallinfo(arena+hblkhd)
        178847 MiB available memory on the node where the printing process lives
------------------
     ethr =  1.14E-04,  avg # of iterations =  1.1

     negative rho (up, down):  1.251E-01 0.000E+00

     total cpu time spent up to now is       81.7 secs

     total energy              =   -4896.83922030 Ry
     estimated scf accuracy    <       0.35238261 Ry

     iteration # 14     ecut=    30.00 Ry     beta= 0.70
     Davidson diagonalization with overlap

---- Real-time Memory Report at c_bands before calling an iterative solver
           456 MiB given to the printing process from OS
             0 MiB allocation reported by mallinfo(arena+hblkhd)
        178793 MiB available memory on the node where the printing process lives
------------------
     ethr =  1.14E-04,  avg # of iterations =  1.0

     negative rho (up, down):  1.251E-01 0.000E+00

     total cpu time spent up to now is       86.7 secs

     total energy              =   -4896.84033350 Ry
     estimated scf accuracy    <       0.01504961 Ry

     iteration # 15     ecut=    30.00 Ry     beta= 0.70
     Davidson diagonalization with overlap

---- Real-time Memory Report at c_bands before calling an iterative solver
           456 MiB given to the printing process from OS
             0 MiB allocation reported by mallinfo(arena+hblkhd)
        178826 MiB available memory on the node where the printing process lives
------------------
     c_bands:  1 eigenvalues not converged
     ethr =  7.92E-06,  avg # of iterations = 11.4

     negative rho (up, down):  1.251E-01 0.000E+00

     total cpu time spent up to now is       95.2 secs

     total energy              =   -4896.84037366 Ry
     estimated scf accuracy    <       0.07198203 Ry

     iteration # 16     ecut=    30.00 Ry     beta= 0.70
     Davidson diagonalization with overlap

---- Real-time Memory Report at c_bands before calling an iterative solver
           459 MiB given to the printing process from OS
             0 MiB allocation reported by mallinfo(arena+hblkhd)
        178809 MiB available memory on the node where the printing process lives
------------------
     ethr =  7.92E-06,  avg # of iterations =  1.8

     negative rho (up, down):  1.251E-01 0.000E+00

     total cpu time spent up to now is      101.1 secs

     total energy              =   -4896.84039896 Ry
     estimated scf accuracy    <       0.01104579 Ry

     iteration # 17     ecut=    30.00 Ry     beta= 0.70
     Davidson diagonalization with overlap

---- Real-time Memory Report at c_bands before calling an iterative solver
           461 MiB given to the printing process from OS
             0 MiB allocation reported by mallinfo(arena+hblkhd)
        178929 MiB available memory on the node where the printing process lives
------------------
     ethr =  5.81E-06,  avg # of iterations =  2.5

     negative rho (up, down):  1.251E-01 0.000E+00

     total cpu time spent up to now is      106.9 secs

     total energy              =   -4896.84037147 Ry
     estimated scf accuracy    <       0.02107365 Ry

     iteration # 18     ecut=    30.00 Ry     beta= 0.70
     Davidson diagonalization with overlap

---- Real-time Memory Report at c_bands before calling an iterative solver
           461 MiB given to the printing process from OS
             0 MiB allocation reported by mallinfo(arena+hblkhd)
        178785 MiB available memory on the node where the printing process lives
------------------
     ethr =  5.81E-06,  avg # of iterations =  1.1

     negative rho (up, down):  1.251E-01 0.000E+00

     total cpu time spent up to now is      112.0 secs

     total energy              =   -4896.84046878 Ry
     estimated scf accuracy    <       0.01277031 Ry

     iteration # 19     ecut=    30.00 Ry     beta= 0.70
     Davidson diagonalization with overlap

---- Real-time Memory Report at c_bands before calling an iterative solver
           461 MiB given to the printing process from OS
             0 MiB allocation reported by mallinfo(arena+hblkhd)
        178806 MiB available memory on the node where the printing process lives
------------------
     ethr =  5.81E-06,  avg # of iterations =  1.1

     negative rho (up, down):  1.251E-01 0.000E+00

     total cpu time spent up to now is      117.2 secs

     total energy              =   -4896.84043964 Ry
     estimated scf accuracy    <       0.01409721 Ry

     iteration # 20     ecut=    30.00 Ry     beta= 0.70
     Davidson diagonalization with overlap

---- Real-time Memory Report at c_bands before calling an iterative solver
           461 MiB given to the printing process from OS
             0 MiB allocation reported by mallinfo(arena+hblkhd)
        178810 MiB available memory on the node where the printing process lives
------------------
     ethr =  5.81E-06,  avg # of iterations =  1.2

     negative rho (up, down):  1.251E-01 0.000E+00

     total cpu time spent up to now is      122.5 secs

     total energy              =   -4896.84052958 Ry
     estimated scf accuracy    <       0.02355989 Ry

     iteration # 21     ecut=    30.00 Ry     beta= 0.70
     Davidson diagonalization with overlap

---- Real-time Memory Report at c_bands before calling an iterative solver
           461 MiB given to the printing process from OS
             0 MiB allocation reported by mallinfo(arena+hblkhd)
        178891 MiB available memory on the node where the printing process lives
------------------
     ethr =  5.81E-06,  avg # of iterations =  1.1

     negative rho (up, down):  1.251E-01 0.000E+00

     total cpu time spent up to now is      127.6 secs

     total energy              =   -4896.84041885 Ry
     estimated scf accuracy    <       0.03681711 Ry

     iteration # 22     ecut=    30.00 Ry     beta= 0.70
     Davidson diagonalization with overlap

---- Real-time Memory Report at c_bands before calling an iterative solver
           461 MiB given to the printing process from OS
             0 MiB allocation reported by mallinfo(arena+hblkhd)
        178799 MiB available memory on the node where the printing process lives
------------------
     ethr =  5.81E-06,  avg # of iterations =  1.1

     negative rho (up, down):  1.251E-01 0.000E+00

     total cpu time spent up to now is      132.7 secs

     total energy              =   -4896.84049719 Ry
     estimated scf accuracy    <       0.00143539 Ry

     iteration # 23     ecut=    30.00 Ry     beta= 0.70
     Davidson diagonalization with overlap

---- Real-time Memory Report at c_bands before calling an iterative solver
           461 MiB given to the printing process from OS
             0 MiB allocation reported by mallinfo(arena+hblkhd)
        178845 MiB available memory on the node where the printing process lives
------------------
     ethr =  7.55E-07,  avg # of iterations =  1.3

     negative rho (up, down):  1.251E-01 0.000E+00

     total cpu time spent up to now is      138.0 secs

     total energy              =   -4896.84049719 Ry
     estimated scf accuracy    <       0.00024642 Ry

     iteration # 24     ecut=    30.00 Ry     beta= 0.70
     Davidson diagonalization with overlap

---- Real-time Memory Report at c_bands before calling an iterative solver
           461 MiB given to the printing process from OS
             0 MiB allocation reported by mallinfo(arena+hblkhd)
        178801 MiB available memory on the node where the printing process lives
------------------
     ethr =  1.30E-07,  avg # of iterations =  1.3

     negative rho (up, down):  1.251E-01 0.000E+00

     total cpu time spent up to now is      143.4 secs

     total energy              =   -4896.84049274 Ry
     estimated scf accuracy    <       0.00056677 Ry

     iteration # 25     ecut=    30.00 Ry     beta= 0.70
     Davidson diagonalization with overlap

---- Real-time Memory Report at c_bands before calling an iterative solver
           461 MiB given to the printing process from OS
             0 MiB allocation reported by mallinfo(arena+hblkhd)
        178802 MiB available memory on the node where the printing process lives
------------------
     ethr =  1.30E-07,  avg # of iterations =  1.2

     negative rho (up, down):  1.251E-01 0.000E+00

     total cpu time spent up to now is      148.7 secs

     total energy              =   -4896.84050082 Ry
     estimated scf accuracy    <       0.00018384 Ry

     iteration # 26     ecut=    30.00 Ry     beta= 0.70
     Davidson diagonalization with overlap

---- Real-time Memory Report at c_bands before calling an iterative solver
           461 MiB given to the printing process from OS
             0 MiB allocation reported by mallinfo(arena+hblkhd)
        178801 MiB available memory on the node where the printing process lives
------------------
     ethr =  9.68E-08,  avg # of iterations =  1.1

     negative rho (up, down):  1.251E-01 0.000E+00

     total cpu time spent up to now is      153.9 secs

     total energy              =   -4896.84050155 Ry
     estimated scf accuracy    <       0.00002777 Ry

     iteration # 27     ecut=    30.00 Ry     beta= 0.70
     Davidson diagonalization with overlap

---- Real-time Memory Report at c_bands before calling an iterative solver
           461 MiB given to the printing process from OS
             0 MiB allocation reported by mallinfo(arena+hblkhd)
        178807 MiB available memory on the node where the printing process lives
------------------
     ethr =  1.46E-08,  avg # of iterations =  1.0

     negative rho (up, down):  1.251E-01 0.000E+00

     total cpu time spent up to now is      158.9 secs

     total energy              =   -4896.84050146 Ry
     estimated scf accuracy    <       0.00001815 Ry

     iteration # 28     ecut=    30.00 Ry     beta= 0.70
     Davidson diagonalization with overlap

---- Real-time Memory Report at c_bands before calling an iterative solver
           461 MiB given to the printing process from OS
             0 MiB allocation reported by mallinfo(arena+hblkhd)
        178808 MiB available memory on the node where the printing process lives
------------------
     ethr =  9.55E-09,  avg # of iterations =  1.1

     negative rho (up, down):  1.251E-01 0.000E+00

     total cpu time spent up to now is      164.2 secs

     total energy              =   -4896.84050126 Ry
     estimated scf accuracy    <       0.00004820 Ry

     iteration # 29     ecut=    30.00 Ry     beta= 0.70
     Davidson diagonalization with overlap

---- Real-time Memory Report at c_bands before calling an iterative solver
           461 MiB given to the printing process from OS
             0 MiB allocation reported by mallinfo(arena+hblkhd)
        178890 MiB available memory on the node where the printing process lives
------------------
     ethr =  9.55E-09,  avg # of iterations =  1.1

     negative rho (up, down):  1.251E-01 0.000E+00

     total cpu time spent up to now is      169.4 secs

     total energy              =   -4896.84050124 Ry
     estimated scf accuracy    <       0.00001464 Ry

     iteration # 30     ecut=    30.00 Ry     beta= 0.70
     Davidson diagonalization with overlap

---- Real-time Memory Report at c_bands before calling an iterative solver
           461 MiB given to the printing process from OS
             0 MiB allocation reported by mallinfo(arena+hblkhd)
        178811 MiB available memory on the node where the printing process lives
------------------
     ethr =  7.70E-09,  avg # of iterations =  1.1

     negative rho (up, down):  1.251E-01 0.000E+00

     total cpu time spent up to now is      174.5 secs

     total energy              =   -4896.84050078 Ry
     estimated scf accuracy    <       0.00001409 Ry

     iteration # 31     ecut=    30.00 Ry     beta= 0.70
     Davidson diagonalization with overlap

---- Real-time Memory Report at c_bands before calling an iterative solver
           461 MiB given to the printing process from OS
             0 MiB allocation reported by mallinfo(arena+hblkhd)
        178796 MiB available memory on the node where the printing process lives
------------------
     ethr =  7.42E-09,  avg # of iterations =  1.4

     negative rho (up, down):  1.251E-01 0.000E+00

     total cpu time spent up to now is      179.9 secs

     total energy              =   -4896.84049486 Ry
     estimated scf accuracy    <       0.00079929 Ry

     iteration # 32     ecut=    30.00 Ry     beta= 0.70
     Davidson diagonalization with overlap

---- Real-time Memory Report at c_bands before calling an iterative solver
           461 MiB given to the printing process from OS
             0 MiB allocation reported by mallinfo(arena+hblkhd)
        178884 MiB available memory on the node where the printing process lives
------------------
     ethr =  7.42E-09,  avg # of iterations =  1.0

     negative rho (up, down):  1.251E-01 0.000E+00

     total cpu time spent up to now is      184.8 secs

     total energy              =   -4896.84050097 Ry
     estimated scf accuracy    <       0.00003773 Ry

     iteration # 33     ecut=    30.00 Ry     beta= 0.70
     Davidson diagonalization with overlap

---- Real-time Memory Report at c_bands before calling an iterative solver
           461 MiB given to the printing process from OS
             0 MiB allocation reported by mallinfo(arena+hblkhd)
        178822 MiB available memory on the node where the printing process lives
------------------
     ethr =  7.42E-09,  avg # of iterations =  1.0

     negative rho (up, down):  1.251E-01 0.000E+00

     total cpu time spent up to now is      189.8 secs

     total energy              =   -4896.84050089 Ry
     estimated scf accuracy    <       0.00013209 Ry

     iteration # 34     ecut=    30.00 Ry     beta= 0.70
     Davidson diagonalization with overlap

---- Real-time Memory Report at c_bands before calling an iterative solver
           461 MiB given to the printing process from OS
             0 MiB allocation reported by mallinfo(arena+hblkhd)
        178801 MiB available memory on the node where the printing process lives
------------------
     ethr =  7.42E-09,  avg # of iterations =  1.2

     negative rho (up, down):  1.251E-01 0.000E+00

     total cpu time spent up to now is      195.0 secs

     total energy              =   -4896.84050135 Ry
     estimated scf accuracy    <       0.00001646 Ry

     iteration # 35     ecut=    30.00 Ry     beta= 0.70
     Davidson diagonalization with overlap

---- Real-time Memory Report at c_bands before calling an iterative solver
           461 MiB given to the printing process from OS
             0 MiB allocation reported by mallinfo(arena+hblkhd)
        178839 MiB available memory on the node where the printing process lives
------------------
     ethr =  7.42E-09,  avg # of iterations =  1.0

     negative rho (up, down):  1.251E-01 0.000E+00

     total cpu time spent up to now is      199.9 secs

     total energy              =   -4896.84050132 Ry
     estimated scf accuracy    <       0.00001410 Ry

     iteration # 36     ecut=    30.00 Ry     beta= 0.70
     Davidson diagonalization with overlap

---- Real-time Memory Report at c_bands before calling an iterative solver
           461 MiB given to the printing process from OS
             0 MiB allocation reported by mallinfo(arena+hblkhd)
        178847 MiB available memory on the node where the printing process lives
------------------
     ethr =  7.42E-09,  avg # of iterations =  1.1

     negative rho (up, down):  1.251E-01 0.000E+00

     total cpu time spent up to now is      205.0 secs

     total energy              =   -4896.84050129 Ry
     estimated scf accuracy    <       0.00001322 Ry

     iteration # 37     ecut=    30.00 Ry     beta= 0.70
     Davidson diagonalization with overlap

---- Real-time Memory Report at c_bands before calling an iterative solver
           461 MiB given to the printing process from OS
             0 MiB allocation reported by mallinfo(arena+hblkhd)
        178816 MiB available memory on the node where the printing process lives
------------------
     ethr =  6.96E-09,  avg # of iterations =  1.0

     negative rho (up, down):  1.251E-01 0.000E+00

     total cpu time spent up to now is      209.9 secs

     total energy              =   -4896.84050126 Ry
     estimated scf accuracy    <       0.00001289 Ry

     iteration # 38     ecut=    30.00 Ry     beta= 0.70
     Davidson diagonalization with overlap

---- Real-time Memory Report at c_bands before calling an iterative solver
           461 MiB given to the printing process from OS
             0 MiB allocation reported by mallinfo(arena+hblkhd)
        178829 MiB available memory on the node where the printing process lives
------------------
     ethr =  6.79E-09,  avg # of iterations =  1.3

     negative rho (up, down):  1.251E-01 0.000E+00

     total cpu time spent up to now is      215.2 secs

     total energy              =   -4896.84050124 Ry
     estimated scf accuracy    <       0.00001405 Ry

     iteration # 39     ecut=    30.00 Ry     beta= 0.70
     Davidson diagonalization with overlap

---- Real-time Memory Report at c_bands before calling an iterative solver
           461 MiB given to the printing process from OS
             0 MiB allocation reported by mallinfo(arena+hblkhd)
        178844 MiB available memory on the node where the printing process lives
------------------
     ethr =  6.79E-09,  avg # of iterations =  1.0

     negative rho (up, down):  1.251E-01 0.000E+00

     total cpu time spent up to now is      220.1 secs

     total energy              =   -4896.84050124 Ry
     estimated scf accuracy    <       0.00001238 Ry

     iteration # 40     ecut=    30.00 Ry     beta= 0.70
     Davidson diagonalization with overlap

---- Real-time Memory Report at c_bands before calling an iterative solver
           461 MiB given to the printing process from OS
             0 MiB allocation reported by mallinfo(arena+hblkhd)
        178787 MiB available memory on the node where the printing process lives
------------------
     ethr =  6.52E-09,  avg # of iterations =  1.1

     negative rho (up, down):  1.251E-01 0.000E+00

     total cpu time spent up to now is      225.3 secs

     total energy              =   -4896.84049921 Ry
     estimated scf accuracy    <       0.00001235 Ry

     iteration # 41     ecut=    30.00 Ry     beta= 0.70
     Davidson diagonalization with overlap

---- Real-time Memory Report at c_bands before calling an iterative solver
           461 MiB given to the printing process from OS
             0 MiB allocation reported by mallinfo(arena+hblkhd)
        178765 MiB available memory on the node where the printing process lives
------------------
     ethr =  6.50E-09,  avg # of iterations =  1.1

     negative rho (up, down):  1.251E-01 0.000E+00

     total cpu time spent up to now is      230.3 secs

     total energy              =   -4896.84049409 Ry
     estimated scf accuracy    <       0.00105411 Ry

     iteration # 42     ecut=    30.00 Ry     beta= 0.70
     Davidson diagonalization with overlap

---- Real-time Memory Report at c_bands before calling an iterative solver
           461 MiB given to the printing process from OS
             0 MiB allocation reported by mallinfo(arena+hblkhd)
        178765 MiB available memory on the node where the printing process lives
------------------
     ethr =  6.50E-09,  avg # of iterations =  1.0

     negative rho (up, down):  1.251E-01 0.000E+00

     total cpu time spent up to now is      235.3 secs

     total energy              =   -4896.84049166 Ry
     estimated scf accuracy    <       0.00072415 Ry

     iteration # 43     ecut=    30.00 Ry     beta= 0.70
     Davidson diagonalization with overlap

---- Real-time Memory Report at c_bands before calling an iterative solver
           461 MiB given to the printing process from OS
             0 MiB allocation reported by mallinfo(arena+hblkhd)
        178769 MiB available memory on the node where the printing process lives
------------------
     ethr =  6.50E-09,  avg # of iterations =  1.0

     negative rho (up, down):  1.251E-01 0.000E+00

     total cpu time spent up to now is      240.3 secs

     total energy              =   -4896.84050105 Ry
     estimated scf accuracy    <       0.00001438 Ry

     iteration # 44     ecut=    30.00 Ry     beta= 0.70
     Davidson diagonalization with overlap

---- Real-time Memory Report at c_bands before calling an iterative solver
           461 MiB given to the printing process from OS
             0 MiB allocation reported by mallinfo(arena+hblkhd)
        178769 MiB available memory on the node where the printing process lives
------------------
     ethr =  6.50E-09,  avg # of iterations =  1.0

     negative rho (up, down):  1.251E-01 0.000E+00

     total cpu time spent up to now is      245.2 secs

     total energy              =   -4896.84050132 Ry
     estimated scf accuracy    <       0.00001232 Ry

     iteration # 45     ecut=    30.00 Ry     beta= 0.70
     Davidson diagonalization with overlap

---- Real-time Memory Report at c_bands before calling an iterative solver
           461 MiB given to the printing process from OS
             0 MiB allocation reported by mallinfo(arena+hblkhd)
        178845 MiB available memory on the node where the printing process lives
------------------
     ethr =  6.48E-09,  avg # of iterations =  1.0

     negative rho (up, down):  1.251E-01 0.000E+00

     total cpu time spent up to now is      250.2 secs

     total energy              =   -4896.84050123 Ry
     estimated scf accuracy    <       0.00001168 Ry

     iteration # 46     ecut=    30.00 Ry     beta= 0.70
     Davidson diagonalization with overlap

---- Real-time Memory Report at c_bands before calling an iterative solver
           461 MiB given to the printing process from OS
             0 MiB allocation reported by mallinfo(arena+hblkhd)
        178756 MiB available memory on the node where the printing process lives
------------------
     ethr =  6.15E-09,  avg # of iterations =  1.1

     negative rho (up, down):  1.251E-01 0.000E+00

     total cpu time spent up to now is      255.3 secs

     total energy              =   -4896.84050119 Ry
     estimated scf accuracy    <       0.00001163 Ry

     iteration # 47     ecut=    30.00 Ry     beta= 0.70
     Davidson diagonalization with overlap

---- Real-time Memory Report at c_bands before calling an iterative solver
           461 MiB given to the printing process from OS
             0 MiB allocation reported by mallinfo(arena+hblkhd)
        178804 MiB available memory on the node where the printing process lives
------------------
     ethr =  6.12E-09,  avg # of iterations =  1.0

     negative rho (up, down):  1.251E-01 0.000E+00

     total cpu time spent up to now is      260.3 secs

     total energy              =   -4896.84050117 Ry
     estimated scf accuracy    <       0.00001108 Ry

     iteration # 48     ecut=    30.00 Ry     beta= 0.70
     Davidson diagonalization with overlap

---- Real-time Memory Report at c_bands before calling an iterative solver
           461 MiB given to the printing process from OS
             0 MiB allocation reported by mallinfo(arena+hblkhd)
        178857 MiB available memory on the node where the printing process lives
------------------
     ethr =  5.83E-09,  avg # of iterations =  1.0

     negative rho (up, down):  1.251E-01 0.000E+00

     total cpu time spent up to now is      265.3 secs

     total energy              =   -4896.84050117 Ry
     estimated scf accuracy    <       0.00001099 Ry

     iteration # 49     ecut=    30.00 Ry     beta= 0.70
     Davidson diagonalization with overlap

---- Real-time Memory Report at c_bands before calling an iterative solver
           461 MiB given to the printing process from OS
             0 MiB allocation reported by mallinfo(arena+hblkhd)
        178738 MiB available memory on the node where the printing process lives
------------------
     ethr =  5.78E-09,  avg # of iterations =  1.1

     negative rho (up, down):  1.251E-01 0.000E+00

     total cpu time spent up to now is      270.4 secs

     total energy              =   -4896.84050116 Ry
     estimated scf accuracy    <       0.00001090 Ry

     iteration # 50     ecut=    30.00 Ry     beta= 0.70
     Davidson diagonalization with overlap

---- Real-time Memory Report at c_bands before calling an iterative solver
           461 MiB given to the printing process from OS
             0 MiB allocation reported by mallinfo(arena+hblkhd)
        178816 MiB available memory on the node where the printing process lives
------------------
     ethr =  5.73E-09,  avg # of iterations =  1.0

     negative rho (up, down):  1.251E-01 0.000E+00

     total cpu time spent up to now is      275.3 secs

     total energy              =   -4896.84050116 Ry
     estimated scf accuracy    <       0.00001058 Ry

     iteration # 51     ecut=    30.00 Ry     beta= 0.70
     Davidson diagonalization with overlap

---- Real-time Memory Report at c_bands before calling an iterative solver
           461 MiB given to the printing process from OS
             0 MiB allocation reported by mallinfo(arena+hblkhd)
        178766 MiB available memory on the node where the printing process lives
------------------
     ethr =  5.57E-09,  avg # of iterations =  1.1

     negative rho (up, down):  1.251E-01 0.000E+00

     total cpu time spent up to now is      280.4 secs

     total energy              =   -4896.84050019 Ry
     estimated scf accuracy    <       0.00001077 Ry

     iteration # 52     ecut=    30.00 Ry     beta= 0.70
     Davidson diagonalization with overlap

---- Real-time Memory Report at c_bands before calling an iterative solver
           461 MiB given to the printing process from OS
             0 MiB allocation reported by mallinfo(arena+hblkhd)
        178765 MiB available memory on the node where the printing process lives
------------------
     ethr =  5.57E-09,  avg # of iterations =  1.1

     negative rho (up, down):  1.251E-01 0.000E+00

     total cpu time spent up to now is      285.4 secs

     total energy              =   -4896.84049588 Ry
     estimated scf accuracy    <       0.00099873 Ry

     iteration # 53     ecut=    30.00 Ry     beta= 0.70
     Davidson diagonalization with overlap

---- Real-time Memory Report at c_bands before calling an iterative solver
           461 MiB given to the printing process from OS
             0 MiB allocation reported by mallinfo(arena+hblkhd)
        178778 MiB available memory on the node where the printing process lives
------------------
     ethr =  5.57E-09,  avg # of iterations =  1.1

     negative rho (up, down):  1.251E-01 0.000E+00

     total cpu time spent up to now is      290.5 secs

     total energy              =   -4896.84049243 Ry
     estimated scf accuracy    <       0.00080281 Ry

     iteration # 54     ecut=    30.00 Ry     beta= 0.70
     Davidson diagonalization with overlap

---- Real-time Memory Report at c_bands before calling an iterative solver
           461 MiB given to the printing process from OS
             0 MiB allocation reported by mallinfo(arena+hblkhd)
        178744 MiB available memory on the node where the printing process lives
------------------
     ethr =  5.57E-09,  avg # of iterations =  1.0

     negative rho (up, down):  1.251E-01 0.000E+00

     total cpu time spent up to now is      295.4 secs

     total energy              =   -4896.84050066 Ry
     estimated scf accuracy    <       0.00001468 Ry

     iteration # 55     ecut=    30.00 Ry     beta= 0.70
     Davidson diagonalization with overlap

---- Real-time Memory Report at c_bands before calling an iterative solver
           461 MiB given to the printing process from OS
             0 MiB allocation reported by mallinfo(arena+hblkhd)
        178765 MiB available memory on the node where the printing process lives
------------------
     ethr =  5.57E-09,  avg # of iterations =  1.0

     negative rho (up, down):  1.251E-01 0.000E+00

     total cpu time spent up to now is      300.3 secs

     total energy              =   -4896.84050125 Ry
     estimated scf accuracy    <       0.00000901 Ry

     iteration # 56     ecut=    30.00 Ry     beta= 0.70
     Davidson diagonalization with overlap

---- Real-time Memory Report at c_bands before calling an iterative solver
           461 MiB given to the printing process from OS
             0 MiB allocation reported by mallinfo(arena+hblkhd)
        178766 MiB available memory on the node where the printing process lives
------------------
     ethr =  4.74E-09,  avg # of iterations =  1.0

     negative rho (up, down):  1.251E-01 0.000E+00

     total cpu time spent up to now is      305.4 secs

     total energy              =   -4896.84050121 Ry
     estimated scf accuracy    <       0.00000841 Ry

     iteration # 57     ecut=    30.00 Ry     beta= 0.70
     Davidson diagonalization with overlap

---- Real-time Memory Report at c_bands before calling an iterative solver
           461 MiB given to the printing process from OS
             0 MiB allocation reported by mallinfo(arena+hblkhd)
        178758 MiB available memory on the node where the printing process lives
------------------
     ethr =  4.42E-09,  avg # of iterations =  1.0

     negative rho (up, down):  1.251E-01 0.000E+00

     total cpu time spent up to now is      310.3 secs

     total energy              =   -4896.84050118 Ry
     estimated scf accuracy    <       0.00000945 Ry

     iteration # 58     ecut=    30.00 Ry     beta= 0.70
     Davidson diagonalization with overlap

---- Real-time Memory Report at c_bands before calling an iterative solver
           461 MiB given to the printing process from OS
             0 MiB allocation reported by mallinfo(arena+hblkhd)
        178810 MiB available memory on the node where the printing process lives
------------------
     ethr =  4.42E-09,  avg # of iterations =  1.0

     negative rho (up, down):  1.251E-01 0.000E+00

     total cpu time spent up to now is      315.4 secs

     total energy              =   -4896.84050118 Ry
     estimated scf accuracy    <       0.00001026 Ry

     iteration # 59     ecut=    30.00 Ry     beta= 0.70
     Davidson diagonalization with overlap

---- Real-time Memory Report at c_bands before calling an iterative solver
           461 MiB given to the printing process from OS
             0 MiB allocation reported by mallinfo(arena+hblkhd)
        178777 MiB available memory on the node where the printing process lives
------------------
     ethr =  4.42E-09,  avg # of iterations =  1.0

     negative rho (up, down):  1.251E-01 0.000E+00

     total cpu time spent up to now is      320.3 secs

     total energy              =   -4896.84050119 Ry
     estimated scf accuracy    <       0.00001071 Ry

     iteration # 60     ecut=    30.00 Ry     beta= 0.70
     Davidson diagonalization with overlap

---- Real-time Memory Report at c_bands before calling an iterative solver
           461 MiB given to the printing process from OS
             0 MiB allocation reported by mallinfo(arena+hblkhd)
        178759 MiB available memory on the node where the printing process lives
------------------
     ethr =  4.42E-09,  avg # of iterations =  1.1

     negative rho (up, down):  1.251E-01 0.000E+00

     total cpu time spent up to now is      325.4 secs

     total energy              =   -4896.84050119 Ry
     estimated scf accuracy    <       0.00001157 Ry

     iteration # 61     ecut=    30.00 Ry     beta= 0.70
     Davidson diagonalization with overlap

---- Real-time Memory Report at c_bands before calling an iterative solver
           461 MiB given to the printing process from OS
             0 MiB allocation reported by mallinfo(arena+hblkhd)
        178833 MiB available memory on the node where the printing process lives
------------------
     ethr =  4.42E-09,  avg # of iterations =  1.0

     negative rho (up, down):  1.251E-01 0.000E+00

     total cpu time spent up to now is      330.4 secs

     total energy              =   -4896.84050122 Ry
     estimated scf accuracy    <       0.00001177 Ry

     iteration # 62     ecut=    30.00 Ry     beta= 0.70
     Davidson diagonalization with overlap

---- Real-time Memory Report at c_bands before calling an iterative solver
           461 MiB given to the printing process from OS
             0 MiB allocation reported by mallinfo(arena+hblkhd)
        178726 MiB available memory on the node where the printing process lives
------------------
     ethr =  4.42E-09,  avg # of iterations =  1.1

     negative rho (up, down):  1.251E-01 0.000E+00

     total cpu time spent up to now is      335.5 secs

     total energy              =   -4896.84050061 Ry
     estimated scf accuracy    <       0.00001234 Ry

     iteration # 63     ecut=    30.00 Ry     beta= 0.70
     Davidson diagonalization with overlap

---- Real-time Memory Report at c_bands before calling an iterative solver
           461 MiB given to the printing process from OS
             0 MiB allocation reported by mallinfo(arena+hblkhd)
        178763 MiB available memory on the node where the printing process lives
------------------
     ethr =  4.42E-09,  avg # of iterations =  1.0

     negative rho (up, down):  1.251E-01 0.000E+00

     total cpu time spent up to now is      340.5 secs

     total energy              =   -4896.84049648 Ry
     estimated scf accuracy    <       0.00082992 Ry

     iteration # 64     ecut=    30.00 Ry     beta= 0.70
     Davidson diagonalization with overlap

---- Real-time Memory Report at c_bands before calling an iterative solver
           461 MiB given to the printing process from OS
             0 MiB allocation reported by mallinfo(arena+hblkhd)
        178815 MiB available memory on the node where the printing process lives
------------------
     ethr =  4.42E-09,  avg # of iterations =  1.1

     negative rho (up, down):  1.251E-01 0.000E+00

     total cpu time spent up to now is      345.6 secs

     total energy              =   -4896.84049699 Ry
     estimated scf accuracy    <       0.00028815 Ry

     iteration # 65     ecut=    30.00 Ry     beta= 0.70
     Davidson diagonalization with overlap

---- Real-time Memory Report at c_bands before calling an iterative solver
           461 MiB given to the printing process from OS
             0 MiB allocation reported by mallinfo(arena+hblkhd)
        178722 MiB available memory on the node where the printing process lives
------------------
     ethr =  4.42E-09,  avg # of iterations =  1.0

     negative rho (up, down):  1.251E-01 0.000E+00

     total cpu time spent up to now is      350.5 secs

     total energy              =   -4896.84050109 Ry
     estimated scf accuracy    <       0.00001096 Ry

     iteration # 66     ecut=    30.00 Ry     beta= 0.70
     Davidson diagonalization with overlap

---- Real-time Memory Report at c_bands before calling an iterative solver
           461 MiB given to the printing process from OS
             0 MiB allocation reported by mallinfo(arena+hblkhd)
        178752 MiB available memory on the node where the printing process lives
------------------
     ethr =  4.42E-09,  avg # of iterations =  1.0

     negative rho (up, down):  1.251E-01 0.000E+00

     total cpu time spent up to now is      355.5 secs

     total energy              =   -4896.84050122 Ry
     estimated scf accuracy    <       0.00000275 Ry

     iteration # 67     ecut=    30.00 Ry     beta= 0.70
     Davidson diagonalization with overlap

---- Real-time Memory Report at c_bands before calling an iterative solver
           461 MiB given to the printing process from OS
             0 MiB allocation reported by mallinfo(arena+hblkhd)
        178831 MiB available memory on the node where the printing process lives
------------------
     ethr =  1.45E-09,  avg # of iterations =  1.0

     negative rho (up, down):  1.251E-01 0.000E+00

     total cpu time spent up to now is      360.5 secs

     total energy              =   -4896.84050120 Ry
     estimated scf accuracy    <       0.00000327 Ry

     iteration # 68     ecut=    30.00 Ry     beta= 0.70
     Davidson diagonalization with overlap

---- Real-time Memory Report at c_bands before calling an iterative solver
           461 MiB given to the printing process from OS
             0 MiB allocation reported by mallinfo(arena+hblkhd)
        178750 MiB available memory on the node where the printing process lives
------------------
     ethr =  1.45E-09,  avg # of iterations =  1.0

     negative rho (up, down):  1.251E-01 0.000E+00

     total cpu time spent up to now is      365.5 secs

     total energy              =   -4896.84050117 Ry
     estimated scf accuracy    <       0.00000463 Ry

     iteration # 69     ecut=    30.00 Ry     beta= 0.70
     Davidson diagonalization with overlap

---- Real-time Memory Report at c_bands before calling an iterative solver
           461 MiB given to the printing process from OS
             0 MiB allocation reported by mallinfo(arena+hblkhd)
        178752 MiB available memory on the node where the printing process lives
------------------
     ethr =  1.45E-09,  avg # of iterations =  1.1

     negative rho (up, down):  1.251E-01 0.000E+00

     total cpu time spent up to now is      370.5 secs

     End of self-consistent calculation

          k = 0.0000 0.0000 0.0000 (  4957 PWs)   bands (ev):

   -83.2624 -83.2601 -64.4565 -64.4524 -46.5516 -46.5491 -46.5107 -46.5050
   -46.4957 -46.4911 -28.6791 -28.6732 -28.6730 -28.6674 -28.6615 -28.6567
    -7.9386  -7.5363  -7.2294  -7.0002  -6.9564  -6.8882  -6.6882  -6.6443
    -6.6351  -6.5796  -6.5116  -6.5090  -5.2878  -5.2792  -5.2624  -5.2456
    -5.2354  -5.2305  -5.2222  -5.2205  -5.2166  -5.2089  -5.2027  -5.1859
    -5.1856  -5.1817  -5.1306  -5.1252  -5.0593  -4.9690  -4.9468  -4.9411
     2.4870   3.2997   3.9680   4.2044   4.4178   4.7836   4.8634   4.8967
     4.9892   5.4561   5.4950   5.5255   5.6207   6.2738   6.3377   6.3712
     6.4894   6.6007   7.2541   7.3366   7.3600   7.4664   7.8909   8.0434
     8.2982   8.3842   8.4539   8.7722   8.8120   8.8183   8.8914   9.0596
     9.0825   9.1261   9.2178   9.5839   9.6222   9.6399   9.6502  10.1575
    10.5710  10.5804  10.6038  10.6099  11.1889  11.1902  11.5206  11.6210
    11.6561  11.9072  12.8368  12.8646  13.0026  13.0702  13.4495  13.6619
    13.8092  15.1873  15.2274  15.4989  16.2485  16.4588  16.5360  16.6849
    16.8122  16.8946  17.1148  17.1213  17.4392  18.2554  18.7952  18.8561
    18.9407  20.2969  20.4658  20.7071  20.8613  20.8998  21.5326  22.5245
    22.6031  22.7939  23.0089  23.2443  23.7288  23.7920  24.0114  24.4807
    24.6763  25.0546  25.3762  26.1322  26.2229  26.2855  26.4122  26.4422
    26.4903  26.6179  26.6589  27.1161  27.4398  27.6267  27.6835  28.2188
    28.4012  28.5108  28.5660  28.8347  28.9133  28.9568  29.0548  29.1848
    29.2171  30.3898  30.4406  30.5411  30.5413  30.7670  31.5336  31.5418
    31.6016  31.6899  32.3423  32.3892  32.6555  32.6799  32.8000  32.9325
    32.9441  33.0841  33.2505  33.3334  33.4218  33.6823  33.7328  33.9371
    34.1781  34.4066  34.5936  34.9988  35.0473  35.5612  35.8887  35.9404
    36.1988  36.2228  36.2785  36.2973  36.3994  36.6053  36.8453  36.9222
    37.4164  37.4801  38.0793  38.5224  38.9362  39.0460  39.3523  39.5057
    39.8610  40.3993  40.6352  40.7550  40.7888  40.7952  40.9381  40.9612
    40.9618  41.2144  41.2347  41.3039  41.6861  41.7863  41.8986  41.9171
    42.2677  42.4072  42.4645  42.6197  42.6529  42.9641  43.0874  43.5020
    43.6324  43.9102  43.9646  44.3958  44.5861  44.6304  44.7075  44.7126
    44.9157  45.2215  45.3095  45.3242  45.6931  45.9388  45.9790  46.4585
    46.5002  46.6170  46.6216  46.6345  46.7441  46.7922  47.0063  47.6576

     occupation numbers 
     1.0000   1.0000   1.0000   1.0000   1.0000   1.0000   1.0000   1.0000
     1.0000   1.0000   1.0000   1.0000   1.0000   1.0000   1.0000   1.0000
     1.0000   1.0000   1.0000   1.0000   1.0000   1.0000   1.0000   1.0000
     1.0000   1.0000   1.0000   1.0000   1.0000   1.0000   1.0000   1.0000
     1.0000   1.0000   1.0000   1.0000   1.0000   1.0000   1.0000   1.0000
     1.0000   1.0000   1.0000   1.0000   1.0000   1.0000   1.0000   1.0000
     1.0000   1.0000   1.0000   1.0000   1.0000   1.0000   1.0000   1.0000
     1.0000   1.0000   1.0000   1.0000   1.0000   1.0000   1.0000   1.0000
     1.0000   1.0000   1.0000   1.0000   1.0000   1.0000   1.0000   1.0000
     1.0000   1.0000   1.0000   1.0000   1.0000   1.0000   1.0000   1.0000
     1.0000   1.0000   1.0000   1.0000   1.0000   1.0000   1.0000   1.0000
     1.0000   1.0000   1.0000   1.0000   1.0000   1.0000   1.0000   0.0000
     0.0000   0.0000   0.0000   0.0000   0.0000   0.0000   0.0000   0.0000
     0.0000   0.0000   0.0000   0.0000   0.0000   0.0000   0.0000   0.0000
     0.0000   0.0000   0.0000   0.0000   0.0000   0.0000   0.0000   0.0000
     0.0000   0.0000   0.0000   0.0000   0.0000   0.0000   0.0000   0.0000
     0.0000   0.0000   0.0000   0.0000   0.0000   0.0000   0.0000   0.0000
     0.0000   0.0000   0.0000   0.0000   0.0000   0.0000   0.0000   0.0000
     0.0000   0.0000   0.0000   0.0000   0.0000   0.0000   0.0000   0.0000
     0.0000   0.0000   0.0000   0.0000   0.0000   0.0000   0.0000   0.0000
     0.0000   0.0000   0.0000   0.0000   0.0000   0.0000   0.0000   0.0000
     0.0000   0.0000   0.0000   0.0000   0.0000   0.0000   0.0000   0.0000
     0.0000   0.0000   0.0000   0.0000   0.0000   0.0000   0.0000   0.0000
     0.0000   0.0000   0.0000   0.0000   0.0000   0.0000   0.0000   0.0000
     0.0000   0.0000   0.0000   0.0000   0.0000   0.0000   0.0000   0.0000
     0.0000   0.0000   0.0000   0.0000   0.0000   0.0000   0.0000   0.0000
     0.0000   0.0000   0.0000   0.0000   0.0000   0.0000   0.0000   0.0000
     0.0000   0.0000   0.0000   0.0000   0.0000   0.0000   0.0000   0.0000
     0.0000   0.0000   0.0000   0.0000   0.0000   0.0000   0.0000   0.0000
     0.0000   0.0000   0.0000   0.0000   0.0000   0.0000   0.0000   0.0000
     0.0000   0.0000   0.0000   0.0000   0.0000   0.0000   0.0000   0.0000
     0.0000   0.0000   0.0000   0.0000   0.0000   0.0000   0.0000   0.0000

          k = 0.0000 0.0000 0.3302 (  4977 PWs)   bands (ev):

   -83.2626 -83.2603 -64.4565 -64.4524 -46.5533 -46.5504 -46.5099 -46.5054
   -46.4974 -46.4936 -28.6791 -28.6732 -28.6730 -28.6675 -28.6616 -28.6567
    -7.7727  -7.5339  -7.1889  -7.0308  -7.0148  -6.9765  -6.7173  -6.6621
    -6.5547  -6.5356  -6.5288  -6.4817  -5.2813  -5.2712  -5.2572  -5.2545
    -5.2473  -5.2434  -5.2409  -5.2377  -5.2370  -5.2094  -5.1985  -5.1750
    -5.1628  -5.1615  -5.1267  -5.1155  -5.0889  -5.0480  -5.0307  -4.9963
     2.7730   3.0839   3.2797   3.4943   4.7660   5.0156   5.1827   5.2782
     5.4023   5.4658   5.6328   5.6932   5.9507   6.3556   6.4722   6.7339
     6.8000   6.8389   7.0135   7.0602   7.2971   7.7015   7.7031   7.9274
     8.0407   8.1087   8.3945   8.4786   8.6098   8.6612   8.8825   8.9618
     9.0256   9.0452   9.2140   9.2781   9.3821   9.4115   9.4887   9.7050
    10.8414  10.8597  10.8876  10.9581  11.1428  11.1489  11.7719  11.9260
    12.1784  12.2070  12.8621  13.1410  13.1597  13.1783  13.5343  13.5869
    13.8450  14.8324  15.4625  15.5466  15.6514  15.7328  16.0890  16.1227
    16.2405  16.3738  16.7054  16.8751  17.3422  18.2457  18.2796  18.4414
    19.3534  20.9210  21.2528  21.2714  21.8072  22.2123  22.3041  22.3050
    22.6956  22.7444  23.3016  23.4144  23.7275  24.0318  24.1707  24.3726
    24.6111  24.6481  24.9415  25.3901  25.4011  25.5505  25.8438  25.9685
    26.2343  26.5484  26.7282  27.0404  27.0773  27.2015  27.2200  27.5817
    27.8799  28.2154  28.5027  29.2166  29.2868  29.3213  29.4436  29.8358
    30.1694  30.4671  30.5977  30.6942  30.7110  30.9062  31.3518  31.4017
    31.7634  32.1184  32.2600  32.4942  32.5966  32.9506  33.0684  33.1540
    33.4265  33.4436  33.4920  33.6206  34.0289  34.0983  34.4553  34.5650
    34.7173  34.7659  34.8140  35.1588  35.3918  35.4585  35.4901  35.5055
    35.8593  36.0797  36.2544  36.3193  36.4816  36.9052  37.0699  37.1504
    37.1878  38.0946  38.1324  38.2794  38.5195  38.7230  38.9685  39.0703
    39.4853  39.7300  40.0842  40.1031  40.1736  40.3960  40.4886  40.6824
    40.7849  40.9436  41.5494  41.5754  41.6474  41.7097  41.7896  41.8909
    42.1466  42.2054  42.5167  42.7966  42.9098  43.0932  43.1910  43.3113
    43.4337  43.6621  43.8664  43.9774  44.1050  44.3715  44.5392  44.7836
    45.2290  45.3163  45.3484  45.8291  45.9034  45.9099  45.9154  46.0042
    46.0861  46.1485  46.3667  46.4282  46.4565  46.5319  46.9770  47.0520

     occupation numbers 
     1.0000   1.0000   1.0000   1.0000   1.0000   1.0000   1.0000   1.0000
     1.0000   1.0000   1.0000   1.0000   1.0000   1.0000   1.0000   1.0000
     1.0000   1.0000   1.0000   1.0000   1.0000   1.0000   1.0000   1.0000
     1.0000   1.0000   1.0000   1.0000   1.0000   1.0000   1.0000   1.0000
     1.0000   1.0000   1.0000   1.0000   1.0000   1.0000   1.0000   1.0000
     1.0000   1.0000   1.0000   1.0000   1.0000   1.0000   1.0000   1.0000
     1.0000   1.0000   1.0000   1.0000   1.0000   1.0000   1.0000   1.0000
     1.0000   1.0000   1.0000   1.0000   1.0000   1.0000   1.0000   1.0000
     1.0000   1.0000   1.0000   1.0000   1.0000   1.0000   1.0000   1.0000
     1.0000   1.0000   1.0000   1.0000   1.0000   1.0000   1.0000   1.0000
     1.0000   1.0000   1.0000   1.0000   1.0000   1.0000   1.0000   1.0000
     1.0000   1.0000   1.0000   1.0000   1.0000   1.0000   1.0000   0.0000
     0.0000   0.0000   0.0000   0.0000   0.0000   0.0000   0.0000   0.0000
     0.0000   0.0000   0.0000   0.0000   0.0000   0.0000   0.0000   0.0000
     0.0000   0.0000   0.0000   0.0000   0.0000   0.0000   0.0000   0.0000
     0.0000   0.0000   0.0000   0.0000   0.0000   0.0000   0.0000   0.0000
     0.0000   0.0000   0.0000   0.0000   0.0000   0.0000   0.0000   0.0000
     0.0000   0.0000   0.0000   0.0000   0.0000   0.0000   0.0000   0.0000
     0.0000   0.0000   0.0000   0.0000   0.0000   0.0000   0.0000   0.0000
     0.0000   0.0000   0.0000   0.0000   0.0000   0.0000   0.0000   0.0000
     0.0000   0.0000   0.0000   0.0000   0.0000   0.0000   0.0000   0.0000
     0.0000   0.0000   0.0000   0.0000   0.0000   0.0000   0.0000   0.0000
     0.0000   0.0000   0.0000   0.0000   0.0000   0.0000   0.0000   0.0000
     0.0000   0.0000   0.0000   0.0000   0.0000   0.0000   0.0000   0.0000
     0.0000   0.0000   0.0000   0.0000   0.0000   0.0000   0.0000   0.0000
     0.0000   0.0000   0.0000   0.0000   0.0000   0.0000   0.0000   0.0000
     0.0000   0.0000   0.0000   0.0000   0.0000   0.0000   0.0000   0.0000
     0.0000   0.0000   0.0000   0.0000   0.0000   0.0000   0.0000   0.0000
     0.0000   0.0000   0.0000   0.0000   0.0000   0.0000   0.0000   0.0000
     0.0000   0.0000   0.0000   0.0000   0.0000   0.0000   0.0000   0.0000
     0.0000   0.0000   0.0000   0.0000   0.0000   0.0000   0.0000   0.0000
     0.0000   0.0000   0.0000   0.0000   0.0000   0.0000   0.0000   0.0000

          k = 0.0000 0.2376-0.0007 (  4993 PWs)   bands (ev):

   -83.2628 -83.2604 -64.4566 -64.4524 -46.5545 -46.5504 -46.5110 -46.5060
   -46.4984 -46.4941 -28.6791 -28.6733 -28.6730 -28.6675 -28.6615 -28.6567
    -7.8476  -7.6469  -7.1588  -7.0198  -6.9746  -6.9166  -6.6625  -6.6339
    -6.6155  -6.5828  -6.5479  -6.5438  -5.2708  -5.2680  -5.2547  -5.2542
    -5.2392  -5.2311  -5.2283  -5.2254  -5.2036  -5.1848  -5.1828  -5.1769
    -5.1598  -5.1515  -5.1340  -5.1260  -5.0313  -5.0103  -5.0002  -4.9876
     2.7129   3.3781   3.4349   3.7813   4.6187   4.8631   5.1068   5.1422
     5.4663   5.4989   5.5760   5.6760   5.8033   5.8057   5.9348   6.5156
     6.6331   6.8929   6.9095   7.0403   7.1855   7.3476   7.8189   8.0474
     8.4762   8.5124   8.5955   8.6416   8.6855   8.7109   8.8960   8.9389
     8.9689   9.0257   9.0751   9.4765   9.6336   9.6451   9.6458   9.6659
    10.5772  10.5878  10.8668  10.8720  11.1206  11.1332  11.6005  11.6235
    11.9477  12.1649  12.9513  13.0413  13.0679  13.2119  13.3668  13.4415
    13.8310  15.5863  15.6306  15.7054  15.8426  16.3242  16.3485  16.4246
    16.4688  16.7638  16.9033  17.1129  17.2427  18.1754  18.8021  18.8400
    18.9848  20.4429  20.9703  21.0848  21.3035  21.3780  21.7117  21.9359
    21.9905  22.6412  22.7155  23.4099  23.8762  24.1064  24.1714  24.3447
    24.5762  25.0052  25.0069  25.1534  25.6768  25.8373  25.9095  26.1557
    26.6470  26.6862  27.0346  27.3057  27.5709  27.6032  27.9348  28.3743
    28.4472  28.5500  28.7576  28.8406  29.0476  29.0732  29.5718  29.8114
    29.9450  30.4227  30.5841  30.6915  30.7174  30.8565  31.1297  31.4497
    31.5274  31.5638  31.6525  32.0177  32.2792  32.4353  32.7301  33.0912
    33.1038  33.1077  33.7037  33.7527  33.7784  33.7915  33.9829  34.0066
    34.2335  34.7108  34.8501  34.9273  35.1413  35.3755  35.4292  35.6488
    35.8158  36.0089  36.0657  36.1779  36.2747  36.5354  37.0293  37.0850
    37.3009  37.7585  37.8825  37.9706  38.0653  38.1982  38.9139  38.9611
    39.3084  39.8659  40.6831  40.8109  40.8255  41.0787  41.1071  41.2397
    41.5015  41.5890  41.7370  41.7534  41.8625  41.8956  42.0090  42.0890
    42.3445  42.3491  42.5035  42.5703  43.0655  43.1898  43.3170  43.6890
    43.7337  44.0833  44.1063  44.1112  44.5214  44.6863  44.8498  44.8692
    44.8893  45.1883  45.2204  45.5670  45.8044  45.9498  46.0929  46.1103
    46.1903  46.4654  46.4756  46.6721  46.8296  47.0948  47.2352  47.3727

     occupation numbers 
     1.0000   1.0000   1.0000   1.0000   1.0000   1.0000   1.0000   1.0000
     1.0000   1.0000   1.0000   1.0000   1.0000   1.0000   1.0000   1.0000
     1.0000   1.0000   1.0000   1.0000   1.0000   1.0000   1.0000   1.0000
     1.0000   1.0000   1.0000   1.0000   1.0000   1.0000   1.0000   1.0000
     1.0000   1.0000   1.0000   1.0000   1.0000   1.0000   1.0000   1.0000
     1.0000   1.0000   1.0000   1.0000   1.0000   1.0000   1.0000   1.0000
     1.0000   1.0000   1.0000   1.0000   1.0000   1.0000   1.0000   1.0000
     1.0000   1.0000   1.0000   1.0000   1.0000   1.0000   1.0000   1.0000
     1.0000   1.0000   1.0000   1.0000   1.0000   1.0000   1.0000   1.0000
     1.0000   1.0000   1.0000   1.0000   1.0000   1.0000   1.0000   1.0000
     1.0000   1.0000   1.0000   1.0000   1.0000   1.0000   1.0000   1.0000
     1.0000   1.0000   1.0000   1.0000   1.0000   1.0000   1.0000   0.0000
     0.0000   0.0000   0.0000   0.0000   0.0000   0.0000   0.0000   0.0000
     0.0000   0.0000   0.0000   0.0000   0.0000   0.0000   0.0000   0.0000
     0.0000   0.0000   0.0000   0.0000   0.0000   0.0000   0.0000   0.0000
     0.0000   0.0000   0.0000   0.0000   0.0000   0.0000   0.0000   0.0000
     0.0000   0.0000   0.0000   0.0000   0.0000   0.0000   0.0000   0.0000
     0.0000   0.0000   0.0000   0.0000   0.0000   0.0000   0.0000   0.0000
     0.0000   0.0000   0.0000   0.0000   0.0000   0.0000   0.0000   0.0000
     0.0000   0.0000   0.0000   0.0000   0.0000   0.0000   0.0000   0.0000
     0.0000   0.0000   0.0000   0.0000   0.0000   0.0000   0.0000   0.0000
     0.0000   0.0000   0.0000   0.0000   0.0000   0.0000   0.0000   0.0000
     0.0000   0.0000   0.0000   0.0000   0.0000   0.0000   0.0000   0.0000
     0.0000   0.0000   0.0000   0.0000   0.0000   0.0000   0.0000   0.0000
     0.0000   0.0000   0.0000   0.0000   0.0000   0.0000   0.0000   0.0000
     0.0000   0.0000   0.0000   0.0000   0.0000   0.0000   0.0000   0.0000
     0.0000   0.0000   0.0000   0.0000   0.0000   0.0000   0.0000   0.0000
     0.0000   0.0000   0.0000   0.0000   0.0000   0.0000   0.0000   0.0000
     0.0000   0.0000   0.0000   0.0000   0.0000   0.0000   0.0000   0.0000
     0.0000   0.0000   0.0000   0.0000   0.0000   0.0000   0.0000   0.0000
     0.0000   0.0000   0.0000   0.0000   0.0000   0.0000   0.0000   0.0000
     0.0000   0.0000   0.0000   0.0000   0.0000   0.0000   0.0000   0.0000

          k = 0.0000 0.2376 0.3295 (  4973 PWs)   bands (ev):

   -83.2626 -83.2603 -64.4565 -64.4524 -46.5540 -46.5511 -46.5091 -46.5046
   -46.4975 -46.4935 -28.6791 -28.6732 -28.6730 -28.6675 -28.6615 -28.6567
    -7.7161  -7.5708  -7.1227  -7.0248  -6.9877  -6.9824  -6.8153  -6.8037
    -6.5385  -6.5046  -6.4993  -6.4490  -5.2724  -5.2710  -5.2626  -5.2518
    -5.2477  -5.2417  -5.2401  -5.2329  -5.2270  -5.2141  -5.2035  -5.2031
    -5.1419  -5.1411  -5.1386  -5.1067  -5.0826  -5.0557  -5.0363  -5.0092
     2.8390   3.1391   3.2343   3.4313   5.0057   5.0759   5.2231   5.3131
     5.3496   5.6158   5.6611   5.7857   5.9573   6.0117   6.6107   6.6274
     6.6542   6.8757   6.8875   7.1062   7.1809   7.4877   7.6049   7.8153
     7.9333   8.0589   8.5724   8.6294   8.7006   8.7716   8.8024   8.9535
     8.9691   9.0075   9.1673   9.3305   9.3650   9.3823   9.4627   9.6757
    10.8788  10.9448  10.9453  10.9924  11.1078  11.1508  12.1643  12.1643
    12.2074  12.2896  12.7376  13.1109  13.1409  13.2120  13.3192  13.3558
    14.0780  14.8263  14.8527  15.4911  15.7637  15.9263  16.0376  16.2546
    16.2732  16.4207  16.5663  16.5967  17.7046  18.2829  18.3273  18.3461
    19.4113  20.2487  21.8637  21.9286  22.1013  22.3524  22.5345  22.6337
    22.6658  22.8584  23.1462  23.5809  23.6423  24.0451  24.1850  24.1870
    24.4912  24.5084  24.5298  24.5380  25.0946  25.2202  25.3928  25.5112
    26.0421  26.3006  26.4689  26.7383  26.9211  27.2112  28.0418  28.2035
    28.4639  28.4926  28.7677  29.0829  29.3538  29.5685  29.6336  29.9555
    30.4861  30.7541  30.8742  30.8786  31.1082  31.1301  31.2743  31.4340
    31.4600  31.6014  32.1022  32.1813  32.4767  32.9719  32.9959  33.1016
    33.1058  33.3504  33.3694  33.5874  33.7144  33.8042  33.9436  34.4075
    34.6084  34.9495  35.1037  35.3996  35.4653  35.4862  35.9748  35.9836
    36.2040  36.2301  36.3047  36.7442  36.9104  37.0272  37.2596  37.6325
    37.6937  37.8407  37.8578  38.0218  38.1114  38.2137  38.6862  38.9115
    39.4333  39.4954  39.6245  39.7288  39.8667  40.3169  40.4170  40.4358
    40.8346  41.0291  41.2155  41.3361  41.4194  41.4937  41.8364  42.2273
    42.5167  42.5664  42.5902  42.6324  42.8799  43.2163  43.3575  43.4836
    43.5315  43.7056  43.7485  43.8532  43.9708  44.0698  44.2195  44.2294
    44.9795  45.0136  45.2459  45.3226  45.6720  45.9318  45.9940  46.0055
    46.0965  46.3018  46.7344  46.7790  46.7911  46.9227  47.2535  47.3688

     occupation numbers 
     1.0000   1.0000   1.0000   1.0000   1.0000   1.0000   1.0000   1.0000
     1.0000   1.0000   1.0000   1.0000   1.0000   1.0000   1.0000   1.0000
     1.0000   1.0000   1.0000   1.0000   1.0000   1.0000   1.0000   1.0000
     1.0000   1.0000   1.0000   1.0000   1.0000   1.0000   1.0000   1.0000
     1.0000   1.0000   1.0000   1.0000   1.0000   1.0000   1.0000   1.0000
     1.0000   1.0000   1.0000   1.0000   1.0000   1.0000   1.0000   1.0000
     1.0000   1.0000   1.0000   1.0000   1.0000   1.0000   1.0000   1.0000
     1.0000   1.0000   1.0000   1.0000   1.0000   1.0000   1.0000   1.0000
     1.0000   1.0000   1.0000   1.0000   1.0000   1.0000   1.0000   1.0000
     1.0000   1.0000   1.0000   1.0000   1.0000   1.0000   1.0000   1.0000
     1.0000   1.0000   1.0000   1.0000   1.0000   1.0000   1.0000   1.0000
     1.0000   1.0000   1.0000   1.0000   1.0000   1.0000   1.0000   0.0000
     0.0000   0.0000   0.0000   0.0000   0.0000   0.0000   0.0000   0.0000
     0.0000   0.0000   0.0000   0.0000   0.0000   0.0000   0.0000   0.0000
     0.0000   0.0000   0.0000   0.0000   0.0000   0.0000   0.0000   0.0000
     0.0000   0.0000   0.0000   0.0000   0.0000   0.0000   0.0000   0.0000
     0.0000   0.0000   0.0000   0.0000   0.0000   0.0000   0.0000   0.0000
     0.0000   0.0000   0.0000   0.0000   0.0000   0.0000   0.0000   0.0000
     0.0000   0.0000   0.0000   0.0000   0.0000   0.0000   0.0000   0.0000
     0.0000   0.0000   0.0000   0.0000   0.0000   0.0000   0.0000   0.0000
     0.0000   0.0000   0.0000   0.0000   0.0000   0.0000   0.0000   0.0000
     0.0000   0.0000   0.0000   0.0000   0.0000   0.0000   0.0000   0.0000
     0.0000   0.0000   0.0000   0.0000   0.0000   0.0000   0.0000   0.0000
     0.0000   0.0000   0.0000   0.0000   0.0000   0.0000   0.0000   0.0000
     0.0000   0.0000   0.0000   0.0000   0.0000   0.0000   0.0000   0.0000
     0.0000   0.0000   0.0000   0.0000   0.0000   0.0000   0.0000   0.0000
     0.0000   0.0000   0.0000   0.0000   0.0000   0.0000   0.0000   0.0000
     0.0000   0.0000   0.0000   0.0000   0.0000   0.0000   0.0000   0.0000
     0.0000   0.0000   0.0000   0.0000   0.0000   0.0000   0.0000   0.0000
     0.0000   0.0000   0.0000   0.0000   0.0000   0.0000   0.0000   0.0000
     0.0000   0.0000   0.0000   0.0000   0.0000   0.0000   0.0000   0.0000
     0.0000   0.0000   0.0000   0.0000   0.0000   0.0000   0.0000   0.0000

          k = 0.0000 0.2376-0.3310 (  4978 PWs)   bands (ev):

   -83.2627 -83.2604 -64.4565 -64.4524 -46.5539 -46.5515 -46.5095 -46.5053
   -46.4977 -46.4936 -28.6791 -28.6732 -28.6730 -28.6675 -28.6616 -28.6567
    -7.6972  -7.5969  -7.1071  -7.0191  -7.0143  -6.9934  -6.8299  -6.7446
    -6.5385  -6.5089  -6.4998  -6.4670  -5.2724  -5.2703  -5.2632  -5.2514
[...]
     0.0000   0.0000   0.0000   0.0000   0.0000   0.0000   0.0000   0.0000
     0.0000   0.0000   0.0000   0.0000   0.0000   0.0000   0.0000   0.0000
     0.0000   0.0000   0.0000   0.0000   0.0000   0.0000   0.0000   0.0000
     0.0000   0.0000   0.0000   0.0000   0.0000   0.0000   0.0000   0.0000
     0.0000   0.0000   0.0000   0.0000   0.0000   0.0000   0.0000   0.0000
     0.0000   0.0000   0.0000   0.0000   0.0000   0.0000   0.0000   0.0000
     0.0000   0.0000   0.0000   0.0000   0.0000   0.0000   0.0000   0.0000
     0.0000   0.0000   0.0000   0.0000   0.0000   0.0000   0.0000   0.0000
     0.0000   0.0000   0.0000   0.0000   0.0000   0.0000   0.0000   0.0000

          k = 0.3333-0.2376 0.0008 (  4971 PWs)   bands (ev):

   -83.2627 -83.2603 -64.4565 -64.4524 -46.5538 -46.5515 -46.5106 -46.5062
   -46.4960 -46.4922 -28.6790 -28.6732 -28.6729 -28.6674 -28.6615 -28.6567
    -7.6974  -7.5713  -7.1133  -7.0418  -7.0119  -6.9955  -6.8040  -6.7578
    -6.5599  -6.5250  -6.4856  -6.4714  -5.2790  -5.2691  -5.2634  -5.2592
    -5.2532  -5.2509  -5.2504  -5.2425  -5.2090  -5.2018  -5.1908  -5.1565
    -5.1498  -5.1374  -5.1366  -5.0883  -5.0849  -5.0717  -5.0416  -5.0221
     2.8772   3.1108   3.2360   3.4913   5.0269   5.1074   5.2333   5.2771
     5.4139   5.6176   5.6247   5.7223   5.9481   5.9980   6.5849   6.6325
     6.7538   6.8859   6.9112   7.0904   7.1048   7.5451   7.7094   7.7808
     7.8275   7.8768   8.4134   8.5122   8.6254   8.6855   8.6947   8.8506
     8.9744   9.0944   9.2254   9.3196   9.4237   9.4338   9.6237   9.7511
    10.9397  10.9557  10.9769  11.0107  11.0668  11.1264  12.1635  12.1699
    12.1900  12.2882  12.8982  13.0689  13.0808  13.2162  13.2616  13.4477
    14.2834  14.8325  15.0107  15.2834  15.5081  16.0712  16.1080  16.1874
    16.2513  16.5450  16.6130  16.6647  17.7052  18.2210  18.2393  18.4067
    19.4292  20.2985  21.7154  21.8310  22.1284  22.2961  22.4199  22.7503
    22.9643  23.2142  23.3454  23.7949  23.8513  23.8719  24.0765  24.2109
    24.4327  24.4580  24.5057  24.7336  24.8455  25.6510  25.7294  25.7568
    26.0919  26.2370  26.6256  26.8041  26.9984  27.3626  27.5768  27.8523
    27.9663  28.0280  28.2922  28.5308  28.8758  29.3064  29.7507  29.8350
    29.9567  30.2006  30.7853  30.8558  30.9167  30.9679  31.4127  31.6120
    31.7742  31.9108  32.2722  32.5256  32.6096  32.7706  32.9898  33.1600
    33.3683  33.3784  33.5145  33.5332  33.8691  33.9889  34.2278  34.5173
    34.5949  34.7907  35.0800  35.3623  35.4199  35.7609  35.8086  35.9178
    36.2384  36.3619  36.5556  36.7594  36.7895  37.0630  37.2486  37.3728
    37.3802  37.8115  37.9579  38.1562  38.3439  38.4542  38.6350  38.7423
    38.9451  39.2442  39.6468  39.7978  39.9739  39.9767  40.3206  40.4769
    40.9200  41.1121  41.1850  41.6781  41.6880  41.7982  41.8445  42.1612
    42.4946  42.7754  42.8413  42.9313  43.0411  43.1247  43.3482  43.3983
    43.4510  43.6788  43.7262  43.9014  44.2311  44.2599  44.6903  44.6991
    44.8999  45.0137  45.1857  45.6513  45.8032  45.9468  46.0050  46.1646
    46.2512  46.3891  46.4726  46.8183  46.8979  47.0131  47.0883  47.2772

     occupation numbers 
     1.0000   1.0000   1.0000   1.0000   1.0000   1.0000   1.0000   1.0000
     1.0000   1.0000   1.0000   1.0000   1.0000   1.0000   1.0000   1.0000
     1.0000   1.0000   1.0000   1.0000   1.0000   1.0000   1.0000   1.0000
     1.0000   1.0000   1.0000   1.0000   1.0000   1.0000   1.0000   1.0000
     1.0000   1.0000   1.0000   1.0000   1.0000   1.0000   1.0000   1.0000
     1.0000   1.0000   1.0000   1.0000   1.0000   1.0000   1.0000   1.0000
     1.0000   1.0000   1.0000   1.0000   1.0000   1.0000   1.0000   1.0000
     1.0000   1.0000   1.0000   1.0000   1.0000   1.0000   1.0000   1.0000
     1.0000   1.0000   1.0000   1.0000   1.0000   1.0000   1.0000   1.0000
     1.0000   1.0000   1.0000   1.0000   1.0000   1.0000   1.0000   1.0000
     1.0000   1.0000   1.0000   1.0000   1.0000   1.0000   1.0000   1.0000
     1.0000   1.0000   1.0000   1.0000   1.0000   1.0000   1.0000   0.0000
     0.0000   0.0000   0.0000   0.0000   0.0000   0.0000   0.0000   0.0000
     0.0000   0.0000   0.0000   0.0000   0.0000   0.0000   0.0000   0.0000
     0.0000   0.0000   0.0000   0.0000   0.0000   0.0000   0.0000   0.0000
     0.0000   0.0000   0.0000   0.0000   0.0000   0.0000   0.0000   0.0000
     0.0000   0.0000   0.0000   0.0000   0.0000   0.0000   0.0000   0.0000
     0.0000   0.0000   0.0000   0.0000   0.0000   0.0000   0.0000   0.0000
     0.0000   0.0000   0.0000   0.0000   0.0000   0.0000   0.0000   0.0000
     0.0000   0.0000   0.0000   0.0000   0.0000   0.0000   0.0000   0.0000
     0.0000   0.0000   0.0000   0.0000   0.0000   0.0000   0.0000   0.0000
     0.0000   0.0000   0.0000   0.0000   0.0000   0.0000   0.0000   0.0000
     0.0000   0.0000   0.0000   0.0000   0.0000   0.0000   0.0000   0.0000
     0.0000   0.0000   0.0000   0.0000   0.0000   0.0000   0.0000   0.0000
     0.0000   0.0000   0.0000   0.0000   0.0000   0.0000   0.0000   0.0000
     0.0000   0.0000   0.0000   0.0000   0.0000   0.0000   0.0000   0.0000
     0.0000   0.0000   0.0000   0.0000   0.0000   0.0000   0.0000   0.0000
     0.0000   0.0000   0.0000   0.0000   0.0000   0.0000   0.0000   0.0000
     0.0000   0.0000   0.0000   0.0000   0.0000   0.0000   0.0000   0.0000
     0.0000   0.0000   0.0000   0.0000   0.0000   0.0000   0.0000   0.0000
     0.0000   0.0000   0.0000   0.0000   0.0000   0.0000   0.0000   0.0000
     0.0000   0.0000   0.0000   0.0000   0.0000   0.0000   0.0000   0.0000

          k = 0.3333-0.2376 0.3310 (  4977 PWs)   bands (ev):

   -83.2627 -83.2603 -64.4565 -64.4524 -46.5535 -46.5513 -46.5102 -46.5061
   -46.4968 -46.4930 -28.6791 -28.6733 -28.6730 -28.6675 -28.6616 -28.6567
    -7.5983  -7.5358  -7.2036  -7.1747  -6.9745  -6.9668  -6.6753  -6.6207
    -6.6110  -6.5762  -6.4588  -6.4566  -5.2858  -5.2827  -5.2640  -5.2615
    -5.2577  -5.2523  -5.2495  -5.2424  -5.2299  -5.2250  -5.1842  -5.1829
    -5.1672  -5.1429  -5.1311  -5.1133  -5.1100  -5.1015  -5.0799  -5.0665
     2.9192   2.9228   2.9992   3.1998   4.8080   4.8431   5.4159   5.4345
     5.6372   5.7105   5.7506   5.8489   6.1288   6.5241   6.6744   6.7239
     6.7988   6.9423   7.3311   7.3534   7.5824   7.6374   7.7130   7.7178
     7.7721   7.9117   7.9382   8.3597   8.6203   8.6264   8.7844   8.7922
     8.9109   8.9716   9.1683   9.1955   9.3386   9.3656   9.6340   9.7766
    10.8631  10.9163  11.0829  11.1156  11.1194  11.1631  11.7840  11.8816
    12.1745  12.2411  13.2432  13.2897  13.3115  13.3482  13.4362  13.6458
    14.3880  14.4735  14.5592  15.1638  15.3068  15.3717  15.7084  15.9785
    16.0092  16.0404  16.5748  16.6170  17.3417  17.4071  18.3228  18.5334
    20.4910  20.9296  21.9243  22.1096  22.5222  22.6994  22.7610  22.9972
    23.0089  23.1131  23.2651  23.6852  23.7433  23.8014  24.1087  24.2525
    24.2666  24.5413  24.7960  24.8697  25.0723  25.4167  25.7275  25.8616
    26.1799  26.3052  26.3894  26.9993  27.0200  27.2579  27.3392  27.3641
    27.5715  27.9229  28.2655  28.5480  28.7170  29.5573  29.5686  29.6537
    29.9068  30.1534  30.3251  30.6037  30.8554  31.1692  31.3128  31.6360
    31.7938  32.0018  32.2175  32.5097  32.5246  32.6800  32.8982  33.1959
    33.2151  33.6126  33.7331  33.9141  34.1492  34.2594  34.2722  34.3880
    34.8000  35.1594  35.3501  35.4256  35.4886  35.6542  35.6771  35.8032
    35.9272  36.1233  36.5118  36.9911  37.2738  37.2873  37.8940  37.9665
    38.2692  38.3404  38.3782  38.6562  38.7328  38.7631  38.8437  39.2059
    39.2499  39.3454  39.8502  39.9126  40.1755  40.2482  40.4557  40.5777
    40.7558  40.9119  41.0267  41.1723  41.3009  41.3385  41.7443  41.9643
    41.9786  42.0279  42.2382  42.3931  42.5270  42.8585  42.9257  43.2717
    43.3239  43.6696  43.8344  43.9772  44.1416  44.5412  44.5637  44.7481
    44.7552  45.0135  45.1419  45.3365  45.3700  45.4768  45.6768  45.8493
    46.0335  46.2102  46.3064  46.5244  46.6793  46.7728  47.0604  47.1036

     occupation numbers 
     1.0000   1.0000   1.0000   1.0000   1.0000   1.0000   1.0000   1.0000
     1.0000   1.0000   1.0000   1.0000   1.0000   1.0000   1.0000   1.0000
     1.0000   1.0000   1.0000   1.0000   1.0000   1.0000   1.0000   1.0000
     1.0000   1.0000   1.0000   1.0000   1.0000   1.0000   1.0000   1.0000
     1.0000   1.0000   1.0000   1.0000   1.0000   1.0000   1.0000   1.0000
     1.0000   1.0000   1.0000   1.0000   1.0000   1.0000   1.0000   1.0000
     1.0000   1.0000   1.0000   1.0000   1.0000   1.0000   1.0000   1.0000
     1.0000   1.0000   1.0000   1.0000   1.0000   1.0000   1.0000   1.0000
     1.0000   1.0000   1.0000   1.0000   1.0000   1.0000   1.0000   1.0000
     1.0000   1.0000   1.0000   1.0000   1.0000   1.0000   1.0000   1.0000
     1.0000   1.0000   1.0000   1.0000   1.0000   1.0000   1.0000   1.0000
     1.0000   1.0000   1.0000   1.0000   1.0000   1.0000   1.0000   0.0000
     0.0000   0.0000   0.0000   0.0000   0.0000   0.0000   0.0000   0.0000
     0.0000   0.0000   0.0000   0.0000   0.0000   0.0000   0.0000   0.0000
     0.0000   0.0000   0.0000   0.0000   0.0000   0.0000   0.0000   0.0000
     0.0000   0.0000   0.0000   0.0000   0.0000   0.0000   0.0000   0.0000
     0.0000   0.0000   0.0000   0.0000   0.0000   0.0000   0.0000   0.0000
     0.0000   0.0000   0.0000   0.0000   0.0000   0.0000   0.0000   0.0000
     0.0000   0.0000   0.0000   0.0000   0.0000   0.0000   0.0000   0.0000
     0.0000   0.0000   0.0000   0.0000   0.0000   0.0000   0.0000   0.0000
     0.0000   0.0000   0.0000   0.0000   0.0000   0.0000   0.0000   0.0000
     0.0000   0.0000   0.0000   0.0000   0.0000   0.0000   0.0000   0.0000
     0.0000   0.0000   0.0000   0.0000   0.0000   0.0000   0.0000   0.0000
     0.0000   0.0000   0.0000   0.0000   0.0000   0.0000   0.0000   0.0000
     0.0000   0.0000   0.0000   0.0000   0.0000   0.0000   0.0000   0.0000
     0.0000   0.0000   0.0000   0.0000   0.0000   0.0000   0.0000   0.0000
     0.0000   0.0000   0.0000   0.0000   0.0000   0.0000   0.0000   0.0000
     0.0000   0.0000   0.0000   0.0000   0.0000   0.0000   0.0000   0.0000
     0.0000   0.0000   0.0000   0.0000   0.0000   0.0000   0.0000   0.0000
     0.0000   0.0000   0.0000   0.0000   0.0000   0.0000   0.0000   0.0000
     0.0000   0.0000   0.0000   0.0000   0.0000   0.0000   0.0000   0.0000
     0.0000   0.0000   0.0000   0.0000   0.0000   0.0000   0.0000   0.0000

          k = 0.3333-0.2376-0.3295 (  4980 PWs)   bands (ev):

   -83.2627 -83.2604 -64.4565 -64.4524 -46.5541 -46.5515 -46.5103 -46.5059
   -46.4968 -46.4930 -28.6791 -28.6733 -28.6730 -28.6675 -28.6616 -28.6567
    -7.6073  -7.5230  -7.2050  -7.1741  -6.9869  -6.9565  -6.6739  -6.6279
    -6.6154  -6.5785  -6.4703  -6.4329  -5.2863  -5.2804  -5.2633  -5.2631
    -5.2574  -5.2512  -5.2500  -5.2440  -5.2301  -5.2227  -5.1868  -5.1767
    -5.1590  -5.1584  -5.1344  -5.1313  -5.1225  -5.1002  -5.0842  -5.0284
     2.9380   2.9435   2.9711   3.1781   4.8100   4.8484   5.3713   5.3765
     5.6615   5.7692   5.7829   5.8748   6.0790   6.5296   6.6123   6.7104
     6.9590   6.9738   7.2413   7.3441   7.5038   7.6109   7.6193   7.7077
     7.8941   7.9569   8.2555   8.3639   8.4736   8.5421   8.6408   8.7916
     8.9238   8.9596   9.1882   9.1994   9.3174   9.4185   9.6007   9.7917
    10.8416  10.9063  11.1012  11.1206  11.1511  11.1608  11.7671  11.8843
    12.1703  12.2674  13.1956  13.2531  13.3675  13.4319  13.5002  13.5663
    14.3457  14.4578  14.6004  15.1210  15.3124  15.3704  15.6455  15.8508
    16.1026  16.1995  16.5489  16.5719  17.3864  17.4035  18.3207  18.5330
    20.4940  20.9134  21.8976  22.3116  22.5135  22.7268  22.7702  22.9394
    22.9916  23.0731  23.2958  23.4505  23.7803  23.7928  24.0716  24.0795
    24.3868  24.6002  24.6711  24.9843  25.0178  25.4005  25.8318  25.9587
    26.1686  26.2427  26.4318  26.4372  26.8086  27.2799  27.4453  27.7308
    27.8523  28.2143  28.2311  28.4210  28.8081  29.3363  29.7087  29.8019
    30.1605  30.1715  30.5786  30.8293  30.8650  31.0024  31.1592  31.2934
    31.7171  31.9556  32.0642  32.6518  32.7231  32.7384  32.8124  32.9219
    33.2159  33.3005  33.6174  33.7742  33.8653  33.9474  34.3051  34.4693
    34.8700  35.1774  35.3083  35.3976  35.5372  35.6707  35.8785  36.0633
    36.1053  36.3211  36.5997  36.8501  37.0606  37.3030  37.4992  37.7933
    38.0656  38.3693  38.6068  38.7227  38.7846  38.8654  39.2059  39.4508
    39.4756  39.7072  39.9058  39.9321  40.2398  40.2741  40.5775  40.6192
    40.8113  40.8550  40.9120  41.0150  41.2313  41.2851  41.4448  41.7467
    41.8478  42.2519  42.2614  42.4956  42.6777  43.1465  43.2481  43.2946
    43.4314  43.5435  43.5448  43.7248  43.9595  44.3270  44.4222  44.4641
    44.6331  45.0302  45.1513  45.3096  45.5436  45.5552  45.6064  45.7231
    45.8360  46.2743  46.3419  46.5509  46.8340  46.8616  46.8904  47.1120

     occupation numbers 
     1.0000   1.0000   1.0000   1.0000   1.0000   1.0000   1.0000   1.0000
     1.0000   1.0000   1.0000   1.0000   1.0000   1.0000   1.0000   1.0000
     1.0000   1.0000   1.0000   1.0000   1.0000   1.0000   1.0000   1.0000
     1.0000   1.0000   1.0000   1.0000   1.0000   1.0000   1.0000   1.0000
     1.0000   1.0000   1.0000   1.0000   1.0000   1.0000   1.0000   1.0000
     1.0000   1.0000   1.0000   1.0000   1.0000   1.0000   1.0000   1.0000
     1.0000   1.0000   1.0000   1.0000   1.0000   1.0000   1.0000   1.0000
     1.0000   1.0000   1.0000   1.0000   1.0000   1.0000   1.0000   1.0000
     1.0000   1.0000   1.0000   1.0000   1.0000   1.0000   1.0000   1.0000
     1.0000   1.0000   1.0000   1.0000   1.0000   1.0000   1.0000   1.0000
     1.0000   1.0000   1.0000   1.0000   1.0000   1.0000   1.0000   1.0000
     1.0000   1.0000   1.0000   1.0000   1.0000   1.0000   1.0000   0.0000
     0.0000   0.0000   0.0000   0.0000   0.0000   0.0000   0.0000   0.0000
     0.0000   0.0000   0.0000   0.0000   0.0000   0.0000   0.0000   0.0000
     0.0000   0.0000   0.0000   0.0000   0.0000   0.0000   0.0000   0.0000
     0.0000   0.0000   0.0000   0.0000   0.0000   0.0000   0.0000   0.0000
     0.0000   0.0000   0.0000   0.0000   0.0000   0.0000   0.0000   0.0000
     0.0000   0.0000   0.0000   0.0000   0.0000   0.0000   0.0000   0.0000
     0.0000   0.0000   0.0000   0.0000   0.0000   0.0000   0.0000   0.0000
     0.0000   0.0000   0.0000   0.0000   0.0000   0.0000   0.0000   0.0000
     0.0000   0.0000   0.0000   0.0000   0.0000   0.0000   0.0000   0.0000
     0.0000   0.0000   0.0000   0.0000   0.0000   0.0000   0.0000   0.0000
     0.0000   0.0000   0.0000   0.0000   0.0000   0.0000   0.0000   0.0000
     0.0000   0.0000   0.0000   0.0000   0.0000   0.0000   0.0000   0.0000
     0.0000   0.0000   0.0000   0.0000   0.0000   0.0000   0.0000   0.0000
     0.0000   0.0000   0.0000   0.0000   0.0000   0.0000   0.0000   0.0000
     0.0000   0.0000   0.0000   0.0000   0.0000   0.0000   0.0000   0.0000
     0.0000   0.0000   0.0000   0.0000   0.0000   0.0000   0.0000   0.0000
     0.0000   0.0000   0.0000   0.0000   0.0000   0.0000   0.0000   0.0000
     0.0000   0.0000   0.0000   0.0000   0.0000   0.0000   0.0000   0.0000
     0.0000   0.0000   0.0000   0.0000   0.0000   0.0000   0.0000   0.0000
     0.0000   0.0000   0.0000   0.0000   0.0000   0.0000   0.0000   0.0000

     highest occupied, lowest unoccupied level (ev):    12.1824   11.6210

!    total energy              =   -4896.84050081 Ry
     estimated scf accuracy    <       0.00000069 Ry

     The total energy is the sum of the following terms:
     one-electron contribution =    -688.35835157 Ry
     hartree contribution      =     475.49983772 Ry
     xc contribution           =    -413.64722628 Ry
     ewald contribution        =   -1242.09346547 Ry
     one-center paw contrib.   =   -3028.24129521 Ry
      -> PAW hartree energy AE =      95.62186448 Ry
      -> PAW hartree energy PS =     -95.40749018 Ry
      -> PAW xc energy AE      =    -772.29092892 Ry
      -> PAW xc energy PS      =      43.59963506 Ry
      -> total E_H with PAW    =     475.71421202 Ry
      -> total E_XC with PAW   =   -1142.33852014 Ry

     convergence has been achieved in  69 iterations

     Writing all to output data dir bands_nm/myprefix.save/
 
     init_run     :     11.74s CPU      3.19s WALL (       1 calls)
     electrons    :   1416.92s CPU    366.78s WALL (       1 calls)

     Called by init_run:
     wfcinit      :      7.54s CPU      1.94s WALL (       1 calls)
     wfcinit:atom :      0.02s CPU      0.01s WALL (       7 calls)
     wfcinit:wfcr :      7.36s CPU      1.89s WALL (       7 calls)
     potinit      :      1.15s CPU      0.30s WALL (       1 calls)
     hinit0       :      2.66s CPU      0.83s WALL (       1 calls)

     Called by electrons:
     c_bands      :   1217.72s CPU    313.34s WALL (      69 calls)
     sum_band     :    137.92s CPU     37.09s WALL (      69 calls)
     v_of_rho     :      3.15s CPU      0.82s WALL (      70 calls)
     v_h          :      0.26s CPU      0.07s WALL (      70 calls)
     v_xc         :      2.90s CPU      0.76s WALL (      70 calls)
     newd         :     17.10s CPU      4.69s WALL (      70 calls)
     PAW_pot      :     38.69s CPU     10.12s WALL (      70 calls)
     mix_rho      :      1.27s CPU      0.33s WALL (      69 calls)

     Called by c_bands:
     init_us_2    :      2.81s CPU      0.73s WALL (     973 calls)
     init_us_2:cp :      2.80s CPU      0.73s WALL (     973 calls)
     cegterg      :   1187.03s CPU    304.58s WALL (     483 calls)

     Called by sum_band:
     sum_band:wei :      0.02s CPU      0.01s WALL (      69 calls)
     sum_band:loo :    119.17s CPU     30.59s WALL (      69 calls)
     sum_band:buf :      2.02s CPU      0.44s WALL (     483 calls)
     sum_band:ini :      1.39s CPU      0.36s WALL (     483 calls)
     sum_band:cal :     33.42s CPU      8.42s WALL (     483 calls)
     sum_band:bec :      0.83s CPU      0.32s WALL (     483 calls)
     addusdens    :     18.01s CPU      6.32s WALL (      69 calls)
     addusd:skk   :      0.04s CPU      0.03s WALL (     276 calls)
     addusd:dgemm :      5.42s CPU      3.11s WALL (     276 calls)
     addusd:qvan2 :     11.16s CPU      2.85s WALL (     276 calls)

     Called by *egterg:
     cdiaghg      :    327.10s CPU     85.58s WALL (    1159 calls)
     cegterg:over :    141.54s CPU     35.72s WALL (     676 calls)
     cegterg:upda :     69.47s CPU     17.57s WALL (     676 calls)
     cegterg:last :    100.34s CPU     25.37s WALL (     587 calls)
     cdiaghg:chol :     21.62s CPU      5.72s WALL (    1159 calls)
     cdiaghg:inve :      7.13s CPU      1.86s WALL (    1159 calls)
     cdiaghg:para :     72.95s CPU     19.45s WALL (    2318 calls)
     h_psi        :    432.91s CPU    111.11s WALL (    1166 calls)
     s_psi        :     64.41s CPU     16.27s WALL (    1166 calls)
     g_psi        :      0.42s CPU      0.16s WALL (     676 calls)

     Called by h_psi:
     h_psi:calbec :     68.98s CPU     17.41s WALL (    1166 calls)
     vloc_psi     :    298.67s CPU     77.00s WALL (    1166 calls)
     add_vuspsi   :     64.13s CPU     16.35s WALL (    1166 calls)

     General routines
     calbec       :    102.38s CPU     25.83s WALL (    1649 calls)
     fft          :      3.07s CPU      0.84s WALL (     908 calls)
     ffts         :      0.18s CPU      0.05s WALL (     139 calls)
     fftw         :    362.09s CPU     82.42s WALL (  631732 calls)
     interpolate  :      0.35s CPU      0.09s WALL (      70 calls)
 
     Parallel routines

     PAW routines
     PAW_pot      :     38.69s CPU     10.12s WALL (      70 calls)
 
     PWSCF        :  23m52.04s CPU   6m12.77s WALL

 
   This run was terminated on:  21:59:15  15Jul2023            

=------------------------------------------------------------------------------=
   JOB DONE.
=------------------------------------------------------------------------------=
