
     Program PWSCF v.7.1 starts on 16Jul2023 at 15:33: 0 

     This program is part of the open-source Quantum ESPRESSO suite
     for quantum simulation of materials; please cite
         "P. Giannozzi et al., J. Phys.:Condens. Matter 21 395502 (2009);
         "P. Giannozzi et al., J. Phys.:Condens. Matter 29 465901 (2017);
         "P. Giannozzi et al., J. Chem. Phys. 152 154105 (2020);
          URL http://www.quantum-espresso.org", 
     in publications or presentations arising from this work. More details at
     http://www.quantum-espresso.org/quote

     Parallel version (MPI & OpenMP), running on      32 processor cores
     Number of MPI processes:                 8
     Threads/MPI process:                     4

     MPI processes distributed on     1 nodes
     246458 MiB available memory on the printing compute node when the environment starts
 
     Reading input from espresso_27075.pwi
Warning: card &CELL ignored
Warning: card / ignored

     Current dimensions of program PWSCF are:
     Max number of different atomic species (ntypx) = 10
     Max number of k-points (npk) =  40000
     Max angular momentum in pseudopotentials (lmaxx) =  4
     Message from routine setup:
     using ibrav=0 with symmetry is DISCOURAGED, use correct ibrav instead
 
     K-points division:     npool     =       2
     R & G space division:  proc/nbgrp/npool/nimage =       4
     Subspace diagonalization in iterative solution of the eigenvalue problem:
     a serial algorithm will be used

 
     Parallelization info
     --------------------
     sticks:   dense  smooth     PW     G-vecs:    dense   smooth      PW
     Min         250     125     36                 8679     3068     484
     Max         252     127     37                 8680     3071     487
     Sum        1005     505    145                34719    12277    1939
 
     Using Slab Decomposition
 


     bravais-lattice index     =            0
     lattice parameter (alat)  =       7.2584  a.u.
     unit-cell volume          =     552.8434 (a.u.)^3
     number of atoms/cell      =            6
     number of atomic types    =            3
     number of electrons       =        48.00
     number of Kohn-Sham states=           64
     kinetic-energy cutoff     =      30.0000  Ry
     charge density cutoff     =     240.0000  Ry
     scf convergence threshold =      1.0E-06
     mixing beta               =       0.7000
     number of iterations used =            8  plain     mixing
     Exchange-correlation=  SLA  PW   PBX  PBC
                           (   1   4   3   4   0   0   0)

     celldm(1)=   7.258372  celldm(2)=   0.000000  celldm(3)=   0.000000
     celldm(4)=   0.000000  celldm(5)=   0.000000  celldm(6)=   0.000000

     crystal axes: (cart. coord. in units of alat)
               a(1) = (   1.000000   0.000000   0.000000 )  
               a(2) = (   0.000000   1.000000   0.000000 )  
               a(3) = (   0.000000   0.000000   1.445721 )  

     reciprocal axes: (cart. coord. in units 2 pi/alat)
               b(1) = (  1.000000  0.000000  0.000000 )  
               b(2) = (  0.000000  1.000000  0.000000 )  
               b(3) = (  0.000000  0.000000  0.691696 )  


     PseudoPot. # 1 for Na read from file:
     /lustre07/scratch/pragov/crystal_structure_design/utils/SSSP/na_pbe_v1.5.uspp.F.UPF
     MD5 check sum: 44600605ef58000f06b90626533354dc
     Pseudo is Ultrasoft, Zval =  9.0
     Generated by new atomic code, or converted to UPF format
     Using radial grid of  819 points,  5 beta functions with: 
                l(1) =   0
                l(2) =   0
                l(3) =   1
                l(4) =   1
                l(5) =   2
     Q(r) pseudized with  8 coefficients,  rinner =    1.250   1.250   1.250
                                                       1.250   1.250

     PseudoPot. # 2 for Y  read from file:
     /lustre07/scratch/pragov/crystal_structure_design/utils/SSSP/Y_pbe_v1.uspp.F.UPF
     MD5 check sum: 2cf71db95cafeb975fc457bd7f14888e
     Pseudo is Ultrasoft + core correction, Zval = 11.0
     Generated by new atomic code, or converted to UPF format
     Using radial grid of  885 points,  6 beta functions with: 
                l(1) =   0
                l(2) =   0
                l(3) =   1
                l(4) =   1
                l(5) =   2
                l(6) =   2
     Q(r) pseudized with  6 coefficients,  rinner =    1.200   1.200   1.200
                                                       1.200   1.200

     PseudoPot. # 3 for F  read from file:
     /lustre07/scratch/pragov/crystal_structure_design/utils/SSSP/f_pbe_v1.4.uspp.F.UPF
     MD5 check sum: 4c38b6a325caf53ec0e86aed9459de46
     Pseudo is Ultrasoft, Zval =  7.0
     Generated by new atomic code, or converted to UPF format
     Using radial grid of  799 points,  4 beta functions with: 
                l(1) =   0
                l(2) =   0
                l(3) =   1
                l(4) =   1
     Q(r) pseudized with  8 coefficients,  rinner =    0.950   0.950   0.950


     atomic species   valence    mass     pseudopotential
        Na             9.00    22.98977     Na( 1.00)
        Y             11.00    88.90584     Y ( 1.00)
        F              7.00    18.99840     F ( 1.00)

     16 Sym. Ops., with inversion, found


                                    s                        frac. trans.

      isym =  1     identity                                     

 cryst.   s( 1) = (     1          0          0      )
                  (     0          1          0      )
                  (     0          0          1      )

 cart.    s( 1) = (  1.0000000  0.0000000  0.0000000 )
                  (  0.0000000  1.0000000  0.0000000 )
                  (  0.0000000  0.0000000  1.0000000 )


      isym =  2     180 deg rotation - cart. axis [0,0,1]        

 cryst.   s( 2) = (    -1          0          0      )
                  (     0         -1          0      )
                  (     0          0          1      )

 cart.    s( 2) = ( -1.0000000  0.0000000  0.0000000 )
                  (  0.0000000 -1.0000000  0.0000000 )
                  (  0.0000000  0.0000000  1.0000000 )


      isym =  3     180 deg rotation - cart. axis [0,1,0]        

 cryst.   s( 3) = (    -1          0          0      )
                  (     0          1          0      )
                  (     0          0         -1      )

 cart.    s( 3) = ( -1.0000000  0.0000000  0.0000000 )
                  (  0.0000000  1.0000000  0.0000000 )
                  (  0.0000000  0.0000000 -1.0000000 )


      isym =  4     180 deg rotation - cart. axis [1,0,0]        

 cryst.   s( 4) = (     1          0          0      )
                  (     0         -1          0      )
                  (     0          0         -1      )

 cart.    s( 4) = (  1.0000000  0.0000000  0.0000000 )
                  (  0.0000000 -1.0000000  0.0000000 )
                  (  0.0000000  0.0000000 -1.0000000 )


      isym =  5     180 deg rotation - cart. axis [1,1,0]        

 cryst.   s( 5) = (     0          1          0      )
                  (     1          0          0      )
                  (     0          0         -1      )

 cart.    s( 5) = (  0.0000000  1.0000000  0.0000000 )
                  (  1.0000000  0.0000000  0.0000000 )
                  (  0.0000000  0.0000000 -1.0000000 )


      isym =  6     180 deg rotation - cart. axis [1,-1,0]       

 cryst.   s( 6) = (     0         -1          0      )
                  (    -1          0          0      )
                  (     0          0         -1      )

 cart.    s( 6) = (  0.0000000 -1.0000000  0.0000000 )
                  ( -1.0000000  0.0000000  0.0000000 )
                  (  0.0000000  0.0000000 -1.0000000 )


      isym =  7      90 deg rotation - cart. axis [0,0,-1]       

 cryst.   s( 7) = (     0         -1          0      )
                  (     1          0          0      )
                  (     0          0          1      )

 cart.    s( 7) = (  0.0000000  1.0000000  0.0000000 )
                  ( -1.0000000  0.0000000  0.0000000 )
                  (  0.0000000  0.0000000  1.0000000 )


      isym =  8      90 deg rotation - cart. axis [0,0,1]        

 cryst.   s( 8) = (     0          1          0      )
                  (    -1          0          0      )
                  (     0          0          1      )

 cart.    s( 8) = (  0.0000000 -1.0000000  0.0000000 )
                  (  1.0000000  0.0000000  0.0000000 )
                  (  0.0000000  0.0000000  1.0000000 )


      isym =  9     inversion                                    

 cryst.   s( 9) = (    -1          0          0      )
                  (     0         -1          0      )
                  (     0          0         -1      )

 cart.    s( 9) = ( -1.0000000  0.0000000  0.0000000 )
                  (  0.0000000 -1.0000000  0.0000000 )
                  (  0.0000000  0.0000000 -1.0000000 )


      isym = 10     inv. 180 deg rotation - cart. axis [0,0,1]   

 cryst.   s(10) = (     1          0          0      )
                  (     0          1          0      )
                  (     0          0         -1      )

 cart.    s(10) = (  1.0000000  0.0000000  0.0000000 )
                  (  0.0000000  1.0000000  0.0000000 )
                  (  0.0000000  0.0000000 -1.0000000 )


      isym = 11     inv. 180 deg rotation - cart. axis [0,1,0]   

 cryst.   s(11) = (     1          0          0      )
                  (     0         -1          0      )
                  (     0          0          1      )

 cart.    s(11) = (  1.0000000  0.0000000  0.0000000 )
                  (  0.0000000 -1.0000000  0.0000000 )
                  (  0.0000000  0.0000000  1.0000000 )


      isym = 12     inv. 180 deg rotation - cart. axis [1,0,0]   

 cryst.   s(12) = (    -1          0          0      )
                  (     0          1          0      )
                  (     0          0          1      )

 cart.    s(12) = ( -1.0000000  0.0000000  0.0000000 )
                  (  0.0000000  1.0000000  0.0000000 )
                  (  0.0000000  0.0000000  1.0000000 )


      isym = 13     inv. 180 deg rotation - cart. axis [1,1,0]   

 cryst.   s(13) = (     0         -1          0      )
                  (    -1          0          0      )
                  (     0          0          1      )

 cart.    s(13) = (  0.0000000 -1.0000000  0.0000000 )
                  ( -1.0000000  0.0000000  0.0000000 )
                  (  0.0000000  0.0000000  1.0000000 )


      isym = 14     inv. 180 deg rotation - cart. axis [1,-1,0]  

 cryst.   s(14) = (     0          1          0      )
                  (     1          0          0      )
                  (     0          0          1      )

 cart.    s(14) = (  0.0000000  1.0000000  0.0000000 )
                  (  1.0000000  0.0000000  0.0000000 )
                  (  0.0000000  0.0000000  1.0000000 )


      isym = 15     inv.  90 deg rotation - cart. axis [0,0,-1]  

 cryst.   s(15) = (     0          1          0      )
                  (    -1          0          0      )
                  (     0          0         -1      )

 cart.    s(15) = (  0.0000000 -1.0000000  0.0000000 )
                  (  1.0000000  0.0000000  0.0000000 )
                  (  0.0000000  0.0000000 -1.0000000 )


      isym = 16     inv.  90 deg rotation - cart. axis [0,0,1]   

 cryst.   s(16) = (     0         -1          0      )
                  (     1          0          0      )
                  (     0          0         -1      )

 cart.    s(16) = (  0.0000000  1.0000000  0.0000000 )
                  ( -1.0000000  0.0000000  0.0000000 )
                  (  0.0000000  0.0000000 -1.0000000 )


   Cartesian axes

     site n.     atom                  positions (alat units)
         1           Na  tau(   1) = (   0.0000000   0.0000000   0.0000000  )
         2           Y   tau(   2) = (   0.5000000   0.5000000   0.7228605  )
         3           F   tau(   3) = (   0.5000000   0.0000000   1.0557537  )
         4           F   tau(   4) = (   0.0000000   0.5000000   0.3899674  )
         5           F   tau(   5) = (   0.5000000   0.0000000   0.3899674  )
         6           F   tau(   6) = (   0.0000000   0.5000000   1.0557537  )

   Crystallographic axes

     site n.     atom                  positions (cryst. coord.)
         1           Na  tau(   1) = (  0.0000000  0.0000000  0.0000000  )
         2           Y   tau(   2) = (  0.5000000  0.5000000  0.5000000  )
         3           F   tau(   3) = (  0.5000000  0.0000000  0.7302610  )
         4           F   tau(   4) = (  0.0000000  0.5000000  0.2697390  )
         5           F   tau(   5) = (  0.5000000  0.0000000  0.2697390  )
         6           F   tau(   6) = (  0.0000000  0.5000000  0.7302610  )

     number of k points=     6
                       cart. coord. in units 2pi/alat
        k(    1) = (   0.0000000   0.0000000   0.0000000), wk =   0.0740741
        k(    2) = (   0.0000000   0.0000000   0.2305655), wk =   0.1481481
        k(    3) = (   0.0000000   0.3333333   0.0000000), wk =   0.2962963
        k(    4) = (   0.0000000   0.3333333   0.2305655), wk =   0.5925926
        k(    5) = (   0.3333333   0.3333333   0.0000000), wk =   0.2962963
        k(    6) = (   0.3333333   0.3333333   0.2305655), wk =   0.5925926

                       cryst. coord.
        k(    1) = (   0.0000000   0.0000000   0.0000000), wk =   0.0740741
        k(    2) = (   0.0000000   0.0000000   0.3333333), wk =   0.1481481
        k(    3) = (   0.0000000   0.3333333   0.0000000), wk =   0.2962963
        k(    4) = (   0.0000000   0.3333333   0.3333333), wk =   0.5925926
        k(    5) = (   0.3333333   0.3333333   0.0000000), wk =   0.2962963
        k(    6) = (   0.3333333   0.3333333   0.3333333), wk =   0.5925926

     Dense  grid:    34719 G-vectors     FFT dimensions: (  36,  36,  54)

     Smooth grid:    12277 G-vectors     FFT dimensions: (  25,  25,  40)

     Dynamical RAM for                 wfc:       0.37 MB

     Dynamical RAM for     wfc (w. buffer):       1.50 MB

     Dynamical RAM for           str. fact:       0.40 MB

     Dynamical RAM for           local pot:       0.00 MB

     Dynamical RAM for          nlocal pot:       0.37 MB

     Dynamical RAM for                qrad:       3.73 MB

     Dynamical RAM for          rho,v,vnew:       0.81 MB

     Dynamical RAM for               rhoin:       0.27 MB

     Dynamical RAM for            rho*nmix:       2.12 MB

     Dynamical RAM for           G-vectors:       0.52 MB

     Dynamical RAM for          h,s,v(r/c):       0.75 MB

     Dynamical RAM for          <psi|beta>:       0.06 MB

     Dynamical RAM for                 psi:       0.75 MB

     Dynamical RAM for                hpsi:       0.75 MB

     Dynamical RAM for                spsi:       0.75 MB

     Dynamical RAM for      wfcinit/wfcrot:       0.84 MB

     Dynamical RAM for           addusdens:      12.65 MB

     Estimated static dynamical RAM per process >       8.82 MB

     Estimated max dynamical RAM per process >      23.59 MB

     Estimated total dynamical RAM >     180.22 MB

     Check: negative core charge=   -0.000004

     Initial potential from superposition of free atoms

     starting charge      47.9892, renormalised to      48.0000

     negative rho (up, down):  4.371E-02 0.000E+00
     Starting wfcs are   34 randomized atomic wfcs +   30 random wfcs

     total cpu time spent up to now is        0.5 secs

     Self-consistent Calculation

     iteration #  1     ecut=    30.00 Ry     beta= 0.70
     Davidson diagonalization with overlap

---- Real-time Memory Report at c_bands before calling an iterative solver
           194 MiB given to the printing process from OS
             0 MiB allocation reported by mallinfo(arena+hblkhd)
        246116 MiB available memory on the node where the printing process lives
------------------
     ethr =  1.00E-02,  avg # of iterations =  6.7

     negative rho (up, down):  4.468E-02 0.000E+00

     total cpu time spent up to now is        0.8 secs

     total energy              =    -377.90942807 Ry
     estimated scf accuracy    <       0.74680104 Ry

     iteration #  2     ecut=    30.00 Ry     beta= 0.70
     Davidson diagonalization with overlap

---- Real-time Memory Report at c_bands before calling an iterative solver
           210 MiB given to the printing process from OS
             0 MiB allocation reported by mallinfo(arena+hblkhd)
        246011 MiB available memory on the node where the printing process lives
------------------
     ethr =  1.56E-03,  avg # of iterations =  2.0

     negative rho (up, down):  4.506E-02 0.000E+00

     total cpu time spent up to now is        0.9 secs

     total energy              =    -378.04068172 Ry
     estimated scf accuracy    <       0.86839781 Ry

     iteration #  3     ecut=    30.00 Ry     beta= 0.70
     Davidson diagonalization with overlap

---- Real-time Memory Report at c_bands before calling an iterative solver
           213 MiB given to the printing process from OS
             0 MiB allocation reported by mallinfo(arena+hblkhd)
        245948 MiB available memory on the node where the printing process lives
------------------
     ethr =  1.56E-03,  avg # of iterations =  1.8

     negative rho (up, down):  4.561E-02 0.000E+00

     total cpu time spent up to now is        1.0 secs

     total energy              =    -378.23060643 Ry
     estimated scf accuracy    <       0.01050274 Ry

     iteration #  4     ecut=    30.00 Ry     beta= 0.70
     Davidson diagonalization with overlap

---- Real-time Memory Report at c_bands before calling an iterative solver
           215 MiB given to the printing process from OS
             0 MiB allocation reported by mallinfo(arena+hblkhd)
        245878 MiB available memory on the node where the printing process lives
------------------
     ethr =  2.19E-05,  avg # of iterations =  6.3

     negative rho (up, down):  4.574E-02 0.000E+00

     total cpu time spent up to now is        1.2 secs

     total energy              =    -378.23266519 Ry
     estimated scf accuracy    <       0.00042046 Ry

     iteration #  5     ecut=    30.00 Ry     beta= 0.70
     Davidson diagonalization with overlap

---- Real-time Memory Report at c_bands before calling an iterative solver
           215 MiB given to the printing process from OS
             0 MiB allocation reported by mallinfo(arena+hblkhd)
        245854 MiB available memory on the node where the printing process lives
------------------
     ethr =  8.76E-07,  avg # of iterations =  3.8

     negative rho (up, down):  4.574E-02 0.000E+00

     total cpu time spent up to now is        1.4 secs

     total energy              =    -378.23271436 Ry
     estimated scf accuracy    <       0.00002832 Ry

     iteration #  6     ecut=    30.00 Ry     beta= 0.70
     Davidson diagonalization with overlap

---- Real-time Memory Report at c_bands before calling an iterative solver
           215 MiB given to the printing process from OS
             0 MiB allocation reported by mallinfo(arena+hblkhd)
        245652 MiB available memory on the node where the printing process lives
------------------
     ethr =  5.90E-08,  avg # of iterations =  1.0

     negative rho (up, down):  4.574E-02 0.000E+00

     total cpu time spent up to now is        1.5 secs

     total energy              =    -378.23272217 Ry
     estimated scf accuracy    <       0.00000119 Ry

     iteration #  7     ecut=    30.00 Ry     beta= 0.70
     Davidson diagonalization with overlap

---- Real-time Memory Report at c_bands before calling an iterative solver
           215 MiB given to the printing process from OS
             0 MiB allocation reported by mallinfo(arena+hblkhd)
        245646 MiB available memory on the node where the printing process lives
------------------
     ethr =  2.48E-09,  avg # of iterations =  2.0

     negative rho (up, down):  4.575E-02 0.000E+00

     total cpu time spent up to now is        1.7 secs

     End of self-consistent calculation

          k = 0.0000 0.0000 0.0000 (  1515 PWs)   bands (ev):

   -44.2939 -36.1356 -18.1394 -17.4098 -16.9515 -16.5939 -16.2054 -16.2054
   -16.1773 -16.0690 -16.0690 -14.8684  -0.1718   0.2305   0.2305   0.4761
     0.9849   0.9849   2.3274   2.3403   2.3403   2.4311   2.4311   2.6448
     9.7551  10.0551  10.7076  12.6325  13.5357  13.5357  15.4142  15.6462
    18.1246  19.0616  19.0616  19.3723  20.2272  20.2272  21.7556  23.7546
    23.9007  24.8884  25.3424  25.3424  25.4062  28.1846  28.1846  28.6055
    29.3036  30.0344  30.0344  32.3986  32.3986  32.6031  32.6031  32.9753
    33.9872  34.2400  34.4784  34.4784  34.6547  37.9191  37.9972  38.7885

     occupation numbers 
     1.0000   1.0000   1.0000   1.0000   1.0000   1.0000   1.0000   1.0000
     1.0000   1.0000   1.0000   1.0000   1.0000   1.0000   1.0000   1.0000
     1.0000   1.0000   1.0000   1.0000   1.0000   1.0000   1.0000   1.0000
     0.0000   0.0000   0.0000   0.0000   0.0000   0.0000   0.0000   0.0000
     0.0000   0.0000   0.0000   0.0000   0.0000   0.0000   0.0000   0.0000
     0.0000   0.0000   0.0000   0.0000   0.0000   0.0000   0.0000   0.0000
     0.0000   0.0000   0.0000   0.0000   0.0000   0.0000   0.0000   0.0000
     0.0000   0.0000   0.0000   0.0000   0.0000   0.0000   0.0000   0.0000

          k = 0.0000 0.0000 0.2306 (  1526 PWs)   bands (ev):

   -44.2942 -36.1356 -18.1370 -17.4431 -16.9172 -16.6320 -16.2024 -16.2024
   -16.1026 -16.0718 -16.0718 -14.9222   0.1737   0.1737   0.2280   0.7432
     1.0380   1.0380   1.7179   2.2897   2.3704   2.3704   2.4134   2.4134
    10.1848  10.6490  10.7148  12.7704  12.7908  13.5132  13.5132  17.0785
    19.1262  19.2458  19.2458  19.3390  20.1538  20.1538  21.8075  22.3408
    23.3031  24.9608  24.9608  26.4667  27.3235  28.5743  28.5743  28.9056
    29.8099  30.2574  30.2574  30.6572  30.7737  30.7737  31.8585  32.2812
    32.2812  33.1471  34.3083  36.8201  36.8201  37.1293  38.1892  38.4049

     occupation numbers 
     1.0000   1.0000   1.0000   1.0000   1.0000   1.0000   1.0000   1.0000
     1.0000   1.0000   1.0000   1.0000   1.0000   1.0000   1.0000   1.0000
     1.0000   1.0000   1.0000   1.0000   1.0000   1.0000   1.0000   1.0000
     0.0000   0.0000   0.0000   0.0000   0.0000   0.0000   0.0000   0.0000
     0.0000   0.0000   0.0000   0.0000   0.0000   0.0000   0.0000   0.0000
     0.0000   0.0000   0.0000   0.0000   0.0000   0.0000   0.0000   0.0000
     0.0000   0.0000   0.0000   0.0000   0.0000   0.0000   0.0000   0.0000
     0.0000   0.0000   0.0000   0.0000   0.0000   0.0000   0.0000   0.0000

          k = 0.0000 0.3333 0.0000 (  1542 PWs)   bands (ev):

   -44.2941 -36.1225 -18.0727 -17.7829 -17.2511 -16.8356 -16.2047 -16.1365
   -16.1222 -16.0596 -15.1826 -15.0734   0.0879   0.4747   0.5027   1.0214
     1.0790   1.2043   1.5574   1.8752   2.0679   2.0734   2.3957   2.5221
    10.1543  10.7474  11.3324  12.3510  12.7289  13.4063  14.9832  16.1763
    17.3698  18.1211  19.1823  19.7191  20.7042  21.4235  22.6405  23.7958
    23.8014  24.4423  25.4837  25.7282  26.4525  27.2729  27.3542  28.5309
    28.5929  29.1650  30.9018  30.9921  31.2577  31.4316  32.3026  33.0075
    34.3848  34.7231  35.0800  35.1146  36.0273  37.5418  38.0423  38.7370

     occupation numbers 
     1.0000   1.0000   1.0000   1.0000   1.0000   1.0000   1.0000   1.0000
     1.0000   1.0000   1.0000   1.0000   1.0000   1.0000   1.0000   1.0000
     1.0000   1.0000   1.0000   1.0000   1.0000   1.0000   1.0000   1.0000
     0.0000   0.0000   0.0000   0.0000   0.0000   0.0000   0.0000   0.0000
     0.0000   0.0000   0.0000   0.0000   0.0000   0.0000   0.0000   0.0000
     0.0000   0.0000   0.0000   0.0000   0.0000   0.0000   0.0000   0.0000
     0.0000   0.0000   0.0000   0.0000   0.0000   0.0000   0.0000   0.0000
     0.0000   0.0000   0.0000   0.0000   0.0000   0.0000   0.0000   0.0000

          k = 0.0000 0.3333 0.2306 (  1537 PWs)   bands (ev):

   -44.2941 -36.1225 -18.0683 -17.8150 -17.1645 -16.8603 -16.2035 -16.1901
   -16.1323 -16.0603 -15.1972 -15.0340   0.3824   0.4459   0.7191   0.9221
     1.2420   1.2522   1.6020   1.8333   1.9157   2.0512   2.0963   2.2011
    10.3884  10.7551  11.6201  12.4213  13.0207  13.3957  13.8793  15.6572
    16.7975  19.0954  19.8393  20.6800  21.2986  21.4731  22.2050  23.7454
    24.2750  24.7537  24.8213  25.3468  25.7610  26.6228  27.1171  27.5418
    28.9208  29.0657  29.9311  30.9983  31.8738  32.7306  33.0851  33.4178
    34.1298  34.5816  35.1656  35.3337  36.9953  37.1757  37.6132  37.8638

     occupation numbers 
     1.0000   1.0000   1.0000   1.0000   1.0000   1.0000   1.0000   1.0000
     1.0000   1.0000   1.0000   1.0000   1.0000   1.0000   1.0000   1.0000
     1.0000   1.0000   1.0000   1.0000   1.0000   1.0000   1.0000   1.0000
     0.0000   0.0000   0.0000   0.0000   0.0000   0.0000   0.0000   0.0000
     0.0000   0.0000   0.0000   0.0000   0.0000   0.0000   0.0000   0.0000
     0.0000   0.0000   0.0000   0.0000   0.0000   0.0000   0.0000   0.0000
     0.0000   0.0000   0.0000   0.0000   0.0000   0.0000   0.0000   0.0000
     0.0000   0.0000   0.0000   0.0000   0.0000   0.0000   0.0000   0.0000

          k = 0.3333 0.3333 0.0000 (  1537 PWs)   bands (ev):

   -44.2938 -36.1095 -18.1094 -18.0426 -17.4090 -16.8360 -16.2120 -16.2056
   -16.1966 -15.6497 -15.0626 -15.0105   0.0923   0.3524   0.6579   0.6633
     0.7447   1.2170   1.7063   1.7721   2.3687   2.4069   2.4742   2.7274
    10.2940  10.4292  12.0271  12.2879  12.7640  12.9184  15.9675  16.6690
    16.8744  18.6180  18.6645  19.2602  19.6631  19.9855  22.9873  23.6266
    23.7270  23.9636  24.3915  25.4868  27.2595  27.4526  28.6132  29.3677
    29.3979  30.0067  30.6931  31.2628  31.4287  31.9688  33.0479  33.0586
    33.6685  34.6410  35.8160  35.9439  36.2828  36.9065  37.7223  38.0024

     occupation numbers 
     1.0000   1.0000   1.0000   1.0000   1.0000   1.0000   1.0000   1.0000
     1.0000   1.0000   1.0000   1.0000   1.0000   1.0000   1.0000   1.0000
     1.0000   1.0000   1.0000   1.0000   1.0000   1.0000   1.0000   1.0000
     0.0000   0.0000   0.0000   0.0000   0.0000   0.0000   0.0000   0.0000
     0.0000   0.0000   0.0000   0.0000   0.0000   0.0000   0.0000   0.0000
     0.0000   0.0000   0.0000   0.0000   0.0000   0.0000   0.0000   0.0000
     0.0000   0.0000   0.0000   0.0000   0.0000   0.0000   0.0000   0.0000
     0.0000   0.0000   0.0000   0.0000   0.0000   0.0000   0.0000   0.0000

          k = 0.3333 0.3333 0.2306 (  1524 PWs)   bands (ev):

   -44.2935 -36.1095 -18.0749 -17.9998 -17.4643 -16.9662 -16.2012 -16.1925
   -16.1122 -15.6456 -15.0587 -15.0143   0.2118   0.4574   0.6151   0.9052
     0.9359   1.1417   1.6587   1.8297   1.9994   2.0833   2.5103   2.6965
    10.3450  10.6467  11.6050  12.1967  12.9216  13.7171  14.9634  16.1042
    17.2273  18.0768  19.0987  19.1075  20.3173  22.2508  22.5187  22.9136
    23.4006  24.1529  25.5492  25.5861  26.7690  27.2693  27.3476  28.4850
    28.9528  29.3964  30.1860  30.8455  32.3120  32.9824  33.3443  33.9804
    34.0836  34.6673  35.1010  35.6939  36.6864  37.2629  37.2857  37.7688

     occupation numbers 
     1.0000   1.0000   1.0000   1.0000   1.0000   1.0000   1.0000   1.0000
     1.0000   1.0000   1.0000   1.0000   1.0000   1.0000   1.0000   1.0000
     1.0000   1.0000   1.0000   1.0000   1.0000   1.0000   1.0000   1.0000
     0.0000   0.0000   0.0000   0.0000   0.0000   0.0000   0.0000   0.0000
     0.0000   0.0000   0.0000   0.0000   0.0000   0.0000   0.0000   0.0000
     0.0000   0.0000   0.0000   0.0000   0.0000   0.0000   0.0000   0.0000
     0.0000   0.0000   0.0000   0.0000   0.0000   0.0000   0.0000   0.0000
     0.0000   0.0000   0.0000   0.0000   0.0000   0.0000   0.0000   0.0000

     highest occupied, lowest unoccupied level (ev):     2.7274    9.7551

!    total energy              =    -378.23272248 Ry
     estimated scf accuracy    <       0.00000002 Ry

     The total energy is the sum of the following terms:
     one-electron contribution =    -180.59014151 Ry
     hartree contribution      =     114.47163303 Ry
     xc contribution           =     -74.10078751 Ry
     ewald contribution        =    -238.01342649 Ry

     convergence has been achieved in   7 iterations

     Writing all to output data dir bands_nm/myprefix.save/
 
     init_run     :      0.71s CPU      0.28s WALL (       1 calls)
     electrons    :      4.68s CPU      1.23s WALL (       1 calls)

     Called by init_run:
     wfcinit      :      0.27s CPU      0.07s WALL (       1 calls)
     wfcinit:atom :      0.00s CPU      0.00s WALL (       3 calls)
     wfcinit:wfcr :      0.26s CPU      0.07s WALL (       3 calls)
     potinit      :      0.05s CPU      0.02s WALL (       1 calls)
     hinit0       :      0.29s CPU      0.12s WALL (       1 calls)

     Called by electrons:
     c_bands      :      3.45s CPU      0.89s WALL (       7 calls)
     sum_band     :      0.66s CPU      0.18s WALL (       7 calls)
     v_of_rho     :      0.11s CPU      0.03s WALL (       8 calls)
     v_h          :      0.01s CPU      0.00s WALL (       8 calls)
     v_xc         :      0.10s CPU      0.03s WALL (       8 calls)
     newd         :      0.30s CPU      0.09s WALL (       8 calls)
     mix_rho      :      0.02s CPU      0.01s WALL (       7 calls)

     Called by c_bands:
     init_us_2    :      0.02s CPU      0.01s WALL (      45 calls)
     init_us_2:cp :      0.02s CPU      0.01s WALL (      45 calls)
     cegterg      :      3.25s CPU      0.84s WALL (      21 calls)

     Called by sum_band:
     sum_band:wei :      0.00s CPU      0.00s WALL (       7 calls)
     sum_band:loo :      0.35s CPU      0.09s WALL (       7 calls)
     sum_band:buf :      0.01s CPU      0.00s WALL (      21 calls)
     sum_band:ini :      0.01s CPU      0.00s WALL (      21 calls)
     sum_band:cal :      0.03s CPU      0.01s WALL (      21 calls)
     sum_band:bec :      0.00s CPU      0.00s WALL (      21 calls)
     addusdens    :      0.27s CPU      0.07s WALL (       7 calls)
     addusd:skk   :      0.00s CPU      0.00s WALL (      21 calls)
     addusd:dgemm :      0.06s CPU      0.02s WALL (      21 calls)
     addusd:qvan2 :      0.14s CPU      0.04s WALL (      21 calls)

     Called by *egterg:
     cdiaghg      :      1.19s CPU      0.30s WALL (      94 calls)
     cegterg:over :      0.21s CPU      0.04s WALL (      73 calls)
     cegterg:upda :      0.04s CPU      0.02s WALL (      73 calls)
     cegterg:last :      0.19s CPU      0.05s WALL (      45 calls)
     h_psi        :      1.61s CPU      0.43s WALL (      97 calls)
     s_psi        :      0.04s CPU      0.02s WALL (      97 calls)
     g_psi        :      0.00s CPU      0.00s WALL (      73 calls)

     Called by h_psi:
     h_psi:calbec :      0.09s CPU      0.02s WALL (      97 calls)
     vloc_psi     :      1.48s CPU      0.38s WALL (      97 calls)
     add_vuspsi   :      0.04s CPU      0.02s WALL (      97 calls)

     General routines
     calbec       :      0.12s CPU      0.03s WALL (     118 calls)
     fft          :      0.08s CPU      0.02s WALL (     102 calls)
     ffts         :      0.01s CPU      0.00s WALL (      15 calls)
     fftw         :      1.71s CPU      0.39s WALL (    8018 calls)
     interpolate  :      0.01s CPU      0.00s WALL (       8 calls)
 
     Parallel routines
 
     PWSCF        :      6.24s CPU      1.95s WALL

 
   This run was terminated on:  15:33: 2  16Jul2023            

=------------------------------------------------------------------------------=
   JOB DONE.
=------------------------------------------------------------------------------=
