
     Program PWSCF v.7.1 starts on 16Jul2023 at 12:51:35 

     This program is part of the open-source Quantum ESPRESSO suite
     for quantum simulation of materials; please cite
         "P. Giannozzi et al., J. Phys.:Condens. Matter 21 395502 (2009);
         "P. Giannozzi et al., J. Phys.:Condens. Matter 29 465901 (2017);
         "P. Giannozzi et al., J. Chem. Phys. 152 154105 (2020);
          URL http://www.quantum-espresso.org", 
     in publications or presentations arising from this work. More details at
     http://www.quantum-espresso.org/quote

     Parallel version (MPI & OpenMP), running on      32 processor cores
     Number of MPI processes:                 8
     Threads/MPI process:                     4

     MPI processes distributed on     1 nodes
     234735 MiB available memory on the printing compute node when the environment starts
 
     Reading input from espresso_27092.pwi
Warning: card &CELL ignored
Warning: card / ignored

     Current dimensions of program PWSCF are:
     Max number of different atomic species (ntypx) = 10
     Max number of k-points (npk) =  40000
     Max angular momentum in pseudopotentials (lmaxx) =  4
     file O.pbe-n-kjpaw_psl.0.1.UPF: wavefunction(s)  2P renormalized
     Message from routine setup:
     using ibrav=0 with symmetry is DISCOURAGED, use correct ibrav instead
 
     K-points division:     npool     =       2
     R & G space division:  proc/nbgrp/npool/nimage =       4
     Subspace diagonalization in iterative solution of the eigenvalue problem:
     a serial algorithm will be used

 
     Parallelization info
     --------------------
     sticks:   dense  smooth     PW     G-vecs:    dense   smooth      PW
     Min         819     410    117                25350     8967    1386
     Max         820     411    118                25351     8968    1388
     Sum        3277    1643    471               101403    35871    5549
 
     Using Slab Decomposition
 


     bravais-lattice index     =            0
     lattice parameter (alat)  =      17.7868  a.u.
     unit-cell volume          =    1616.4130 (a.u.)^3
     number of atoms/cell      =           20
     number of atomic types    =            4
     number of electrons       =       112.00
     number of Kohn-Sham states=           64
     kinetic-energy cutoff     =      30.0000  Ry
     charge density cutoff     =     240.0000  Ry
     scf convergence threshold =      1.0E-06
     mixing beta               =       0.7000
     number of iterations used =            8  plain     mixing
     Exchange-correlation=  SLA  PW   PBX  PBC
                           (   1   4   3   4   0   0   0)

     celldm(1)=  17.786835  celldm(2)=   0.000000  celldm(3)=   0.000000
     celldm(4)=   0.000000  celldm(5)=   0.000000  celldm(6)=   0.000000

     crystal axes: (cart. coord. in units of alat)
               a(1) = (   1.000000   0.000000   0.000000 )  
               a(2) = (   0.000000   0.545390   0.000000 )  
               a(3) = (   0.000000   0.264809   0.526682 )  

     reciprocal axes: (cart. coord. in units 2 pi/alat)
               b(1) = (  1.000000  0.000000  0.000000 )  
               b(2) = (  0.000000  1.833549 -0.921885 )  
               b(3) = (  0.000000  0.000000  1.898677 )  


     PseudoPot. # 1 for Li read from file:
     /lustre07/scratch/pragov/crystal_structure_design/utils/SSSP/li_pbe_v1.4.uspp.F.UPF
     MD5 check sum: e912e257baa3777c20ea3d68f190483c
     Pseudo is Ultrasoft, Zval =  3.0
     Generated by new atomic code, or converted to UPF format
     Using radial grid of  751 points,  5 beta functions with: 
                l(1) =   0
                l(2) =   0
                l(3) =   0
                l(4) =   1
                l(5) =   1
     Q(r) pseudized with 10 coefficients,  rinner =    1.150   1.150   1.150


     PseudoPot. # 2 for V  read from file:
     /lustre07/scratch/pragov/crystal_structure_design/utils/SSSP/v_pbe_v1.4.uspp.F.UPF
     MD5 check sum: 22b79981416ebb76fdaf5b1b8640f6fb
     Pseudo is Ultrasoft + core correction, Zval = 13.0
     Generated by new atomic code, or converted to UPF format
     Using radial grid of  853 points,  6 beta functions with: 
                l(1) =   0
                l(2) =   0
                l(3) =   1
                l(4) =   1
                l(5) =   2
                l(6) =   2
     Q(r) pseudized with  8 coefficients,  rinner =    1.100   1.100   1.100
                                                       1.100   1.100

     PseudoPot. # 3 for O  read from file:
     /lustre07/scratch/pragov/crystal_structure_design/utils/SSSP/O.pbe-n-kjpaw_psl.0.1.UPF
     MD5 check sum: 0234752ac141de4415c5fc33072bef88
     Pseudo is Projector augmented-wave + core cor, Zval =  6.0
     Generated using "atomic" code by A. Dal Corso  v.5.0.99 svn rev. 10869
     Shape of augmentation charge: BESSEL
     Using radial grid of 1095 points,  4 beta functions with: 
                l(1) =   0
                l(2) =   0
                l(3) =   1
                l(4) =   1
     Q(r) pseudized with 0 coefficients 


     PseudoPot. # 4 for F  read from file:
     /lustre07/scratch/pragov/crystal_structure_design/utils/SSSP/f_pbe_v1.4.uspp.F.UPF
     MD5 check sum: 4c38b6a325caf53ec0e86aed9459de46
     Pseudo is Ultrasoft, Zval =  7.0
     Generated by new atomic code, or converted to UPF format
     Using radial grid of  799 points,  4 beta functions with: 
                l(1) =   0
                l(2) =   0
                l(3) =   1
                l(4) =   1
     Q(r) pseudized with  8 coefficients,  rinner =    0.950   0.950   0.950


     atomic species   valence    mass     pseudopotential
        Li             3.00     6.94000     Li( 1.00)
        V             13.00    50.94150     V ( 1.00)
        O              6.00    15.99900     O ( 1.00)
        F              7.00    18.99840     F ( 1.00)

      2 Sym. Ops. (no inversion) found ( 1 have fractional translation)


                                    s                        frac. trans.

      isym =  1     identity                                     

 cryst.   s( 1) = (     1          0          0      )
                  (     0          1          0      )
                  (     0          0          1      )

 cart.    s( 1) = (  1.0000000  0.0000000  0.0000000 )
                  (  0.0000000  1.0000000  0.0000000 )
                  (  0.0000000  0.0000000  1.0000000 )


      isym =  2     180 deg rotation - cart. axis [1,0,0]        

 cryst.   s( 2) = (     1          0          0      )    f =( -0.5000000 )
                  (     0         -1          0      )       ( -0.0000000 )
                  (     0          0         -1      )       ( -0.0000000 )

 cart.    s( 2) = (  1.0000000  0.0000000  0.0000000 )    f =( -0.5000000 )
                  (  0.0000000 -1.0000000  0.0000000 )       ( -0.0000000 )
                  (  0.0000000  0.0000000 -1.0000000 )       ( -0.0000000 )


   Cartesian axes

     site n.     atom                  positions (alat units)
         1           Li  tau(   1) = (   0.5224580   0.3421199   0.0619031  )
         2           Li  tau(   2) = (   0.7512770   0.3404769   0.2446097  )
         3           Li  tau(   3) = (   0.4959290   0.2773619   0.3431441  )
         4           Li  tau(   4) = (   0.0422220   0.2550194   0.2264181  )
         5           Li  tau(   5) = (   0.5422220   0.5551803   0.3002643  )
         6           Li  tau(   6) = (   0.9959290   0.5328378   0.1835383  )
         7           Li  tau(   7) = (   0.2512770   0.4697228   0.2820727  )
         8           Li  tau(   8) = (   0.0224580   0.4680798   0.4647793  )
         9           V   tau(   9) = (   0.2179770   0.7119833   0.4661297  )
        10           V   tau(  10) = (   0.7179770   0.0982164   0.0605527  )
        11           O   tau(  11) = (   0.1457520   0.3979996   0.1041341  )
        12           O   tau(  12) = (   0.7007320   0.4627255   0.0806324  )
        13           O   tau(  13) = (   0.6128910   0.1788763   0.1916534  )
        14           O   tau(  14) = (   0.8949750   0.1495063   0.0956518  )
        15           O   tau(  15) = (   0.3949750   0.6606935   0.4310305  )
        16           O   tau(  16) = (   0.1128910   0.6313234   0.3350290  )
        17           O   tau(  17) = (   0.2007320   0.3474742   0.4460499  )
        18           O   tau(  18) = (   0.6457520   0.4122002   0.4225483  )
        19           F   tau(  19) = (   0.4275250   0.4175340   0.2202617  )
        20           F   tau(  20) = (   0.9275250   0.3926657   0.3064207  )

   Crystallographic axes

     site n.     atom                  positions (cryst. coord.)
         1           Li  tau(   1) = (  0.5224580  0.5702260  0.1175340  )
         2           Li  tau(   2) = (  0.7512770  0.3987790  0.4644350  )
         3           Li  tau(   3) = (  0.4959290  0.1922170  0.6515200  )
         4           Li  tau(   4) = (  0.0422220  0.2588590  0.4298950  )
         5           Li  tau(   5) = (  0.5422220  0.7411410  0.5701050  )
         6           Li  tau(   6) = (  0.9959290  0.8077830  0.3484800  )
         7           Li  tau(   7) = (  0.2512770  0.6012210  0.5355650  )
         8           Li  tau(   8) = (  0.0224580  0.4297740  0.8824660  )
         9           V   tau(   9) = (  0.2179770  0.8757380  0.8850300  )
        10           V   tau(  10) = (  0.7179770  0.1242620  0.1149700  )
        11           O   tau(  11) = (  0.1457520  0.6337520  0.1977170  )
        12           O   tau(  12) = (  0.7007320  0.7740960  0.1530950  )
        13           O   tau(  13) = (  0.6128910  0.1512960  0.3638880  )
        14           O   tau(  14) = (  0.8949750  0.1859470  0.1816120  )
        15           O   tau(  15) = (  0.3949750  0.8140530  0.8183880  )
        16           O   tau(  16) = (  0.1128910  0.8487040  0.6361120  )
        17           O   tau(  17) = (  0.2007320  0.2259040  0.8469050  )
        18           O   tau(  18) = (  0.6457520  0.3662480  0.8022830  )
        19           F   tau(  19) = (  0.4275250  0.5625130  0.4182060  )
        20           F   tau(  20) = (  0.9275250  0.4374870  0.5817940  )

     number of k points=    10
                       cart. coord. in units 2pi/alat
        k(    1) = (   0.0000000   0.0000000   0.0000000), wk =   0.0740741
        k(    2) = (   0.0000000   0.0000000   0.6328925), wk =   0.1481481
        k(    3) = (   0.0000000   0.6111830  -0.3072952), wk =   0.1481481
        k(    4) = (   0.0000000   0.6111830   0.3255973), wk =   0.1481481
        k(    5) = (   0.0000000   0.6111830  -0.9401877), wk =   0.1481481
        k(    6) = (   0.3333333   0.0000000   0.0000000), wk =   0.1481481
        k(    7) = (   0.3333333   0.0000000   0.6328925), wk =   0.2962963
        k(    8) = (   0.3333333   0.6111830  -0.3072952), wk =   0.2962963
        k(    9) = (   0.3333333   0.6111830   0.3255973), wk =   0.2962963
        k(   10) = (   0.3333333   0.6111830  -0.9401877), wk =   0.2962963

                       cryst. coord.
        k(    1) = (   0.0000000   0.0000000   0.0000000), wk =   0.0740741
        k(    2) = (   0.0000000   0.0000000   0.3333333), wk =   0.1481481
        k(    3) = (   0.0000000   0.3333333   0.0000000), wk =   0.1481481
        k(    4) = (   0.0000000   0.3333333   0.3333333), wk =   0.1481481
        k(    5) = (   0.0000000   0.3333333  -0.3333333), wk =   0.1481481
        k(    6) = (   0.3333333   0.0000000   0.0000000), wk =   0.1481481
        k(    7) = (   0.3333333   0.0000000   0.3333333), wk =   0.2962963
        k(    8) = (   0.3333333   0.3333333   0.0000000), wk =   0.2962963
        k(    9) = (   0.3333333   0.3333333   0.3333333), wk =   0.2962963
        k(   10) = (   0.3333333   0.3333333  -0.3333333), wk =   0.2962963

     Dense  grid:   101403 G-vectors     FFT dimensions: (  90,  48,  54)

     Smooth grid:    35871 G-vectors     FFT dimensions: (  64,  36,  40)

     Dynamical RAM for                 wfc:       1.09 MB

     Dynamical RAM for     wfc (w. buffer):       6.57 MB

     Dynamical RAM for           str. fact:       1.55 MB

     Dynamical RAM for           local pot:       0.00 MB

     Dynamical RAM for          nlocal pot:       3.22 MB

     Dynamical RAM for                qrad:       4.98 MB

     Dynamical RAM for          rho,v,vnew:       2.54 MB

     Dynamical RAM for               rhoin:       0.85 MB

     Dynamical RAM for            rho*nmix:       6.19 MB

     Dynamical RAM for           G-vectors:       1.52 MB

     Dynamical RAM for          h,s,v(r/c):       0.75 MB

     Dynamical RAM for          <psi|beta>:       0.18 MB

     Dynamical RAM for                 psi:       2.19 MB

     Dynamical RAM for                hpsi:       2.19 MB

     Dynamical RAM for                spsi:       2.19 MB

     Dynamical RAM for      wfcinit/wfcrot:       3.65 MB

     Dynamical RAM for           addusdens:      37.71 MB

     Estimated static dynamical RAM per process >      25.46 MB

     Estimated max dynamical RAM per process >      69.36 MB

     Estimated total dynamical RAM >     530.16 MB

     Check: negative core charge=   -0.000012

     Initial potential from superposition of free atoms

     starting charge     108.3916, renormalised to     112.0000

     negative rho (up, down):  1.542E-03 0.000E+00
     Starting wfcs are  100 randomized atomic wfcs
     Checking if some PAW data can be deallocated... 
       PAW data deallocated on    4 nodes for type:  3

     total cpu time spent up to now is        1.2 secs

     Self-consistent Calculation

     iteration #  1     ecut=    30.00 Ry     beta= 0.70
     Davidson diagonalization with overlap

---- Real-time Memory Report at c_bands before calling an iterative solver
           245 MiB given to the printing process from OS
             0 MiB allocation reported by mallinfo(arena+hblkhd)
        235498 MiB available memory on the node where the printing process lives
------------------
     ethr =  1.00E-02,  avg # of iterations =  2.0

     negative rho (up, down):  6.889E-03 0.000E+00

     total cpu time spent up to now is        1.8 secs

     total energy              =    -833.01804375 Ry
     estimated scf accuracy    <       8.39878647 Ry

     iteration #  2     ecut=    30.00 Ry     beta= 0.70
     Davidson diagonalization with overlap

---- Real-time Memory Report at c_bands before calling an iterative solver
           271 MiB given to the printing process from OS
             0 MiB allocation reported by mallinfo(arena+hblkhd)
        235340 MiB available memory on the node where the printing process lives
------------------
     ethr =  7.50E-03,  avg # of iterations =  5.0

     negative rho (up, down):  1.156E-03 0.000E+00

     total cpu time spent up to now is        2.8 secs

     total energy              =    -825.61347042 Ry
     estimated scf accuracy    <     107.04657074 Ry

     iteration #  3     ecut=    30.00 Ry     beta= 0.70
     Davidson diagonalization with overlap

---- Real-time Memory Report at c_bands before calling an iterative solver
           281 MiB given to the printing process from OS
             0 MiB allocation reported by mallinfo(arena+hblkhd)
        235276 MiB available memory on the node where the printing process lives
------------------
     ethr =  7.50E-03,  avg # of iterations =  5.0

     negative rho (up, down):  1.608E-03 0.000E+00

     total cpu time spent up to now is        3.7 secs

     total energy              =    -838.09493023 Ry
     estimated scf accuracy    <       1.74252413 Ry

     iteration #  4     ecut=    30.00 Ry     beta= 0.70
     Davidson diagonalization with overlap

---- Real-time Memory Report at c_bands before calling an iterative solver
           281 MiB given to the printing process from OS
             0 MiB allocation reported by mallinfo(arena+hblkhd)
        235265 MiB available memory on the node where the printing process lives
------------------
     ethr =  1.56E-03,  avg # of iterations =  2.0

     negative rho (up, down):  2.577E-03 0.000E+00

     total cpu time spent up to now is        4.3 secs

     total energy              =    -837.98237580 Ry
     estimated scf accuracy    <       0.87737434 Ry

     iteration #  5     ecut=    30.00 Ry     beta= 0.70
     Davidson diagonalization with overlap

---- Real-time Memory Report at c_bands before calling an iterative solver
           281 MiB given to the printing process from OS
             0 MiB allocation reported by mallinfo(arena+hblkhd)
        235259 MiB available memory on the node where the printing process lives
------------------
     ethr =  7.83E-04,  avg # of iterations =  2.0

     negative rho (up, down):  3.270E-03 0.000E+00

     total cpu time spent up to now is        4.9 secs

     total energy              =    -838.03591872 Ry
     estimated scf accuracy    <       0.08445991 Ry

     iteration #  6     ecut=    30.00 Ry     beta= 0.70
     Davidson diagonalization with overlap

---- Real-time Memory Report at c_bands before calling an iterative solver
           281 MiB given to the printing process from OS
             0 MiB allocation reported by mallinfo(arena+hblkhd)
        235256 MiB available memory on the node where the printing process lives
------------------
     ethr =  7.54E-05,  avg # of iterations =  7.7

     negative rho (up, down):  4.044E-03 0.000E+00

     total cpu time spent up to now is        5.8 secs

     total energy              =    -838.05120941 Ry
     estimated scf accuracy    <       0.00940330 Ry

     iteration #  7     ecut=    30.00 Ry     beta= 0.70
     Davidson diagonalization with overlap

---- Real-time Memory Report at c_bands before calling an iterative solver
           281 MiB given to the printing process from OS
             0 MiB allocation reported by mallinfo(arena+hblkhd)
        235227 MiB available memory on the node where the printing process lives
------------------
     ethr =  8.40E-06,  avg # of iterations = 10.8

     negative rho (up, down):  3.996E-03 0.000E+00

     total cpu time spent up to now is        7.0 secs

     total energy              =    -838.05343097 Ry
     estimated scf accuracy    <       0.00238242 Ry

     iteration #  8     ecut=    30.00 Ry     beta= 0.70
     Davidson diagonalization with overlap

---- Real-time Memory Report at c_bands before calling an iterative solver
           282 MiB given to the printing process from OS
             0 MiB allocation reported by mallinfo(arena+hblkhd)
        235155 MiB available memory on the node where the printing process lives
------------------
     c_bands:  2 eigenvalues not converged
     ethr =  2.13E-06,  avg # of iterations =  5.1

     negative rho (up, down):  3.989E-03 0.000E+00

     total cpu time spent up to now is        7.8 secs

     total energy              =    -838.05350177 Ry
     estimated scf accuracy    <       0.00083335 Ry

     iteration #  9     ecut=    30.00 Ry     beta= 0.70
     Davidson diagonalization with overlap

---- Real-time Memory Report at c_bands before calling an iterative solver
           282 MiB given to the printing process from OS
             0 MiB allocation reported by mallinfo(arena+hblkhd)
        235126 MiB available memory on the node where the printing process lives
------------------
     ethr =  7.44E-07,  avg # of iterations =  2.1

     negative rho (up, down):  3.992E-03 0.000E+00

     total cpu time spent up to now is        8.4 secs

     total energy              =    -838.05356660 Ry
     estimated scf accuracy    <       0.00013669 Ry

     iteration # 10     ecut=    30.00 Ry     beta= 0.70
     Davidson diagonalization with overlap

---- Real-time Memory Report at c_bands before calling an iterative solver
           283 MiB given to the printing process from OS
             0 MiB allocation reported by mallinfo(arena+hblkhd)
        235160 MiB available memory on the node where the printing process lives
------------------
     ethr =  1.22E-07,  avg # of iterations =  3.3

     negative rho (up, down):  3.997E-03 0.000E+00

     total cpu time spent up to now is        9.2 secs

     total energy              =    -838.05359823 Ry
     estimated scf accuracy    <       0.00002506 Ry

     iteration # 11     ecut=    30.00 Ry     beta= 0.70
     Davidson diagonalization with overlap

---- Real-time Memory Report at c_bands before calling an iterative solver
           283 MiB given to the printing process from OS
             0 MiB allocation reported by mallinfo(arena+hblkhd)
        235101 MiB available memory on the node where the printing process lives
------------------
     ethr =  2.24E-08,  avg # of iterations =  3.7

     negative rho (up, down):  3.995E-03 0.000E+00

     total cpu time spent up to now is       10.0 secs

     total energy              =    -838.05360014 Ry
     estimated scf accuracy    <       0.00001758 Ry

     iteration # 12     ecut=    30.00 Ry     beta= 0.70
     Davidson diagonalization with overlap

---- Real-time Memory Report at c_bands before calling an iterative solver
           283 MiB given to the printing process from OS
             0 MiB allocation reported by mallinfo(arena+hblkhd)
        235044 MiB available memory on the node where the printing process lives
------------------
     ethr =  1.57E-08,  avg # of iterations =  1.1

     negative rho (up, down):  3.997E-03 0.000E+00

     total cpu time spent up to now is       10.5 secs

     End of self-consistent calculation

          k = 0.0000 0.0000 0.0000 (  4485 PWs)   bands (ev):

   -61.8650 -61.8649 -40.9086 -40.9073 -40.8630 -40.8629 -40.8421 -40.8418
   -40.7215 -40.7197 -35.8062 -35.8062 -35.7615 -35.7614 -35.7504 -35.7499
   -19.2724 -19.2724 -14.5892 -14.5489 -14.1427 -14.1245 -13.9890 -13.9605
   -13.9204 -13.9165  -1.5868  -1.3715  -1.3611  -1.3146  -1.2673  -1.1336
    -1.1308  -0.9986  -0.9224  -0.8770  -0.7937  -0.7371  -0.5925  -0.4981
    -0.4905  -0.4308  -0.2262  -0.1939  -0.0289   0.1197   0.2561   0.2931
     0.3837   0.8017   1.1135   1.1221   1.2276   1.2549   1.2723   1.5064
     5.2755   5.3690   5.4363   5.4821   6.5215   6.5855   6.6782   6.6840

     occupation numbers 
     1.0000   1.0000   1.0000   1.0000   1.0000   1.0000   1.0000   1.0000
     1.0000   1.0000   1.0000   1.0000   1.0000   1.0000   1.0000   1.0000
     1.0000   1.0000   1.0000   1.0000   1.0000   1.0000   1.0000   1.0000
     1.0000   1.0000   1.0000   1.0000   1.0000   1.0000   1.0000   1.0000
     1.0000   1.0000   1.0000   1.0000   1.0000   1.0000   1.0000   1.0000
     1.0000   1.0000   1.0000   1.0000   1.0000   1.0000   1.0000   1.0000
     1.0000   1.0000   1.0000   1.0000   1.0000   1.0000   1.0000   1.0000
     0.0000   0.0000   0.0000   0.0000   0.0000   0.0000   0.0000   0.0000

          k = 0.0000 0.0000 0.6329 (  4505 PWs)   bands (ev):

   -61.8651 -61.8650 -40.9070 -40.9061 -40.8642 -40.8640 -40.8435 -40.8430
   -40.7217 -40.7200 -35.8068 -35.8063 -35.7621 -35.7619 -35.7514 -35.7503
   -19.2726 -19.2721 -14.5472 -14.5148 -14.1977 -14.1240 -13.9920 -13.9566
   -13.9413 -13.9246  -1.6203  -1.5267  -1.4433  -1.3009  -1.2242  -1.2018
    -1.1039  -0.9961  -0.8878  -0.8174  -0.7719  -0.6789  -0.6545  -0.6305
    -0.4565  -0.3697  -0.2720  -0.2178   0.0069   0.1815   0.2571   0.4261
     0.6095   0.6944   1.0264   1.1184   1.1635   1.1968   1.3215   1.4158
     5.3832   5.4093   5.4717   5.5240   6.4327   6.5534   6.6222   6.6245

     occupation numbers 
     1.0000   1.0000   1.0000   1.0000   1.0000   1.0000   1.0000   1.0000
     1.0000   1.0000   1.0000   1.0000   1.0000   1.0000   1.0000   1.0000
     1.0000   1.0000   1.0000   1.0000   1.0000   1.0000   1.0000   1.0000
     1.0000   1.0000   1.0000   1.0000   1.0000   1.0000   1.0000   1.0000
     1.0000   1.0000   1.0000   1.0000   1.0000   1.0000   1.0000   1.0000
     1.0000   1.0000   1.0000   1.0000   1.0000   1.0000   1.0000   1.0000
     1.0000   1.0000   1.0000   1.0000   1.0000   1.0000   1.0000   1.0000
     0.0000   0.0000   0.0000   0.0000   0.0000   0.0000   0.0000   0.0000

          k = 0.0000 0.6112-0.3073 (  4474 PWs)   bands (ev):

   -61.8650 -61.8649 -40.9001 -40.8994 -40.8709 -40.8704 -40.8427 -40.8421
   -40.7212 -40.7198 -35.8064 -35.8058 -35.7618 -35.7614 -35.7507 -35.7496
   -19.2723 -19.2720 -14.5316 -14.4881 -14.1719 -14.1116 -14.0015 -13.9666
   -13.9587 -13.9366  -1.7440  -1.6509  -1.4537  -1.4312  -1.3875  -1.2771
    -1.1611  -1.0938  -0.9778  -0.8794  -0.7889  -0.7748  -0.7429  -0.5820
    -0.5653  -0.4689  -0.4018  -0.1967   0.1821   0.3066   0.4375   0.6140
     0.6647   0.8043   1.1879   1.2544   1.3168   1.3684   1.4535   1.5434
     5.2324   5.3292   5.4024   5.4245   6.5551   6.6027   6.7716   6.8367

     occupation numbers 
     1.0000   1.0000   1.0000   1.0000   1.0000   1.0000   1.0000   1.0000
     1.0000   1.0000   1.0000   1.0000   1.0000   1.0000   1.0000   1.0000
     1.0000   1.0000   1.0000   1.0000   1.0000   1.0000   1.0000   1.0000
     1.0000   1.0000   1.0000   1.0000   1.0000   1.0000   1.0000   1.0000
     1.0000   1.0000   1.0000   1.0000   1.0000   1.0000   1.0000   1.0000
     1.0000   1.0000   1.0000   1.0000   1.0000   1.0000   1.0000   1.0000
     1.0000   1.0000   1.0000   1.0000   1.0000   1.0000   1.0000   1.0000
     0.0000   0.0000   0.0000   0.0000   0.0000   0.0000   0.0000   0.0000

          k = 0.0000 0.6112 0.3256 (  4480 PWs)   bands (ev):

   -61.8650 -61.8649 -40.8997 -40.8988 -40.8720 -40.8710 -40.8423 -40.8421
   -40.7211 -40.7200 -35.8065 -35.8062 -35.7618 -35.7611 -35.7508 -35.7498
   -19.2720 -19.2719 -14.5045 -14.4660 -14.1904 -14.1741 -13.9961 -13.9828
   -13.9337 -13.9260  -1.7102  -1.6600  -1.4625  -1.3847  -1.2902  -1.2550
    -1.1730  -1.1037  -1.0500  -0.9095  -0.7502  -0.7333  -0.6946  -0.6194
    -0.5604  -0.4138  -0.3718  -0.1994   0.1859   0.2394   0.3706   0.4614
     0.6364   0.8115   1.1809   1.2429   1.3184   1.4137   1.4538   1.4890
     5.2520   5.3468   5.4183   5.4881   6.4783   6.6143   6.7331   6.8135

     occupation numbers 
     1.0000   1.0000   1.0000   1.0000   1.0000   1.0000   1.0000   1.0000
     1.0000   1.0000   1.0000   1.0000   1.0000   1.0000   1.0000   1.0000
     1.0000   1.0000   1.0000   1.0000   1.0000   1.0000   1.0000   1.0000
     1.0000   1.0000   1.0000   1.0000   1.0000   1.0000   1.0000   1.0000
     1.0000   1.0000   1.0000   1.0000   1.0000   1.0000   1.0000   1.0000
     1.0000   1.0000   1.0000   1.0000   1.0000   1.0000   1.0000   1.0000
     1.0000   1.0000   1.0000   1.0000   1.0000   1.0000   1.0000   1.0000
     0.0000   0.0000   0.0000   0.0000   0.0000   0.0000   0.0000   0.0000

          k = 0.0000 0.6112-0.9402 (  4489 PWs)   bands (ev):

   -61.8651 -61.8650 -40.8986 -40.8980 -40.8724 -40.8719 -40.8430 -40.8429
   -40.7213 -40.7200 -35.8064 -35.8061 -35.7622 -35.7617 -35.7515 -35.7501
   -19.2722 -19.2718 -14.4896 -14.4580 -14.2113 -14.1502 -13.9902 -13.9894
   -13.9566 -13.9285  -1.7464  -1.6616  -1.5005  -1.4436  -1.4111  -1.3598
    -1.1066  -1.0333  -0.9977  -0.8650  -0.8128  -0.7292  -0.7128  -0.6401
    -0.5485  -0.3228  -0.2577  -0.2389   0.1381   0.3004   0.4502   0.5341
     0.5524   0.7410   1.1745   1.2042   1.3056   1.4185   1.4738   1.5177
     5.2741   5.3564   5.4338   5.4535   6.5359   6.6127   6.6903   6.7887

     occupation numbers 
     1.0000   1.0000   1.0000   1.0000   1.0000   1.0000   1.0000   1.0000
     1.0000   1.0000   1.0000   1.0000   1.0000   1.0000   1.0000   1.0000
     1.0000   1.0000   1.0000   1.0000   1.0000   1.0000   1.0000   1.0000
     1.0000   1.0000   1.0000   1.0000   1.0000   1.0000   1.0000   1.0000
     1.0000   1.0000   1.0000   1.0000   1.0000   1.0000   1.0000   1.0000
     1.0000   1.0000   1.0000   1.0000   1.0000   1.0000   1.0000   1.0000
     1.0000   1.0000   1.0000   1.0000   1.0000   1.0000   1.0000   1.0000
     0.0000   0.0000   0.0000   0.0000   0.0000   0.0000   0.0000   0.0000

          k = 0.3333 0.0000 0.0000 (  4489 PWs)   bands (ev):

   -61.8650 -61.8649 -40.9083 -40.9078 -40.8631 -40.8628 -40.8420 -40.8419
   -40.7210 -40.7200 -35.8060 -35.8058 -35.7619 -35.7616 -35.7505 -35.7501
   -19.2724 -19.2724 -14.5798 -14.5597 -14.1373 -14.1283 -13.9819 -13.9676
   -13.9194 -13.9176  -1.5514  -1.4628  -1.3546  -1.3310  -1.1759  -1.1113
    -1.0828  -1.0165  -0.9116  -0.9093  -0.8488  -0.8268  -0.5832  -0.5766
    -0.4275  -0.3583  -0.2229  -0.2034   0.0325   0.1032   0.2527   0.2685
     0.4773   0.6778   1.1136   1.1155   1.2248   1.2597   1.3449   1.4585
     5.3145   5.3930   5.3979   5.4588   6.5383   6.5658   6.6751   6.6767

     occupation numbers 
     1.0000   1.0000   1.0000   1.0000   1.0000   1.0000   1.0000   1.0000
     1.0000   1.0000   1.0000   1.0000   1.0000   1.0000   1.0000   1.0000
     1.0000   1.0000   1.0000   1.0000   1.0000   1.0000   1.0000   1.0000
     1.0000   1.0000   1.0000   1.0000   1.0000   1.0000   1.0000   1.0000
     1.0000   1.0000   1.0000   1.0000   1.0000   1.0000   1.0000   1.0000
     1.0000   1.0000   1.0000   1.0000   1.0000   1.0000   1.0000   1.0000
     1.0000   1.0000   1.0000   1.0000   1.0000   1.0000   1.0000   1.0000
     0.0000   0.0000   0.0000   0.0000   0.0000   0.0000   0.0000   0.0000

          k = 0.3333 0.0000 0.6329 (  4491 PWs)   bands (ev):

   -61.8650 -61.8650 -40.9065 -40.9062 -40.8640 -40.8638 -40.8431 -40.8430
   -40.7211 -40.7203 -35.8068 -35.8063 -35.7619 -35.7617 -35.7505 -35.7500
   -19.2723 -19.2722 -14.5396 -14.5235 -14.1812 -14.1453 -13.9782 -13.9615
   -13.9384 -13.9300  -1.6111  -1.5786  -1.3637  -1.3038  -1.2281  -1.1847
    -1.1212  -1.0349  -0.8658  -0.7904  -0.7582  -0.7004  -0.6748  -0.5715
    -0.4844  -0.4041  -0.2684  -0.2430   0.0754   0.1339   0.2890   0.3684
     0.6726   0.7109   1.0773   1.1171   1.1608   1.2236   1.2949   1.3744
     5.4030   5.4377   5.4577   5.5026   6.4578   6.5254   6.5974   6.6195

     occupation numbers 
     1.0000   1.0000   1.0000   1.0000   1.0000   1.0000   1.0000   1.0000
     1.0000   1.0000   1.0000   1.0000   1.0000   1.0000   1.0000   1.0000
     1.0000   1.0000   1.0000   1.0000   1.0000   1.0000   1.0000   1.0000
     1.0000   1.0000   1.0000   1.0000   1.0000   1.0000   1.0000   1.0000
     1.0000   1.0000   1.0000   1.0000   1.0000   1.0000   1.0000   1.0000
     1.0000   1.0000   1.0000   1.0000   1.0000   1.0000   1.0000   1.0000
     1.0000   1.0000   1.0000   1.0000   1.0000   1.0000   1.0000   1.0000
     0.0000   0.0000   0.0000   0.0000   0.0000   0.0000   0.0000   0.0000

          k = 0.3333 0.6112-0.3073 (  4478 PWs)   bands (ev):

   -61.8650 -61.8650 -40.9000 -40.8996 -40.8709 -40.8704 -40.8425 -40.8424
   -40.7210 -40.7201 -35.8064 -35.8059 -35.7618 -35.7615 -35.7504 -35.7502
   -19.2722 -19.2721 -14.5217 -14.5001 -14.1572 -14.1275 -13.9926 -13.9769
   -13.9504 -13.9407  -1.7150  -1.6687  -1.4486  -1.4127  -1.3799  -1.2876
    -1.2120  -1.0859  -0.9736  -0.8975  -0.8357  -0.7553  -0.7054  -0.6405
    -0.5656  -0.4957  -0.3266  -0.2235   0.2768   0.3604   0.4859   0.5758
     0.6128   0.7279   1.1938   1.2247   1.3551   1.3901   1.4481   1.5074
     5.2746   5.3474   5.3682   5.3976   6.5624   6.5941   6.7793   6.8119

     occupation numbers 
     1.0000   1.0000   1.0000   1.0000   1.0000   1.0000   1.0000   1.0000
     1.0000   1.0000   1.0000   1.0000   1.0000   1.0000   1.0000   1.0000
     1.0000   1.0000   1.0000   1.0000   1.0000   1.0000   1.0000   1.0000
     1.0000   1.0000   1.0000   1.0000   1.0000   1.0000   1.0000   1.0000
     1.0000   1.0000   1.0000   1.0000   1.0000   1.0000   1.0000   1.0000
     1.0000   1.0000   1.0000   1.0000   1.0000   1.0000   1.0000   1.0000
     1.0000   1.0000   1.0000   1.0000   1.0000   1.0000   1.0000   1.0000
     0.0000   0.0000   0.0000   0.0000   0.0000   0.0000   0.0000   0.0000

          k = 0.3333 0.6112 0.3256 (  4491 PWs)   bands (ev):

   -61.8650 -61.8650 -40.8995 -40.8992 -40.8718 -40.8714 -40.8424 -40.8423
   -40.7209 -40.7205 -35.8066 -35.8065 -35.7621 -35.7616 -35.7506 -35.7503
   -19.2721 -19.2719 -14.4955 -14.4765 -14.1854 -14.1773 -13.9933 -13.9866
   -13.9316 -13.9276  -1.7021  -1.6775  -1.4192  -1.3847  -1.3410  -1.3014
    -1.1392  -1.0647  -0.9937  -0.8855  -0.8221  -0.7713  -0.6917  -0.6702
    -0.5483  -0.4984  -0.2322  -0.1863   0.1745   0.2089   0.3855   0.4689
     0.6385   0.7727   1.1971   1.2322   1.3475   1.4003   1.4413   1.4717
     5.2758   5.3255   5.4325   5.4691   6.4921   6.5535   6.7732   6.8082

     occupation numbers 
     1.0000   1.0000   1.0000   1.0000   1.0000   1.0000   1.0000   1.0000
     1.0000   1.0000   1.0000   1.0000   1.0000   1.0000   1.0000   1.0000
     1.0000   1.0000   1.0000   1.0000   1.0000   1.0000   1.0000   1.0000
     1.0000   1.0000   1.0000   1.0000   1.0000   1.0000   1.0000   1.0000
     1.0000   1.0000   1.0000   1.0000   1.0000   1.0000   1.0000   1.0000
     1.0000   1.0000   1.0000   1.0000   1.0000   1.0000   1.0000   1.0000
     1.0000   1.0000   1.0000   1.0000   1.0000   1.0000   1.0000   1.0000
     0.0000   0.0000   0.0000   0.0000   0.0000   0.0000   0.0000   0.0000

          k = 0.3333 0.6112-0.9402 (  4475 PWs)   bands (ev):

   -61.8650 -61.8649 -40.8983 -40.8980 -40.8721 -40.8718 -40.8429 -40.8427
   -40.7209 -40.7202 -35.8063 -35.8057 -35.7620 -35.7614 -35.7507 -35.7498
   -19.2720 -19.2718 -14.4824 -14.4667 -14.1957 -14.1653 -13.9917 -13.9913
   -13.9465 -13.9333  -1.7261  -1.6845  -1.5233  -1.5045  -1.3250  -1.2811
    -1.0723  -1.0440  -0.9889  -0.9500  -0.8503  -0.7760  -0.6823  -0.6003
    -0.5275  -0.4070  -0.2478  -0.2141   0.2115   0.3310   0.4365   0.4967
     0.6062   0.7015   1.1960   1.2443   1.3173   1.4005   1.4632   1.4841
     5.3086   5.3596   5.4252   5.4344   6.5353   6.5667   6.7363   6.7793

     occupation numbers 
     1.0000   1.0000   1.0000   1.0000   1.0000   1.0000   1.0000   1.0000
     1.0000   1.0000   1.0000   1.0000   1.0000   1.0000   1.0000   1.0000
     1.0000   1.0000   1.0000   1.0000   1.0000   1.0000   1.0000   1.0000
     1.0000   1.0000   1.0000   1.0000   1.0000   1.0000   1.0000   1.0000
     1.0000   1.0000   1.0000   1.0000   1.0000   1.0000   1.0000   1.0000
     1.0000   1.0000   1.0000   1.0000   1.0000   1.0000   1.0000   1.0000
     1.0000   1.0000   1.0000   1.0000   1.0000   1.0000   1.0000   1.0000
     0.0000   0.0000   0.0000   0.0000   0.0000   0.0000   0.0000   0.0000

     highest occupied, lowest unoccupied level (ev):     1.5434    5.2324

!    total energy              =    -838.05360082 Ry
     estimated scf accuracy    <       0.00000094 Ry

     The total energy is the sum of the following terms:
     one-electron contribution =    -515.24255619 Ry
     hartree contribution      =     287.59791595 Ry
     xc contribution           =    -145.04168809 Ry
     ewald contribution        =    -389.17281138 Ry
     one-center paw contrib.   =     -76.19446113 Ry
      -> PAW hartree energy AE =       0.00000000 Ry
      -> PAW hartree energy PS =       0.00000000 Ry
      -> PAW xc energy AE      =       0.00000000 Ry
      -> PAW xc energy PS      =       0.00000000 Ry
      -> total E_H with PAW    =     287.59791595 Ry
      -> total E_XC with PAW   =    -145.04168809 Ry

     convergence has been achieved in  12 iterations

     Writing all to output data dir bands_nm/myprefix.save/
 
     init_run     :      3.58s CPU      0.97s WALL (       1 calls)
     electrons    :     36.11s CPU      9.44s WALL (       1 calls)

     Called by init_run:
     wfcinit      :      1.11s CPU      0.28s WALL (       1 calls)
     wfcinit:atom :      0.01s CPU      0.00s WALL (       5 calls)
     wfcinit:wfcr :      1.03s CPU      0.26s WALL (       5 calls)
     potinit      :      0.42s CPU      0.11s WALL (       1 calls)
     hinit0       :      1.84s CPU      0.52s WALL (       1 calls)

     Called by electrons:
     c_bands      :     28.27s CPU      7.25s WALL (      12 calls)
     sum_band     :      4.74s CPU      1.32s WALL (      12 calls)
     v_of_rho     :      0.56s CPU      0.15s WALL (      13 calls)
     v_h          :      0.04s CPU      0.01s WALL (      13 calls)
     v_xc         :      0.52s CPU      0.14s WALL (      13 calls)
     newd         :      1.18s CPU      0.34s WALL (      13 calls)
     PAW_pot      :      0.92s CPU      0.24s WALL (      13 calls)
     mix_rho      :      0.16s CPU      0.04s WALL (      12 calls)

     Called by c_bands:
     init_us_2    :      0.24s CPU      0.06s WALL (     125 calls)
     init_us_2:cp :      0.24s CPU      0.06s WALL (     125 calls)
     cegterg      :     25.63s CPU      6.57s WALL (      60 calls)

     Called by sum_band:
     sum_band:wei :      0.00s CPU      0.00s WALL (      12 calls)
     sum_band:loo :      3.45s CPU      0.89s WALL (      12 calls)
     sum_band:buf :      0.07s CPU      0.01s WALL (      60 calls)
     sum_band:ini :      0.11s CPU      0.03s WALL (      60 calls)
     sum_band:cal :      0.69s CPU      0.17s WALL (      60 calls)
     sum_band:bec :      0.01s CPU      0.01s WALL (      60 calls)
     addusdens    :      0.96s CPU      0.35s WALL (      12 calls)
     addusd:skk   :      0.00s CPU      0.00s WALL (      48 calls)
     addusd:dgemm :      0.23s CPU      0.16s WALL (      48 calls)
     addusd:qvan2 :      0.56s CPU      0.15s WALL (      48 calls)

     Called by *egterg:
     cdiaghg      :      4.75s CPU      1.22s WALL (     315 calls)
     cegterg:over :      1.55s CPU      0.36s WALL (     255 calls)
     cegterg:upda :      0.60s CPU      0.20s WALL (     255 calls)
     cegterg:last :      1.67s CPU      0.44s WALL (     125 calls)
     h_psi        :     15.17s CPU      3.93s WALL (     320 calls)
     s_psi        :      1.71s CPU      0.44s WALL (     320 calls)
     g_psi        :      0.03s CPU      0.01s WALL (     255 calls)

     Called by h_psi:
     h_psi:calbec :      1.85s CPU      0.46s WALL (     320 calls)
     vloc_psi     :     11.71s CPU      3.00s WALL (     320 calls)
     add_vuspsi   :      1.58s CPU      0.45s WALL (     320 calls)

     General routines
     calbec       :      2.53s CPU      0.64s WALL (     380 calls)
     fft          :      0.59s CPU      0.16s WALL (     167 calls)
     ffts         :      0.03s CPU      0.01s WALL (      25 calls)
     fftw         :     13.54s CPU      3.05s WALL (   24260 calls)
     interpolate  :      0.06s CPU      0.01s WALL (      13 calls)
 
     Parallel routines

     PAW routines
     PAW_pot      :      0.92s CPU      0.24s WALL (      13 calls)
     PAW_symme    :      0.01s CPU      0.00s WALL (      25 calls)
 
     PWSCF        :     41.64s CPU     11.50s WALL

 
   This run was terminated on:  12:51:47  16Jul2023            

=------------------------------------------------------------------------------=
   JOB DONE.
=------------------------------------------------------------------------------=
