
     Program PWSCF v.7.1 starts on 15Jul2023 at 14:13:19 

     This program is part of the open-source Quantum ESPRESSO suite
     for quantum simulation of materials; please cite
         "P. Giannozzi et al., J. Phys.:Condens. Matter 21 395502 (2009);
         "P. Giannozzi et al., J. Phys.:Condens. Matter 29 465901 (2017);
         "P. Giannozzi et al., J. Chem. Phys. 152 154105 (2020);
          URL http://www.quantum-espresso.org", 
     in publications or presentations arising from this work. More details at
     http://www.quantum-espresso.org/quote

     Parallel version (MPI & OpenMP), running on      32 processor cores
     Number of MPI processes:                 8
     Threads/MPI process:                     4

     MPI processes distributed on     1 nodes
     226970 MiB available memory on the printing compute node when the environment starts
 
     Reading input from espresso_6014.pwi
Warning: card &CELL ignored
Warning: card / ignored

     Current dimensions of program PWSCF are:
     Max number of different atomic species (ntypx) = 10
     Max number of k-points (npk) =  40000
     Max angular momentum in pseudopotentials (lmaxx) =  4
     file La.paw.z_11.atompaw.wentzcovitch.v1.2.upf: wavefunction(s)  6S 0P 5D 0D 4F 0F renormalized
     file O.pbe-n-kjpaw_psl.0.1.UPF: wavefunction(s)  2P renormalized
     Message from routine setup:
     the system is metallic, specify occupations
     Message from routine setup:
     using ibrav=0 with symmetry is DISCOURAGED, use correct ibrav instead
 
     K-points division:     npool     =       2
     R & G space division:  proc/nbgrp/npool/nimage =       4
     Subspace diagonalization in iterative solution of the eigenvalue problem:
     a serial algorithm will be used

 
     Parallelization info
     --------------------
     sticks:   dense  smooth     PW     G-vecs:    dense   smooth      PW
     Min         580     288     86                19234     6794    1097
     Max         581     289     87                19237     6797    1098
     Sum        2323    1155    347                76943    27185    4389
 
     Using Slab Decomposition
 


     bravais-lattice index     =            0
     lattice parameter (alat)  =      13.0762  a.u.
     unit-cell volume          =    1224.7494 (a.u.)^3
     number of atoms/cell      =           13
     number of atomic types    =            3
     number of electrons       =       109.00 (up:  55.00, down:  54.00)
     number of Kohn-Sham states=           64
     kinetic-energy cutoff     =      30.0000  Ry
     charge density cutoff     =     240.0000  Ry
     scf convergence threshold =      1.0E-06
     mixing beta               =       0.7000
     number of iterations used =            8  plain     mixing
     Exchange-correlation= SLA  PW   PBX  PBC
                           (   1   4   3   4   0   0   0)

     celldm(1)=  13.076169  celldm(2)=   0.000000  celldm(3)=   0.000000
     celldm(4)=   0.000000  celldm(5)=   0.000000  celldm(6)=   0.000000

     crystal axes: (cart. coord. in units of alat)
               a(1) = (   1.000000   0.000000   0.000000 )  
               a(2) = (  -0.705609   0.708602   0.000000 )  
               a(3) = (   0.000000   0.000000   0.773043 )  

     reciprocal axes: (cart. coord. in units 2 pi/alat)
               b(1) = (  1.000000  0.995776  0.000000 )  
               b(2) = (  0.000000  1.411230  0.000000 )  
               b(3) = (  0.000000  0.000000  1.293590 )  


     PseudoPot. # 1 for La read from file:
     /lustre07/scratch/pragov/crystal_structure_design/utils/SSSP/La.paw.z_11.atompaw.wentzcovitch.v1.2.upf
     MD5 check sum: 754494e15ae71f30e5b5f678af019e01
     Pseudo is Projector augmented-wave + core cor, Zval = 11.0
     Generated using ATOMPAW code
     Shape of augmentation charge: BESSEL
     Using radial grid of 1101 points,  8 beta functions with: 
                l(1) =   0
                l(2) =   0
                l(3) =   1
                l(4) =   1
                l(5) =   2
                l(6) =   2
                l(7) =   3
                l(8) =   3
     Q(r) pseudized with 0 coefficients 


     PseudoPot. # 2 for Co read from file:
     /lustre07/scratch/pragov/crystal_structure_design/utils/SSSP/Co_pbe_v1.2.uspp.F.UPF
     MD5 check sum: 5f91765df6ddd3222702df6e7b74a16d
     Pseudo is Ultrasoft + core correction, Zval = 17.0
     Generated by new atomic code, or converted to UPF format
     Using radial grid of  863 points,  6 beta functions with: 
                l(1) =   0
                l(2) =   0
                l(3) =   1
                l(4) =   1
                l(5) =   2
                l(6) =   2
     Q(r) pseudized with  8 coefficients,  rinner =    1.200   1.200   1.200
                                                       1.200   1.200

     PseudoPot. # 3 for O  read from file:
     /lustre07/scratch/pragov/crystal_structure_design/utils/SSSP/O.pbe-n-kjpaw_psl.0.1.UPF
     MD5 check sum: 0234752ac141de4415c5fc33072bef88
     Pseudo is Projector augmented-wave + core cor, Zval =  6.0
     Generated using "atomic" code by A. Dal Corso  v.5.0.99 svn rev. 10869
     Shape of augmentation charge: BESSEL
     Using radial grid of 1095 points,  4 beta functions with: 
                l(1) =   0
                l(2) =   0
                l(3) =   1
                l(4) =   1
     Q(r) pseudized with 0 coefficients 


     atomic species   valence    mass     pseudopotential
        La            11.00   138.90547     La( 1.00)
        Co            17.00    58.93319     Co( 1.00)
        O              6.00    15.99900     O ( 1.00)

     Starting magnetic structure 
     atomic species   magnetization
        La           0.000
        Co           0.000
        O            0.000

      4 Sym. Ops., with inversion, found


                                    s                        frac. trans.

      isym =  1     identity                                     

 cryst.   s( 1) = (     1          0          0      )
                  (     0          1          0      )
                  (     0          0          1      )

 cart.    s( 1) = (  1.0000000  0.0000000  0.0000000 )
                  (  0.0000000  1.0000000  0.0000000 )
                  (  0.0000000  0.0000000  1.0000000 )


      isym =  2     180 deg rotation - cart. axis [0,0,1]        

 cryst.   s( 2) = (    -1          0          0      )
                  (     0         -1          0      )
                  (     0          0          1      )

 cart.    s( 2) = ( -1.0000000 -0.0000000  0.0000000 )
                  (  0.0000000 -1.0000000  0.0000000 )
                  (  0.0000000  0.0000000  1.0000000 )


      isym =  3     inversion                                    

 cryst.   s( 3) = (    -1          0          0      )
                  (     0         -1          0      )
                  (     0          0         -1      )

 cart.    s( 3) = ( -1.0000000 -0.0000000  0.0000000 )
                  (  0.0000000 -1.0000000  0.0000000 )
                  (  0.0000000  0.0000000 -1.0000000 )


      isym =  4     inv. 180 deg rotation - cart. axis [0,0,1]   

 cryst.   s( 4) = (     1          0          0      )
                  (     0          1          0      )
                  (     0          0         -1      )

 cart.    s( 4) = (  1.0000000  0.0000000  0.0000000 )
                  (  0.0000000  1.0000000  0.0000000 )
                  (  0.0000000  0.0000000 -1.0000000 )


   Cartesian axes

     site n.     atom                  positions (alat units)
         1           La  tau(   1) = (   0.3752185   0.2595679   0.3865213  )
         2           La  tau(   2) = (   0.7704848   0.0953530   0.0000000  )
         3           La  tau(   3) = (  -0.4760934   0.6132488   0.0000000  )
         4           La  tau(   4) = (  -0.0808271   0.4490338   0.3865213  )
         5           Co  tau(   5) = (   0.0000000   0.0000000   0.3865213  )
         6           O   tau(   6) = (   0.0730373   0.1758013   0.5707791  )
         7           O   tau(   7) = (   0.2213540   0.5328005   0.5707791  )
         8           O   tau(   8) = (   0.7244095   0.1144952   0.3865213  )
         9           O   tau(   9) = (  -0.4300181   0.5941066   0.3865213  )
        10           O   tau(  10) = (   0.2213540   0.5328005   0.2022635  )
        11           O   tau(  11) = (  -0.1738783   0.4876923   0.0000000  )
        12           O   tau(  12) = (   0.4682697   0.2209094   0.0000000  )
        13           O   tau(  13) = (   0.0730373   0.1758013   0.2022635  )

   Crystallographic axes

     site n.     atom                  positions (cryst. coord.)
         1           La  tau(   1) = (  0.6336900  0.3663100  0.5000000  )
         2           La  tau(   2) = (  0.8654350  0.1345650  0.0000000  )
         3           La  tau(   3) = (  0.1345650  0.8654350  0.0000000  )
         4           La  tau(   4) = (  0.3663100  0.6336900  0.5000000  )
         5           Co  tau(   5) = (  0.0000000  0.0000000  0.5000000  )
         6           O   tau(   6) = (  0.2480960  0.2480960  0.7383540  )
         7           O   tau(   7) = (  0.7519040  0.7519040  0.7383540  )
         8           O   tau(   8) = (  0.8384210  0.1615790  0.5000000  )
         9           O   tau(   9) = (  0.1615790  0.8384210  0.5000000  )
        10           O   tau(  10) = (  0.7519040  0.7519040  0.2616460  )
        11           O   tau(  11) = (  0.3117540  0.6882460  0.0000000  )
        12           O   tau(  12) = (  0.6882460  0.3117540  0.0000000  )
        13           O   tau(  13) = (  0.2480960  0.2480960  0.2616460  )

     number of k points=    10
                       cart. coord. in units 2pi/alat
        k(    1) = (   0.0000000   0.0000000   0.0000000), wk =   0.0370370
        k(    2) = (   0.0000000   0.0000000   0.4311966), wk =   0.0740741
        k(    3) = (   0.0000000   0.4704100   0.0000000), wk =   0.0740741
        k(    4) = (   0.0000000   0.4704100   0.4311966), wk =   0.1481481
        k(    5) = (   0.3333333   0.3319254   0.0000000), wk =   0.0740741
        k(    6) = (   0.3333333   0.3319254   0.4311966), wk =   0.1481481
        k(    7) = (   0.3333333   0.8023353   0.0000000), wk =   0.0740741
        k(    8) = (   0.3333333   0.8023353   0.4311966), wk =   0.1481481
        k(    9) = (   0.3333333  -0.1384846   0.0000000), wk =   0.0740741
        k(   10) = (   0.3333333  -0.1384846   0.4311966), wk =   0.1481481

                       cryst. coord.
        k(    1) = (   0.0000000   0.0000000   0.0000000), wk =   0.0370370
        k(    2) = (   0.0000000   0.0000000   0.3333333), wk =   0.0740741
        k(    3) = (   0.0000000   0.3333333   0.0000000), wk =   0.0740741
        k(    4) = (   0.0000000   0.3333333   0.3333333), wk =   0.1481481
        k(    5) = (   0.3333333   0.0000000   0.0000000), wk =   0.0740741
        k(    6) = (   0.3333333   0.0000000   0.3333333), wk =   0.1481481
        k(    7) = (   0.3333333   0.3333333   0.0000000), wk =   0.0740741
        k(    8) = (   0.3333333   0.3333333   0.3333333), wk =   0.1481481
        k(    9) = (   0.3333333  -0.3333333   0.0000000), wk =   0.0740741
        k(   10) = (   0.3333333  -0.3333333   0.3333333), wk =   0.1481481

     Dense  grid:    76943 G-vectors     FFT dimensions: (  72,  72,  50)

     Smooth grid:    27185 G-vectors     FFT dimensions: (  45,  45,  36)

     Dynamical RAM for                 wfc:       0.83 MB

     Dynamical RAM for     wfc (w. buffer):       9.12 MB

     Dynamical RAM for           str. fact:       0.88 MB

     Dynamical RAM for           local pot:       0.00 MB

     Dynamical RAM for          nlocal pot:       2.72 MB

     Dynamical RAM for                qrad:       8.96 MB

     Dynamical RAM for          rho,v,vnew:       4.85 MB

     Dynamical RAM for               rhoin:       1.62 MB

     Dynamical RAM for            rho*nmix:       9.39 MB

     Dynamical RAM for           G-vectors:       1.15 MB

     Dynamical RAM for          h,s,v(r/c):       0.75 MB

     Dynamical RAM for          <psi|beta>:       0.21 MB

     Dynamical RAM for                 psi:       1.66 MB

     Dynamical RAM for                hpsi:       1.66 MB

     Dynamical RAM for                spsi:       1.66 MB

     Dynamical RAM for      wfcinit/wfcrot:       5.17 MB

     Dynamical RAM for           addusdens:      83.07 MB

     Estimated static dynamical RAM per process >      33.55 MB

     Estimated max dynamical RAM per process >     126.01 MB

     Estimated total dynamical RAM >     970.51 MB

     Check: negative core charge=   -0.000013
     Generating pointlists ...
     new r_m :   0.1350 (alat units)  1.7652 (a.u.) for type    1
     new r_m :   0.1093 (alat units)  1.4290 (a.u.) for type    2
     new r_m :   0.1093 (alat units)  1.4290 (a.u.) for type    3

     Initial potential from superposition of free atoms

     starting charge     107.9659, renormalised to     109.0000

     negative rho (up, down):  1.621E-04 1.621E-04
     Starting wfcs are  173 randomized atomic wfcs
     Checking if some PAW data can be deallocated... 
       PAW data deallocated on    6 nodes for type:  1
       PAW data deallocated on    2 nodes for type:  3

     total cpu time spent up to now is        3.0 secs

     Self-consistent Calculation

     iteration #  1     ecut=    30.00 Ry     beta= 0.70
     Davidson diagonalization with overlap

---- Real-time Memory Report at c_bands before calling an iterative solver
           317 MiB given to the printing process from OS
             0 MiB allocation reported by mallinfo(arena+hblkhd)
        226365 MiB available memory on the node where the printing process lives
------------------
     ethr =  1.00E-02,  avg # of iterations =  1.9

     negative rho (up, down):  5.305E-04 5.577E-04

     total cpu time spent up to now is        4.8 secs

     total energy              =   -2463.01505672 Ry
     estimated scf accuracy    <       4.37837832 Ry

     total magnetization       =     1.00 Bohr mag/cell
     absolute magnetization    =     1.14 Bohr mag/cell

     iteration #  2     ecut=    30.00 Ry     beta= 0.70
     Davidson diagonalization with overlap

---- Real-time Memory Report at c_bands before calling an iterative solver
           360 MiB given to the printing process from OS
             0 MiB allocation reported by mallinfo(arena+hblkhd)
        226234 MiB available memory on the node where the printing process lives
------------------
     ethr =  4.02E-03,  avg # of iterations =  6.3

     negative rho (up, down):  3.435E-05 9.033E-05

     total cpu time spent up to now is        7.1 secs

     total energy              =   -2462.52870925 Ry
     estimated scf accuracy    <      28.35793850 Ry

     total magnetization       =     1.00 Bohr mag/cell
     absolute magnetization    =     1.05 Bohr mag/cell

     iteration #  3     ecut=    30.00 Ry     beta= 0.70
     Davidson diagonalization with overlap

---- Real-time Memory Report at c_bands before calling an iterative solver
           362 MiB given to the printing process from OS
             0 MiB allocation reported by mallinfo(arena+hblkhd)
        226203 MiB available memory on the node where the printing process lives
------------------
     ethr =  4.02E-03,  avg # of iterations =  4.5

     negative rho (up, down):  2.674E-06 2.478E-05

     total cpu time spent up to now is        9.2 secs

     total energy              =   -2465.28195463 Ry
     estimated scf accuracy    <       1.24200758 Ry

     total magnetization       =     1.00 Bohr mag/cell
     absolute magnetization    =     1.17 Bohr mag/cell

     iteration #  4     ecut=    30.00 Ry     beta= 0.70
     Davidson diagonalization with overlap

---- Real-time Memory Report at c_bands before calling an iterative solver
           363 MiB given to the printing process from OS
             0 MiB allocation reported by mallinfo(arena+hblkhd)
        226197 MiB available memory on the node where the printing process lives
------------------
     ethr =  1.14E-03,  avg # of iterations =  4.6

     negative rho (up, down):  6.192E-05 9.955E-05

     total cpu time spent up to now is       11.3 secs

     total energy              =   -2465.62165264 Ry
     estimated scf accuracy    <       0.61792689 Ry

     total magnetization       =     1.00 Bohr mag/cell
     absolute magnetization    =     1.05 Bohr mag/cell

     iteration #  5     ecut=    30.00 Ry     beta= 0.70
     Davidson diagonalization with overlap

---- Real-time Memory Report at c_bands before calling an iterative solver
           367 MiB given to the printing process from OS
             0 MiB allocation reported by mallinfo(arena+hblkhd)
        226201 MiB available memory on the node where the printing process lives
------------------
     ethr =  5.67E-04,  avg # of iterations =  2.1

     negative rho (up, down):  2.028E-04 2.315E-04

     total cpu time spent up to now is       13.0 secs

     total energy              =   -2465.69053178 Ry
     estimated scf accuracy    <       0.06606499 Ry

     total magnetization       =     1.00 Bohr mag/cell
     absolute magnetization    =     1.09 Bohr mag/cell

     iteration #  6     ecut=    30.00 Ry     beta= 0.70
     Davidson diagonalization with overlap

---- Real-time Memory Report at c_bands before calling an iterative solver
           367 MiB given to the printing process from OS
             0 MiB allocation reported by mallinfo(arena+hblkhd)
        226202 MiB available memory on the node where the printing process lives
------------------
     c_bands:  1 eigenvalues not converged
     ethr =  6.06E-05,  avg # of iterations = 14.2

     negative rho (up, down):  2.837E-04 3.014E-04

     total cpu time spent up to now is       16.0 secs

     total energy              =   -2465.69891563 Ry
     estimated scf accuracy    <       0.05308152 Ry

     total magnetization       =     1.00 Bohr mag/cell
     absolute magnetization    =     1.10 Bohr mag/cell

     iteration #  7     ecut=    30.00 Ry     beta= 0.70
     Davidson diagonalization with overlap

---- Real-time Memory Report at c_bands before calling an iterative solver
           367 MiB given to the printing process from OS
             0 MiB allocation reported by mallinfo(arena+hblkhd)
        226198 MiB available memory on the node where the printing process lives
------------------
     ethr =  4.87E-05,  avg # of iterations =  3.6

     negative rho (up, down):  3.384E-04 3.537E-04

     total cpu time spent up to now is       17.9 secs

     total energy              =   -2465.70668443 Ry
     estimated scf accuracy    <       0.01249881 Ry

     total magnetization       =     1.00 Bohr mag/cell
     absolute magnetization    =     1.12 Bohr mag/cell

     iteration #  8     ecut=    30.00 Ry     beta= 0.70
     Davidson diagonalization with overlap

---- Real-time Memory Report at c_bands before calling an iterative solver
           367 MiB given to the printing process from OS
             0 MiB allocation reported by mallinfo(arena+hblkhd)
        226198 MiB available memory on the node where the printing process lives
------------------
     ethr =  1.15E-05,  avg # of iterations = 12.2

     negative rho (up, down):  3.705E-04 3.734E-04

     total cpu time spent up to now is       20.6 secs

     total energy              =   -2465.70925151 Ry
     estimated scf accuracy    <       0.00325953 Ry

     total magnetization       =     1.00 Bohr mag/cell
     absolute magnetization    =     1.14 Bohr mag/cell

     iteration #  9     ecut=    30.00 Ry     beta= 0.70
     Davidson diagonalization with overlap

---- Real-time Memory Report at c_bands before calling an iterative solver
           367 MiB given to the printing process from OS
             0 MiB allocation reported by mallinfo(arena+hblkhd)
        226199 MiB available memory on the node where the printing process lives
------------------
     c_bands:  2 eigenvalues not converged
     ethr =  2.99E-06,  avg # of iterations = 12.4

     negative rho (up, down):  3.715E-04 3.655E-04

     total cpu time spent up to now is       23.2 secs

     total energy              =   -2465.71002452 Ry
     estimated scf accuracy    <       0.00092621 Ry

     total magnetization       =     1.00 Bohr mag/cell
     absolute magnetization    =     1.16 Bohr mag/cell

     iteration # 10     ecut=    30.00 Ry     beta= 0.70
     Davidson diagonalization with overlap

---- Real-time Memory Report at c_bands before calling an iterative solver
           367 MiB given to the printing process from OS
             0 MiB allocation reported by mallinfo(arena+hblkhd)
        226201 MiB available memory on the node where the printing process lives
------------------
     ethr =  8.50E-07,  avg # of iterations =  6.2

     negative rho (up, down):  3.558E-04 3.487E-04

     total cpu time spent up to now is       25.5 secs

     total energy              =   -2465.71005834 Ry
     estimated scf accuracy    <       0.00069333 Ry

     total magnetization       =     1.00 Bohr mag/cell
     absolute magnetization    =     1.16 Bohr mag/cell

     iteration # 11     ecut=    30.00 Ry     beta= 0.70
     Davidson diagonalization with overlap

---- Real-time Memory Report at c_bands before calling an iterative solver
           367 MiB given to the printing process from OS
             0 MiB allocation reported by mallinfo(arena+hblkhd)
        226198 MiB available memory on the node where the printing process lives
------------------
     ethr =  6.36E-07,  avg # of iterations =  2.6

     negative rho (up, down):  3.438E-04 3.390E-04

     total cpu time spent up to now is       27.4 secs

     total energy              =   -2465.71005942 Ry
     estimated scf accuracy    <       0.00021085 Ry

     total magnetization       =     1.00 Bohr mag/cell
     absolute magnetization    =     1.17 Bohr mag/cell

     iteration # 12     ecut=    30.00 Ry     beta= 0.70
     Davidson diagonalization with overlap

---- Real-time Memory Report at c_bands before calling an iterative solver
           367 MiB given to the printing process from OS
             0 MiB allocation reported by mallinfo(arena+hblkhd)
        226198 MiB available memory on the node where the printing process lives
------------------
     ethr =  1.93E-07,  avg # of iterations =  5.2

     negative rho (up, down):  3.482E-04 3.434E-04

     total cpu time spent up to now is       29.5 secs

     total energy              =   -2465.71010785 Ry
     estimated scf accuracy    <       0.00015308 Ry

     total magnetization       =     1.00 Bohr mag/cell
     absolute magnetization    =     1.17 Bohr mag/cell

     iteration # 13     ecut=    30.00 Ry     beta= 0.70
     Davidson diagonalization with overlap

---- Real-time Memory Report at c_bands before calling an iterative solver
           370 MiB given to the printing process from OS
             0 MiB allocation reported by mallinfo(arena+hblkhd)
        226199 MiB available memory on the node where the printing process lives
------------------
     ethr =  1.40E-07,  avg # of iterations =  3.1

     negative rho (up, down):  3.502E-04 3.455E-04

     total cpu time spent up to now is       31.3 secs

     total energy              =   -2465.71010586 Ry
     estimated scf accuracy    <       0.00003668 Ry

     total magnetization       =     1.00 Bohr mag/cell
     absolute magnetization    =     1.17 Bohr mag/cell

     iteration # 14     ecut=    30.00 Ry     beta= 0.70
     Davidson diagonalization with overlap

---- Real-time Memory Report at c_bands before calling an iterative solver
           370 MiB given to the printing process from OS
             0 MiB allocation reported by mallinfo(arena+hblkhd)
        226200 MiB available memory on the node where the printing process lives
------------------
     ethr =  3.36E-08,  avg # of iterations =  5.5

     negative rho (up, down):  3.467E-04 3.431E-04

     total cpu time spent up to now is       33.5 secs

     total energy              =   -2465.71011591 Ry
     estimated scf accuracy    <       0.00003262 Ry

     total magnetization       =     1.00 Bohr mag/cell
     absolute magnetization    =     1.17 Bohr mag/cell

     iteration # 15     ecut=    30.00 Ry     beta= 0.70
     Davidson diagonalization with overlap

---- Real-time Memory Report at c_bands before calling an iterative solver
           370 MiB given to the printing process from OS
             0 MiB allocation reported by mallinfo(arena+hblkhd)
        226201 MiB available memory on the node where the printing process lives
------------------
     ethr =  2.99E-08,  avg # of iterations =  5.2

     negative rho (up, down):  3.461E-04 3.431E-04

     total cpu time spent up to now is       35.5 secs

     total energy              =   -2465.71012566 Ry
     estimated scf accuracy    <       0.00000459 Ry

     total magnetization       =     1.00 Bohr mag/cell
     absolute magnetization    =     1.17 Bohr mag/cell

     iteration # 16     ecut=    30.00 Ry     beta= 0.70
     Davidson diagonalization with overlap

---- Real-time Memory Report at c_bands before calling an iterative solver
           370 MiB given to the printing process from OS
             0 MiB allocation reported by mallinfo(arena+hblkhd)
        226198 MiB available memory on the node where the printing process lives
------------------
     ethr =  4.21E-09,  avg # of iterations =  2.8

     negative rho (up, down):  3.465E-04 3.435E-04

     total cpu time spent up to now is       37.4 secs

     total energy              =   -2465.71012460 Ry
     estimated scf accuracy    <       0.00000338 Ry

     total magnetization       =     1.00 Bohr mag/cell
     absolute magnetization    =     1.17 Bohr mag/cell

     iteration # 17     ecut=    30.00 Ry     beta= 0.70
     Davidson diagonalization with overlap

---- Real-time Memory Report at c_bands before calling an iterative solver
           370 MiB given to the printing process from OS
             0 MiB allocation reported by mallinfo(arena+hblkhd)
        226198 MiB available memory on the node where the printing process lives
------------------
     ethr =  3.10E-09,  avg # of iterations =  5.2

     negative rho (up, down):  3.459E-04 3.432E-04
 
     Magnetic moment per site  (integrated on atomic sphere of radius R)
     atom   1 (R=0.135)  charge=  5.7408  magn=  0.0040
     atom   2 (R=0.135)  charge=  5.7593  magn=  0.0042
     atom   3 (R=0.135)  charge=  5.7593  magn=  0.0042
     atom   4 (R=0.135)  charge=  5.7408  magn=  0.0040
     atom   5 (R=0.109)  charge= 13.8616  magn=  0.7245
     atom   6 (R=0.109)  charge=  5.0627  magn=  0.0400
     atom   7 (R=0.109)  charge=  5.0627  magn=  0.0400
     atom   8 (R=0.109)  charge=  4.9969  magn= -0.0158
     atom   9 (R=0.109)  charge=  4.9969  magn= -0.0158
     atom  10 (R=0.109)  charge=  5.0627  magn=  0.0400
     atom  11 (R=0.109)  charge=  5.0021  magn=  0.0167
     atom  12 (R=0.109)  charge=  5.0021  magn=  0.0167
     atom  13 (R=0.109)  charge=  5.0627  magn=  0.0400

     total cpu time spent up to now is       39.4 secs

     End of self-consistent calculation

 ------ SPIN UP ------------


          k = 0.0000 0.0000 0.0000 (  3421 PWs)   bands (ev):

   -85.0912 -48.6250 -48.5599 -47.6771 -19.7745 -19.6004 -19.1419 -18.9964
    -7.5472  -6.6346  -6.6033  -6.2170  -6.0185  -5.6100  -5.5287  -5.1713
    -3.8836  -3.5024  -3.3573  -3.0135  -3.0071  -2.9327  -2.8823  -2.7749
    -2.6972  -2.3979  -1.8690  -1.5901   5.9369   6.4769   7.1609   7.1732
     7.4551   7.4891   7.5615   7.5720   7.6607   8.3273   8.7602   8.9039
     9.0797   9.2977   9.4211   9.4590   9.5552   9.5598  10.0738  10.2347
    10.2756  10.2898  10.5249  10.7161  10.8306  10.8644  10.9610  12.2809
    13.9482  14.1977  14.6787  14.8475  14.8941  15.0274  15.2347  15.2529

     occupation numbers 
     1.0000   1.0000   1.0000   1.0000   1.0000   1.0000   1.0000   1.0000
     1.0000   1.0000   1.0000   1.0000   1.0000   1.0000   1.0000   1.0000
     1.0000   1.0000   1.0000   1.0000   1.0000   1.0000   1.0000   1.0000
     1.0000   1.0000   1.0000   1.0000   1.0000   1.0000   1.0000   1.0000
     1.0000   1.0000   1.0000   1.0000   1.0000   1.0000   1.0000   1.0000
     1.0000   1.0000   1.0000   1.0000   1.0000   1.0000   1.0000   1.0000
     1.0000   1.0000   1.0000   1.0000   1.0000   1.0000   1.0000   0.0000
     0.0000   0.0000   0.0000   0.0000   0.0000   0.0000   0.0000   0.0000

          k = 0.0000 0.0000 0.4312 (  3388 PWs)   bands (ev):

   -85.0908 -48.6226 -48.5572 -47.6741 -19.7599 -19.5963 -19.1544 -18.9973
    -7.4215  -6.7699  -6.4528  -6.3570  -6.2357  -5.8852  -5.7799  -5.3792
    -3.7762  -3.2025  -3.1230  -2.9357  -2.9151  -2.8906  -2.6796  -2.5714
    -2.4026  -2.3046  -1.8148  -1.7274   5.9577   6.6376   6.9010   7.0422
     7.0648   7.2921   7.4720   7.4990   8.1422   8.6131   8.6202   8.9300
     9.0428   9.1200   9.2334   9.2811   9.3893   9.5492   9.7092   9.9481
    10.0712  10.4267  10.4396  10.4456  10.6745  10.7861  11.1060  12.2241
    13.9186  14.3244  14.8939  14.8967  15.0086  15.1021  15.2019  15.3248

     occupation numbers 
     1.0000   1.0000   1.0000   1.0000   1.0000   1.0000   1.0000   1.0000
     1.0000   1.0000   1.0000   1.0000   1.0000   1.0000   1.0000   1.0000
     1.0000   1.0000   1.0000   1.0000   1.0000   1.0000   1.0000   1.0000
     1.0000   1.0000   1.0000   1.0000   1.0000   1.0000   1.0000   1.0000
     1.0000   1.0000   1.0000   1.0000   1.0000   1.0000   1.0000   1.0000
     1.0000   1.0000   1.0000   1.0000   1.0000   1.0000   1.0000   1.0000
     1.0000   1.0000   1.0000   1.0000   1.0000   1.0000   1.0000   0.0000
     0.0000   0.0000   0.0000   0.0000   0.0000   0.0000   0.0000   0.0000

          k = 0.0000 0.4704 0.0000 (  3401 PWs)   bands (ev):

   -85.0910 -48.6222 -48.5581 -47.6765 -19.7430 -19.6118 -19.1355 -19.0181
    -7.4538  -6.9986  -6.3976  -6.2907  -6.1823  -5.8999  -5.4924  -5.3961
    -3.4697  -3.4281  -3.2327  -3.0819  -2.9892  -2.8813  -2.8102  -2.6129
    -2.5412  -2.2075  -1.7228  -1.5623   6.3063   6.6057   6.7432   6.9235
     7.0493   7.3435   7.4876   7.6448   8.2246   8.4995   8.6688   8.7812
     8.8496   9.1350   9.1459   9.3543   9.5856   9.6235   9.8081   9.9049
     9.9180  10.2452  10.5166  10.5498  10.5828  10.6936  10.9996  12.3638
    13.7801  14.3693  14.8475  15.0478  15.0529  15.0913  15.2168  15.2853

     occupation numbers 
     1.0000   1.0000   1.0000   1.0000   1.0000   1.0000   1.0000   1.0000
     1.0000   1.0000   1.0000   1.0000   1.0000   1.0000   1.0000   1.0000
     1.0000   1.0000   1.0000   1.0000   1.0000   1.0000   1.0000   1.0000
     1.0000   1.0000   1.0000   1.0000   1.0000   1.0000   1.0000   1.0000
     1.0000   1.0000   1.0000   1.0000   1.0000   1.0000   1.0000   1.0000
     1.0000   1.0000   1.0000   1.0000   1.0000   1.0000   1.0000   1.0000
     1.0000   1.0000   1.0000   1.0000   1.0000   1.0000   1.0000   0.0000
     0.0000   0.0000   0.0000   0.0000   0.0000   0.0000   0.0000   0.0000

          k = 0.0000 0.4704 0.4312 (  3395 PWs)   bands (ev):

   -85.0908 -48.6220 -48.5577 -47.6744 -19.7373 -19.6093 -19.1368 -19.0165
    -7.5147  -6.9369  -6.6196  -6.4754  -6.3975  -5.8402  -5.5278  -5.4487
    -3.3886  -3.1906  -3.1282  -2.9898  -2.8982  -2.7687  -2.6095  -2.5639
    -2.3562  -2.1807  -1.6918  -1.4847   6.3565   6.4150   6.6824   6.8228
     6.9407   7.2225   7.4202   7.8201   8.0012   8.4743   8.5241   8.6567
     8.9550   9.0470   9.1686   9.2602   9.3608   9.4558   9.5058   9.7666
     9.8972   9.9890  10.2691  10.4686  10.5840  10.7119  10.9275  12.4090
    13.3912  14.7349  14.8845  15.0628  15.1280  15.2022  15.2037  15.2353

     occupation numbers 
     1.0000   1.0000   1.0000   1.0000   1.0000   1.0000   1.0000   1.0000
     1.0000   1.0000   1.0000   1.0000   1.0000   1.0000   1.0000   1.0000
     1.0000   1.0000   1.0000   1.0000   1.0000   1.0000   1.0000   1.0000
     1.0000   1.0000   1.0000   1.0000   1.0000   1.0000   1.0000   1.0000
     1.0000   1.0000   1.0000   1.0000   1.0000   1.0000   1.0000   1.0000
     1.0000   1.0000   1.0000   1.0000   1.0000   1.0000   1.0000   1.0000
     1.0000   1.0000   1.0000   1.0000   1.0000   1.0000   1.0000   0.0000
     0.0000   0.0000   0.0000   0.0000   0.0000   0.0000   0.0000   0.0000

          k = 0.3333 0.3319 0.0000 (  3401 PWs)   bands (ev):

   -85.0910 -48.6222 -48.5581 -47.6765 -19.7430 -19.6118 -19.1355 -19.0181
    -7.4538  -6.9986  -6.3976  -6.2907  -6.1823  -5.8999  -5.4924  -5.3961
    -3.4697  -3.4281  -3.2327  -3.0819  -2.9892  -2.8813  -2.8102  -2.6129
    -2.5412  -2.2075  -1.7228  -1.5623   6.3063   6.6057   6.7432   6.9235
     7.0493   7.3436   7.4876   7.6448   8.2246   8.4995   8.6688   8.7812
     8.8496   9.1350   9.1459   9.3543   9.5856   9.6235   9.8081   9.9049
     9.9180  10.2452  10.5166  10.5497  10.5828  10.6936  10.9996  12.3638
    13.7801  14.3693  14.8474  15.0488  15.0530  15.0916  15.2169  15.2858

     occupation numbers 
     1.0000   1.0000   1.0000   1.0000   1.0000   1.0000   1.0000   1.0000
     1.0000   1.0000   1.0000   1.0000   1.0000   1.0000   1.0000   1.0000
     1.0000   1.0000   1.0000   1.0000   1.0000   1.0000   1.0000   1.0000
     1.0000   1.0000   1.0000   1.0000   1.0000   1.0000   1.0000   1.0000
     1.0000   1.0000   1.0000   1.0000   1.0000   1.0000   1.0000   1.0000
     1.0000   1.0000   1.0000   1.0000   1.0000   1.0000   1.0000   1.0000
     1.0000   1.0000   1.0000   1.0000   1.0000   1.0000   1.0000   0.0000
     0.0000   0.0000   0.0000   0.0000   0.0000   0.0000   0.0000   0.0000

          k = 0.3333 0.3319 0.4312 (  3395 PWs)   bands (ev):

   -85.0908 -48.6220 -48.5577 -47.6744 -19.7373 -19.6093 -19.1368 -19.0165
    -7.5147  -6.9369  -6.6196  -6.4754  -6.3975  -5.8402  -5.5278  -5.4487
    -3.3886  -3.1906  -3.1282  -2.9898  -2.8982  -2.7687  -2.6095  -2.5639
    -2.3562  -2.1807  -1.6918  -1.4847   6.3565   6.4150   6.6824   6.8229
     6.9407   7.2225   7.4202   7.8201   8.0012   8.4743   8.5241   8.6567
     8.9550   9.0470   9.1686   9.2602   9.3608   9.4558   9.5058   9.7666
     9.8972   9.9890  10.2691  10.4686  10.5839  10.7119  10.9275  12.4090
    13.3912  14.7350  14.8846  15.0624  15.1269  15.2012  15.2030  15.2324

     occupation numbers 
     1.0000   1.0000   1.0000   1.0000   1.0000   1.0000   1.0000   1.0000
     1.0000   1.0000   1.0000   1.0000   1.0000   1.0000   1.0000   1.0000
     1.0000   1.0000   1.0000   1.0000   1.0000   1.0000   1.0000   1.0000
     1.0000   1.0000   1.0000   1.0000   1.0000   1.0000   1.0000   1.0000
     1.0000   1.0000   1.0000   1.0000   1.0000   1.0000   1.0000   1.0000
     1.0000   1.0000   1.0000   1.0000   1.0000   1.0000   1.0000   1.0000
     1.0000   1.0000   1.0000   1.0000   1.0000   1.0000   1.0000   0.0000
     0.0000   0.0000   0.0000   0.0000   0.0000   0.0000   0.0000   0.0000

          k = 0.3333 0.8023 0.0000 (  3375 PWs)   bands (ev):

   -85.0907 -48.6209 -48.5579 -47.6728 -19.7211 -19.6338 -19.1199 -19.0352
    -7.5145  -6.8270  -6.3821  -6.3480  -6.1635  -5.9061  -5.6341  -5.3445
    -3.5717  -3.2505  -3.1288  -3.0157  -3.0024  -2.9533  -2.9095  -2.5902
    -2.5103  -2.3731  -1.7549  -1.5014   6.0736   6.7297   6.7777   7.0387
     7.1103   7.4268   7.4920   7.6800   8.0932   8.3982   8.6536   8.9921
     9.0436   9.0536   9.1514   9.3353   9.5085   9.5259   9.9054   9.9211
    10.0168  10.0583  10.2538  10.5985  10.7531  10.9089  10.9384  12.4340
    13.7987  14.2325  14.7541  14.9993  15.0576  15.1622  15.1894  15.2759

     occupation numbers 
     1.0000   1.0000   1.0000   1.0000   1.0000   1.0000   1.0000   1.0000
     1.0000   1.0000   1.0000   1.0000   1.0000   1.0000   1.0000   1.0000
     1.0000   1.0000   1.0000   1.0000   1.0000   1.0000   1.0000   1.0000
     1.0000   1.0000   1.0000   1.0000   1.0000   1.0000   1.0000   1.0000
     1.0000   1.0000   1.0000   1.0000   1.0000   1.0000   1.0000   1.0000
     1.0000   1.0000   1.0000   1.0000   1.0000   1.0000   1.0000   1.0000
     1.0000   1.0000   1.0000   1.0000   1.0000   1.0000   1.0000   0.0000
     0.0000   0.0000   0.0000   0.0000   0.0000   0.0000   0.0000   0.0000

          k = 0.3333 0.8023 0.4312 (  3410 PWs)   bands (ev):

   -85.0910 -48.6233 -48.5591 -47.6756 -19.7190 -19.6281 -19.1165 -19.0377
    -7.6172  -6.8479  -6.6065  -6.5459  -6.1779  -5.8086  -5.7917  -5.2097
    -3.3096  -3.2785  -3.2493  -2.9995  -2.9850  -2.9025  -2.5793  -2.5202
    -2.4509  -2.1285  -1.6123  -1.4418   6.2987   6.4554   6.8005   6.9185
     6.9286   7.1440   7.5675   7.8677   8.1150   8.3503   8.4264   8.8098
     8.8349   9.0260   9.1613   9.2137   9.3860   9.3929   9.5574   9.6572
     9.8231   9.8930  10.2162  10.4947  10.7390  10.7632  10.8083  12.5270
    13.3956  14.6754  14.8409  15.0970  15.1899  15.2102  15.2110  15.2508

     occupation numbers 
     1.0000   1.0000   1.0000   1.0000   1.0000   1.0000   1.0000   1.0000
     1.0000   1.0000   1.0000   1.0000   1.0000   1.0000   1.0000   1.0000
     1.0000   1.0000   1.0000   1.0000   1.0000   1.0000   1.0000   1.0000
     1.0000   1.0000   1.0000   1.0000   1.0000   1.0000   1.0000   1.0000
     1.0000   1.0000   1.0000   1.0000   1.0000   1.0000   1.0000   1.0000
     1.0000   1.0000   1.0000   1.0000   1.0000   1.0000   1.0000   1.0000
     1.0000   1.0000   1.0000   1.0000   1.0000   1.0000   1.0000   0.0000
     0.0000   0.0000   0.0000   0.0000   0.0000   0.0000   0.0000   0.0000

          k = 0.3333-0.1385 0.0000 (  3407 PWs)   bands (ev):

   -85.0910 -48.6241 -48.5600 -47.6744 -19.7391 -19.6363 -19.1152 -19.0259
    -7.5241  -6.6542  -6.5841  -6.1581  -5.9977  -5.6100  -5.5584  -5.1944
    -3.7186  -3.6994  -3.2848  -3.1306  -3.1066  -3.0244  -2.7477  -2.6894
    -2.5244  -2.5232  -1.9601  -1.6223   6.0079   6.4965   7.1716   7.1771
     7.4126   7.4645   7.5964   7.6260   7.7628   8.3658   8.7727   8.8211
     9.0397   9.1185   9.1896   9.5692   9.7586   9.9591  10.0647  10.0701
    10.2482  10.4429  10.5755  10.6414  10.7827  10.9131  10.9223  12.3387
    13.4054  14.1973  14.7362  14.7780  15.0714  15.1009  15.2054  15.2367

     occupation numbers 
     1.0000   1.0000   1.0000   1.0000   1.0000   1.0000   1.0000   1.0000
     1.0000   1.0000   1.0000   1.0000   1.0000   1.0000   1.0000   1.0000
     1.0000   1.0000   1.0000   1.0000   1.0000   1.0000   1.0000   1.0000
     1.0000   1.0000   1.0000   1.0000   1.0000   1.0000   1.0000   1.0000
     1.0000   1.0000   1.0000   1.0000   1.0000   1.0000   1.0000   1.0000
     1.0000   1.0000   1.0000   1.0000   1.0000   1.0000   1.0000   1.0000
     1.0000   1.0000   1.0000   1.0000   1.0000   1.0000   1.0000   0.0000
     0.0000   0.0000   0.0000   0.0000   0.0000   0.0000   0.0000   0.0000

          k = 0.3333-0.1385 0.4312 (  3391 PWs)   bands (ev):

   -85.0909 -48.6221 -48.5577 -47.6751 -19.7293 -19.6279 -19.1220 -19.0316
    -7.5224  -6.8313  -6.4697  -6.3296  -5.9898  -5.8911  -5.7374  -5.1293
    -3.6272  -3.5023  -3.2031  -3.1437  -3.0739  -3.0237  -2.7836  -2.5403
    -2.5291  -2.1497  -1.7181  -1.5352   6.3430   6.5072   6.8856   7.1046
     7.1881   7.3128   7.4529   7.7085   8.0113   8.4915   8.6648   8.7822
     8.8305   9.1040   9.1110   9.2802   9.4607   9.5409   9.8643   9.8935
    10.0669  10.3903  10.4938  10.6184  10.6511  10.7585  11.0208  12.4174
    13.8912  14.2131  14.7804  14.8409  15.1240  15.1441  15.1867  15.2587

     occupation numbers 
     1.0000   1.0000   1.0000   1.0000   1.0000   1.0000   1.0000   1.0000
     1.0000   1.0000   1.0000   1.0000   1.0000   1.0000   1.0000   1.0000
     1.0000   1.0000   1.0000   1.0000   1.0000   1.0000   1.0000   1.0000
     1.0000   1.0000   1.0000   1.0000   1.0000   1.0000   1.0000   1.0000
     1.0000   1.0000   1.0000   1.0000   1.0000   1.0000   1.0000   1.0000
     1.0000   1.0000   1.0000   1.0000   1.0000   1.0000   1.0000   1.0000
     1.0000   1.0000   1.0000   1.0000   1.0000   1.0000   1.0000   0.0000
     0.0000   0.0000   0.0000   0.0000   0.0000   0.0000   0.0000   0.0000

 ------ SPIN DOWN ----------


          k = 0.0000 0.0000 0.0000 (  3421 PWs)   bands (ev):

   -84.0520 -47.3744 -47.3517 -47.1531 -19.7689 -19.5958 -19.1377 -18.9927
    -7.4879  -6.5734  -6.5439  -6.2395  -6.0454  -5.5319  -5.5013  -5.1462
    -3.8771  -3.5009  -3.3358  -3.0072  -2.9936  -2.9258  -2.8791  -2.7736
    -2.6823  -2.3877  -1.8603  -1.5708   5.9800   6.8898   7.4469   7.4726
     7.4996   7.5689   7.6553   7.7867   7.8653   8.3569   8.7771   8.9089
     9.0929   9.3005   9.4255   9.5841   9.5843   9.6862  10.0891  10.3228
    10.4158  10.5723  10.7422  10.9003  11.2141  11.2868  11.3492  12.7317
    13.9508  14.6010  14.6785  14.8627  14.9047  15.0301  15.2361  15.2577

     occupation numbers 
     1.0000   1.0000   1.0000   1.0000   1.0000   1.0000   1.0000   1.0000
     1.0000   1.0000   1.0000   1.0000   1.0000   1.0000   1.0000   1.0000
     1.0000   1.0000   1.0000   1.0000   1.0000   1.0000   1.0000   1.0000
     1.0000   1.0000   1.0000   1.0000   1.0000   1.0000   1.0000   1.0000
     1.0000   1.0000   1.0000   1.0000   1.0000   1.0000   1.0000   1.0000
     1.0000   1.0000   1.0000   1.0000   1.0000   1.0000   1.0000   1.0000
     1.0000   1.0000   1.0000   1.0000   1.0000   1.0000   0.0000   0.0000
     0.0000   0.0000   0.0000   0.0000   0.0000   0.0000   0.0000   0.0000

          k = 0.0000 0.0000 0.4312 (  3388 PWs)   bands (ev):

   -84.0515 -47.3722 -47.3491 -47.1501 -19.7543 -19.5917 -19.1501 -18.9935
    -7.3618  -6.7255  -6.3901  -6.3596  -6.2604  -5.8126  -5.7560  -5.3562
    -3.7688  -3.1861  -3.1204  -2.9290  -2.9146  -2.8719  -2.6689  -2.5704
    -2.3937  -2.2913  -1.8051  -1.7083   6.0840   6.9275   7.1453   7.1834
     7.1946   7.4995   7.6062   7.7063   8.2700   8.6396   8.6489   8.9384
     9.0488   9.2016   9.2445   9.3007   9.4096   9.6106   9.8591  10.0511
    10.1177  10.4874  10.6646  10.7084  11.1926  11.3181  11.4648  12.6836
    14.3337  14.3371  14.9043  14.9142  15.0143  15.1050  15.2042  15.3437

     occupation numbers 
     1.0000   1.0000   1.0000   1.0000   1.0000   1.0000   1.0000   1.0000
     1.0000   1.0000   1.0000   1.0000   1.0000   1.0000   1.0000   1.0000
     1.0000   1.0000   1.0000   1.0000   1.0000   1.0000   1.0000   1.0000
     1.0000   1.0000   1.0000   1.0000   1.0000   1.0000   1.0000   1.0000
     1.0000   1.0000   1.0000   1.0000   1.0000   1.0000   1.0000   1.0000
     1.0000   1.0000   1.0000   1.0000   1.0000   1.0000   1.0000   1.0000
     1.0000   1.0000   1.0000   1.0000   1.0000   1.0000   0.0000   0.0000
     0.0000   0.0000   0.0000   0.0000   0.0000   0.0000   0.0000   0.0000

          k = 0.0000 0.4704 0.0000 (  3401 PWs)   bands (ev):

   -84.0517 -47.3717 -47.3499 -47.1525 -19.7374 -19.6072 -19.1313 -19.0144
    -7.4029  -6.9547  -6.3350  -6.3087  -6.1781  -5.8294  -5.4690  -5.3712
    -3.4541  -3.4268  -3.2262  -3.0765  -2.9830  -2.8719  -2.8039  -2.5988
    -2.5350  -2.1951  -1.7086  -1.5486   6.4487   6.9641   7.0136   7.0622
     7.1306   7.5195   7.6671   7.7194   8.3491   8.5468   8.6980   8.8350
     8.8808   9.1568   9.1914   9.4433   9.6385   9.6694   9.8625   9.9377
    10.0803  10.3414  10.6148  10.6349  11.0938  11.2504  11.5898  12.8148
    14.1804  14.3810  14.8627  15.0528  15.0614  15.1097  15.2239  15.2897

     occupation numbers 
     1.0000   1.0000   1.0000   1.0000   1.0000   1.0000   1.0000   1.0000
     1.0000   1.0000   1.0000   1.0000   1.0000   1.0000   1.0000   1.0000
     1.0000   1.0000   1.0000   1.0000   1.0000   1.0000   1.0000   1.0000
     1.0000   1.0000   1.0000   1.0000   1.0000   1.0000   1.0000   1.0000
     1.0000   1.0000   1.0000   1.0000   1.0000   1.0000   1.0000   1.0000
     1.0000   1.0000   1.0000   1.0000   1.0000   1.0000   1.0000   1.0000
     1.0000   1.0000   1.0000   1.0000   1.0000   1.0000   0.0000   0.0000
     0.0000   0.0000   0.0000   0.0000   0.0000   0.0000   0.0000   0.0000

          k = 0.0000 0.4704 0.4312 (  3395 PWs)   bands (ev):

   -84.0515 -47.3715 -47.3496 -47.1504 -19.7316 -19.6047 -19.1326 -19.0127
    -7.4773  -6.8983  -6.5813  -6.4349  -6.3840  -5.8136  -5.5009  -5.4058
    -3.3760  -3.1840  -3.1207  -2.9829  -2.8916  -2.7587  -2.6075  -2.5570
    -2.3453  -2.1720  -1.6763  -1.4712   6.6063   6.7264   6.8188   6.9658
     7.0731   7.4405   7.4937   7.8584   8.0782   8.5541   8.5862   8.7069
     9.0065   9.0668   9.2173   9.3412   9.4106   9.5386   9.6035   9.8252
     9.9565  10.0274  10.3582  10.6404  11.0941  11.1997  11.6559  12.8533
    13.8248  14.7414  14.8998  15.0701  15.1336  15.2042  15.2128  15.2390

     occupation numbers 
     1.0000   1.0000   1.0000   1.0000   1.0000   1.0000   1.0000   1.0000
     1.0000   1.0000   1.0000   1.0000   1.0000   1.0000   1.0000   1.0000
     1.0000   1.0000   1.0000   1.0000   1.0000   1.0000   1.0000   1.0000
     1.0000   1.0000   1.0000   1.0000   1.0000   1.0000   1.0000   1.0000
     1.0000   1.0000   1.0000   1.0000   1.0000   1.0000   1.0000   1.0000
     1.0000   1.0000   1.0000   1.0000   1.0000   1.0000   1.0000   1.0000
     1.0000   1.0000   1.0000   1.0000   1.0000   1.0000   0.0000   0.0000
     0.0000   0.0000   0.0000   0.0000   0.0000   0.0000   0.0000   0.0000

          k = 0.3333 0.3319 0.0000 (  3401 PWs)   bands (ev):

   -84.0517 -47.3717 -47.3499 -47.1525 -19.7374 -19.6072 -19.1313 -19.0144
    -7.4029  -6.9547  -6.3350  -6.3087  -6.1781  -5.8294  -5.4690  -5.3712
    -3.4541  -3.4268  -3.2262  -3.0765  -2.9830  -2.8719  -2.8039  -2.5988
    -2.5350  -2.1951  -1.7086  -1.5487   6.4487   6.9641   7.0136   7.0622
     7.1306   7.5195   7.6671   7.7194   8.3491   8.5468   8.6980   8.8350
     8.8808   9.1568   9.1914   9.4433   9.6385   9.6694   9.8625   9.9377
    10.0802  10.3414  10.6148  10.6349  11.0938  11.2505  11.5897  12.8148
    14.1804  14.3810  14.8628  15.0521  15.0619  15.1094  15.2254  15.2952

     occupation numbers 
     1.0000   1.0000   1.0000   1.0000   1.0000   1.0000   1.0000   1.0000
     1.0000   1.0000   1.0000   1.0000   1.0000   1.0000   1.0000   1.0000
     1.0000   1.0000   1.0000   1.0000   1.0000   1.0000   1.0000   1.0000
     1.0000   1.0000   1.0000   1.0000   1.0000   1.0000   1.0000   1.0000
     1.0000   1.0000   1.0000   1.0000   1.0000   1.0000   1.0000   1.0000
     1.0000   1.0000   1.0000   1.0000   1.0000   1.0000   1.0000   1.0000
     1.0000   1.0000   1.0000   1.0000   1.0000   1.0000   0.0000   0.0000
     0.0000   0.0000   0.0000   0.0000   0.0000   0.0000   0.0000   0.0000

          k = 0.3333 0.3319 0.4312 (  3395 PWs)   bands (ev):

   -84.0515 -47.3715 -47.3496 -47.1504 -19.7316 -19.6047 -19.1326 -19.0127
    -7.4773  -6.8983  -6.5813  -6.4349  -6.3840  -5.8136  -5.5009  -5.4058
    -3.3760  -3.1840  -3.1207  -2.9829  -2.8916  -2.7587  -2.6075  -2.5570
    -2.3453  -2.1720  -1.6763  -1.4712   6.6063   6.7264   6.8188   6.9658
     7.0731   7.4405   7.4937   7.8584   8.0782   8.5541   8.5862   8.7069
     9.0065   9.0668   9.2173   9.3412   9.4106   9.5386   9.6035   9.8252
     9.9565  10.0274  10.3582  10.6404  11.0941  11.1997  11.6559  12.8533
    13.8248  14.7414  14.8998  15.0702  15.1327  15.2031  15.2133  15.2384

     occupation numbers 
     1.0000   1.0000   1.0000   1.0000   1.0000   1.0000   1.0000   1.0000
     1.0000   1.0000   1.0000   1.0000   1.0000   1.0000   1.0000   1.0000
     1.0000   1.0000   1.0000   1.0000   1.0000   1.0000   1.0000   1.0000
     1.0000   1.0000   1.0000   1.0000   1.0000   1.0000   1.0000   1.0000
     1.0000   1.0000   1.0000   1.0000   1.0000   1.0000   1.0000   1.0000
     1.0000   1.0000   1.0000   1.0000   1.0000   1.0000   1.0000   1.0000
     1.0000   1.0000   1.0000   1.0000   1.0000   1.0000   0.0000   0.0000
     0.0000   0.0000   0.0000   0.0000   0.0000   0.0000   0.0000   0.0000

          k = 0.3333 0.8023 0.0000 (  3375 PWs)   bands (ev):

   -84.0514 -47.3705 -47.3498 -47.1489 -19.7155 -19.6293 -19.1158 -19.0314
    -7.4686  -6.7656  -6.3706  -6.3187  -6.1643  -5.8360  -5.6123  -5.3216
    -3.5703  -3.2431  -3.1138  -3.0011  -2.9922  -2.9513  -2.9063  -2.5885
    -2.4954  -2.3578  -1.7403  -1.4906   6.2453   6.9979   7.1190   7.1876
     7.3463   7.4975   7.6641   7.6736   8.2182   8.4575   8.6812   8.9909
     9.0710   9.1069   9.1779   9.3531   9.5888   9.6362   9.9368  10.0288
    10.1734  10.3331  10.3653  10.6627  11.1521  11.2692  11.6672  12.8799
    14.1468  14.3019  14.7719  15.0070  15.0606  15.1667  15.1916  15.2767

     occupation numbers 
     1.0000   1.0000   1.0000   1.0000   1.0000   1.0000   1.0000   1.0000
     1.0000   1.0000   1.0000   1.0000   1.0000   1.0000   1.0000   1.0000
     1.0000   1.0000   1.0000   1.0000   1.0000   1.0000   1.0000   1.0000
     1.0000   1.0000   1.0000   1.0000   1.0000   1.0000   1.0000   1.0000
     1.0000   1.0000   1.0000   1.0000   1.0000   1.0000   1.0000   1.0000
     1.0000   1.0000   1.0000   1.0000   1.0000   1.0000   1.0000   1.0000
     1.0000   1.0000   1.0000   1.0000   1.0000   1.0000   0.0000   0.0000
     0.0000   0.0000   0.0000   0.0000   0.0000   0.0000   0.0000   0.0000

          k = 0.3333 0.8023 0.4312 (  3410 PWs)   bands (ev):

   -84.0518 -47.3728 -47.3509 -47.1516 -19.7133 -19.6235 -19.1123 -19.0339
    -7.5820  -6.7965  -6.5671  -6.5448  -6.1209  -5.7853  -5.7710  -5.1716
    -3.3047  -3.2636  -3.2453  -2.9915  -2.9799  -2.8829  -2.5794  -2.5200
    -2.4389  -2.1197  -1.5960  -1.4301   6.5750   6.7861   6.9257   7.0461
     7.0893   7.3806   7.5636   7.9061   8.1550   8.4345   8.5059   8.8491
     8.8910   9.0478   9.2347   9.2679   9.4425   9.5350   9.6225   9.6915
     9.8821  10.0068  10.2772  10.7765  11.1192  11.1505  11.6522  12.9648
    13.8281  14.6851  14.8546  15.1062  15.1925  15.2136  15.2227  15.2860

     occupation numbers 
     1.0000   1.0000   1.0000   1.0000   1.0000   1.0000   1.0000   1.0000
     1.0000   1.0000   1.0000   1.0000   1.0000   1.0000   1.0000   1.0000
     1.0000   1.0000   1.0000   1.0000   1.0000   1.0000   1.0000   1.0000
     1.0000   1.0000   1.0000   1.0000   1.0000   1.0000   1.0000   1.0000
     1.0000   1.0000   1.0000   1.0000   1.0000   1.0000   1.0000   1.0000
     1.0000   1.0000   1.0000   1.0000   1.0000   1.0000   1.0000   1.0000
     1.0000   1.0000   1.0000   1.0000   1.0000   1.0000   0.0000   0.0000
     0.0000   0.0000   0.0000   0.0000   0.0000   0.0000   0.0000   0.0000

          k = 0.3333-0.1385 0.0000 (  3407 PWs)   bands (ev):

   -84.0518 -47.3737 -47.3519 -47.1504 -19.7335 -19.6317 -19.1110 -19.0221
    -7.4671  -6.5937  -6.5239  -6.1810  -6.0170  -5.5357  -5.5319  -5.1703
    -3.7113  -3.6974  -3.2630  -3.1174  -3.1023  -3.0169  -2.7448  -2.6830
    -2.5178  -2.5088  -1.9458  -1.6096   6.0605   6.9448   7.3897   7.4964
     7.5107   7.5638   7.7874   7.8145   7.8251   8.3961   8.7763   8.8352
     9.0437   9.1993   9.2481   9.5798   9.8460   9.9804  10.0721  10.4291
    10.4825  10.4879  10.6371  10.6725  11.2990  11.3201  11.4317  12.7999
    13.4053  14.5998  14.7577  14.7845  15.0726  15.1033  15.2076  15.2409

     occupation numbers 
     1.0000   1.0000   1.0000   1.0000   1.0000   1.0000   1.0000   1.0000
     1.0000   1.0000   1.0000   1.0000   1.0000   1.0000   1.0000   1.0000
     1.0000   1.0000   1.0000   1.0000   1.0000   1.0000   1.0000   1.0000
     1.0000   1.0000   1.0000   1.0000   1.0000   1.0000   1.0000   1.0000
     1.0000   1.0000   1.0000   1.0000   1.0000   1.0000   1.0000   1.0000
     1.0000   1.0000   1.0000   1.0000   1.0000   1.0000   1.0000   1.0000
     1.0000   1.0000   1.0000   1.0000   1.0000   1.0000   0.0000   0.0000
     0.0000   0.0000   0.0000   0.0000   0.0000   0.0000   0.0000   0.0000

          k = 0.3333-0.1385 0.4312 (  3391 PWs)   bands (ev):

   -84.0516 -47.3717 -47.3495 -47.1512 -19.7237 -19.6233 -19.1178 -19.0277
    -7.4728  -6.7800  -6.4077  -6.3510  -5.9951  -5.8188  -5.7161  -5.0974
    -3.6193  -3.4893  -3.1944  -3.1380  -3.0666  -3.0054  -2.7806  -2.5333
    -2.5280  -2.1382  -1.7029  -1.5230   6.4335   6.9143   7.1737   7.2337
     7.3424   7.4378   7.6514   7.7765   8.1357   8.5368   8.6960   8.8030
     8.8742   9.1375   9.1523   9.3729   9.4725   9.5601   9.8889   9.9585
    10.1946  10.5370  10.6569  10.8422  11.1794  11.2475  11.4783  12.8759
    14.2065  14.3114  14.7915  14.8674  15.1296  15.1492  15.1923  15.2643

     occupation numbers 
     1.0000   1.0000   1.0000   1.0000   1.0000   1.0000   1.0000   1.0000
     1.0000   1.0000   1.0000   1.0000   1.0000   1.0000   1.0000   1.0000
     1.0000   1.0000   1.0000   1.0000   1.0000   1.0000   1.0000   1.0000
     1.0000   1.0000   1.0000   1.0000   1.0000   1.0000   1.0000   1.0000
     1.0000   1.0000   1.0000   1.0000   1.0000   1.0000   1.0000   1.0000
     1.0000   1.0000   1.0000   1.0000   1.0000   1.0000   1.0000   1.0000
     1.0000   1.0000   1.0000   1.0000   1.0000   1.0000   0.0000   0.0000
     0.0000   0.0000   0.0000   0.0000   0.0000   0.0000   0.0000   0.0000

     highest occupied, lowest unoccupied level (ev):    11.3201   11.3492

!    total energy              =   -2465.71012544 Ry
     estimated scf accuracy    <       0.00000017 Ry

     The total energy is the sum of the following terms:
     one-electron contribution =    -373.31212149 Ry
     hartree contribution      =     262.92969238 Ry
     xc contribution           =    -145.23555245 Ry
     ewald contribution        =    -559.41666650 Ry
     one-center paw contrib.   =   -1650.67547739 Ry
      -> PAW hartree energy AE =      69.18484753 Ry
      -> PAW hartree energy PS =     -69.18682708 Ry
      -> PAW xc energy AE      =    -810.69541086 Ry
      -> PAW xc energy PS      =      23.46706298 Ry
      -> total E_H with PAW    =     262.92771283 Ry
      -> total E_XC with PAW   =    -932.46390032 Ry

     total magnetization       =     1.00 Bohr mag/cell
     absolute magnetization    =     1.17 Bohr mag/cell

     convergence has been achieved in  17 iterations

     Writing all to output data dir bands_nm/myprefix.save/
 
     init_run     :      9.13s CPU      2.39s WALL (       1 calls)
     electrons    :    140.30s CPU     36.46s WALL (       1 calls)

     Called by init_run:
     wfcinit      :      3.40s CPU      0.87s WALL (       1 calls)
     wfcinit:atom :      0.04s CPU      0.01s WALL (      10 calls)
     wfcinit:wfcr :      3.21s CPU      0.82s WALL (      10 calls)
     potinit      :      3.41s CPU      0.89s WALL (       1 calls)
     hinit0       :      1.60s CPU      0.42s WALL (       1 calls)

     Called by electrons:
     c_bands      :     77.81s CPU     20.01s WALL (      17 calls)
     sum_band     :     15.04s CPU      4.08s WALL (      17 calls)
     v_of_rho     :      1.67s CPU      0.44s WALL (      18 calls)
     v_h          :      0.07s CPU      0.02s WALL (      18 calls)
     v_xc         :      1.60s CPU      0.42s WALL (      18 calls)
     newd         :      3.72s CPU      1.00s WALL (      18 calls)
     PAW_pot      :     44.19s CPU     11.46s WALL (      18 calls)
     mix_rho      :      0.43s CPU      0.11s WALL (      17 calls)

     Called by c_bands:
     init_us_2    :      0.31s CPU      0.11s WALL (     350 calls)
     init_us_2:cp :      0.30s CPU      0.11s WALL (     350 calls)
     cegterg      :     70.48s CPU     18.08s WALL (     170 calls)

     Called by sum_band:
     sum_band:wei :      0.01s CPU      0.00s WALL (      17 calls)
     sum_band:loo :      7.74s CPU      1.99s WALL (      17 calls)
     sum_band:buf :      0.14s CPU      0.03s WALL (     170 calls)
     sum_band:ini :      0.16s CPU      0.05s WALL (     170 calls)
     sum_band:cal :      1.67s CPU      0.42s WALL (     170 calls)
     sum_band:bec :      0.07s CPU      0.03s WALL (     170 calls)
     addusdens    :      6.88s CPU      1.98s WALL (      17 calls)
     addusd:skk   :      0.00s CPU      0.00s WALL (      51 calls)
     addusd:dgemm :      2.37s CPU      0.83s WALL (     102 calls)
     addusd:qvan2 :      4.18s CPU      1.08s WALL (     102 calls)

     Called by *egterg:
     cdiaghg      :     17.20s CPU      4.44s WALL (    1116 calls)
     cegterg:over :      4.31s CPU      0.90s WALL (     946 calls)
     cegterg:upda :      1.27s CPU      0.49s WALL (     946 calls)
     cegterg:last :      4.03s CPU      1.07s WALL (     389 calls)
     h_psi        :     38.98s CPU     10.15s WALL (    1126 calls)
     s_psi        :      4.45s CPU      1.18s WALL (    1126 calls)
     g_psi        :      0.04s CPU      0.02s WALL (     946 calls)

     Called by h_psi:
     h_psi:calbec :      5.02s CPU      1.27s WALL (    1126 calls)
     vloc_psi     :     29.93s CPU      7.65s WALL (    1126 calls)
     add_vuspsi   :      3.96s CPU      1.19s WALL (    1126 calls)

     General routines
     calbec       :      6.68s CPU      1.68s WALL (    1296 calls)
     fft          :      1.08s CPU      0.31s WALL (     444 calls)
     ffts         :      0.06s CPU      0.02s WALL (      70 calls)
     fftw         :     34.02s CPU      7.67s WALL (   72972 calls)
     interpolate  :      0.16s CPU      0.04s WALL (      36 calls)
 
     Parallel routines

     PAW routines
     PAW_pot      :     44.19s CPU     11.46s WALL (      18 calls)
     PAW_symme    :      0.22s CPU      0.06s WALL (      35 calls)
 
     PWSCF        :   2m31.33s CPU     40.58s WALL

 
   This run was terminated on:  14:14: 0  15Jul2023            

=------------------------------------------------------------------------------=
   JOB DONE.
=------------------------------------------------------------------------------=
