
     Program PWSCF v.7.1 starts on 17Jul2023 at  0:21:40 

     This program is part of the open-source Quantum ESPRESSO suite
     for quantum simulation of materials; please cite
         "P. Giannozzi et al., J. Phys.:Condens. Matter 21 395502 (2009);
         "P. Giannozzi et al., J. Phys.:Condens. Matter 29 465901 (2017);
         "P. Giannozzi et al., J. Chem. Phys. 152 154105 (2020);
          URL http://www.quantum-espresso.org", 
     in publications or presentations arising from this work. More details at
     http://www.quantum-espresso.org/quote

     Parallel version (MPI & OpenMP), running on      32 processor cores
     Number of MPI processes:                 8
     Threads/MPI process:                     4

     MPI processes distributed on     1 nodes
     188594 MiB available memory on the printing compute node when the environment starts
 
     Reading input from espresso_16490.pwi
Warning: card &CELL ignored
Warning: card / ignored

     Current dimensions of program PWSCF are:
     Max number of different atomic species (ntypx) = 10
     Max number of k-points (npk) =  40000
     Max angular momentum in pseudopotentials (lmaxx) =  4
     file O.pbe-n-kjpaw_psl.0.1.UPF: wavefunction(s)  2P renormalized
     Message from routine setup:
     using ibrav=0 with symmetry is DISCOURAGED, use correct ibrav instead
 
     K-points division:     npool     =       2
     R & G space division:  proc/nbgrp/npool/nimage =       4
     Subspace diagonalization in iterative solution of the eigenvalue problem:
     one sub-group per band group will be used
     scalapack distributed-memory algorithm (size of sub-group:  2*  2 procs)

 
     Parallelization info
     --------------------
     sticks:   dense  smooth     PW     G-vecs:    dense   smooth      PW
     Min         379     189     54                28341     9998    1530
     Max         380     190     55                28346    10000    1535
     Sum        1519     757    217               113377    39997    6127
 
     Using Slab Decomposition
 


     bravais-lattice index     =            0
     lattice parameter (alat)  =       9.1224  a.u.
     unit-cell volume          =    1805.1523 (a.u.)^3
     number of atoms/cell      =           20
     number of atomic types    =            3
     number of electrons       =       160.00
     number of Kohn-Sham states=          256
     kinetic-energy cutoff     =      30.0000  Ry
     charge density cutoff     =     240.0000  Ry
     scf convergence threshold =      1.0E-06
     mixing beta               =       0.7000
     number of iterations used =            8  plain     mixing
     Exchange-correlation=  SLA  PW   PBX  PBC
                           (   1   4   3   4   0   0   0)

     celldm(1)=   9.122377  celldm(2)=   0.000000  celldm(3)=   0.000000
     celldm(4)=   0.000000  celldm(5)=   0.000000  celldm(6)=   0.000000

     crystal axes: (cart. coord. in units of alat)
               a(1) = (   1.000000   0.000000   0.000000 )  
               a(2) = (   0.000000   0.953345   0.000000 )  
               a(3) = (   0.000000   0.924064   2.494248 )  

     reciprocal axes: (cart. coord. in units 2 pi/alat)
               b(1) = (  1.000000  0.000000  0.000000 )  
               b(2) = (  0.000000  1.048938 -0.388608 )  
               b(3) = (  0.000000  0.000000  0.400922 )  


     PseudoPot. # 1 for V  read from file:
     /lustre07/scratch/pragov/crystal_structure_design/utils/SSSP/v_pbe_v1.4.uspp.F.UPF
     MD5 check sum: 22b79981416ebb76fdaf5b1b8640f6fb
     Pseudo is Ultrasoft + core correction, Zval = 13.0
     Generated by new atomic code, or converted to UPF format
     Using radial grid of  853 points,  6 beta functions with: 
                l(1) =   0
                l(2) =   0
                l(3) =   1
                l(4) =   1
                l(5) =   2
                l(6) =   2
     Q(r) pseudized with  8 coefficients,  rinner =    1.100   1.100   1.100
                                                       1.100   1.100

     PseudoPot. # 2 for O  read from file:
     /lustre07/scratch/pragov/crystal_structure_design/utils/SSSP/O.pbe-n-kjpaw_psl.0.1.UPF
     MD5 check sum: 0234752ac141de4415c5fc33072bef88
     Pseudo is Projector augmented-wave + core cor, Zval =  6.0
     Generated using "atomic" code by A. Dal Corso  v.5.0.99 svn rev. 10869
     Shape of augmentation charge: BESSEL
     Using radial grid of 1095 points,  4 beta functions with: 
                l(1) =   0
                l(2) =   0
                l(3) =   1
                l(4) =   1
     Q(r) pseudized with 0 coefficients 


     PseudoPot. # 3 for F  read from file:
     /lustre07/scratch/pragov/crystal_structure_design/utils/SSSP/f_pbe_v1.4.uspp.F.UPF
     MD5 check sum: 4c38b6a325caf53ec0e86aed9459de46
     Pseudo is Ultrasoft, Zval =  7.0
     Generated by new atomic code, or converted to UPF format
     Using radial grid of  799 points,  4 beta functions with: 
                l(1) =   0
                l(2) =   0
                l(3) =   1
                l(4) =   1
     Q(r) pseudized with  8 coefficients,  rinner =    0.950   0.950   0.950


     atomic species   valence    mass     pseudopotential
        V             13.00    50.94150     V ( 1.00)
        O              6.00    15.99900     O ( 1.00)
        F              7.00    18.99840     F ( 1.00)

      4 Sym. Ops., with inversion, found ( 2 have fractional translation)


                                    s                        frac. trans.

      isym =  1     identity                                     

 cryst.   s( 1) = (     1          0          0      )
                  (     0          1          0      )
                  (     0          0          1      )

 cart.    s( 1) = (  1.0000000  0.0000000  0.0000000 )
                  (  0.0000000  1.0000000  0.0000000 )
                  (  0.0000000  0.0000000  1.0000000 )


      isym =  2     180 deg rotation - cart. axis [1,0,0]        

 cryst.   s( 2) = (     1          0          0      )    f =(  0.5000000 )
                  (     0         -1          0      )       (  0.0000000 )
                  (     0          0         -1      )       (  0.5000000 )

 cart.    s( 2) = (  1.0000000  0.0000000  0.0000000 )    f =(  0.5000000 )
                  (  0.0000000 -1.0000000  0.0000000 )       (  0.4620320 )
                  (  0.0000000  0.0000000 -1.0000000 )       (  1.2471242 )


      isym =  3     inversion                                    

 cryst.   s( 3) = (    -1          0          0      )
                  (     0         -1          0      )
                  (     0          0         -1      )

 cart.    s( 3) = ( -1.0000000  0.0000000  0.0000000 )
                  (  0.0000000 -1.0000000  0.0000000 )
                  (  0.0000000  0.0000000 -1.0000000 )


      isym =  4     inv. 180 deg rotation - cart. axis [1,0,0]   

 cryst.   s( 4) = (    -1          0          0      )    f =(  0.5000000 )
                  (     0          1          0      )       ( -0.0000000 )
                  (     0          0          1      )       (  0.5000000 )

 cart.    s( 4) = ( -1.0000000  0.0000000  0.0000000 )    f =(  0.5000000 )
                  (  0.0000000  1.0000000  0.0000000 )       (  0.4620320 )
                  (  0.0000000  0.0000000  1.0000000 )       (  1.2471242 )


   Cartesian axes

     site n.     atom                  positions (alat units)
         1           V   tau(   1) = (   0.6999080   0.9080132   1.6991543  )
         2           V   tau(   2) = (   0.1999080   1.4314278   2.0422183  )
         3           V   tau(   3) = (   0.8000920   0.4459812   0.4520301  )
         4           V   tau(   4) = (   0.3000920   0.9693958   0.7950941  )
         5           O   tau(   5) = (   0.9487780   1.6595472   2.0035549  )
         6           O   tau(   6) = (   0.4487780   0.6798939   1.7378177  )
         7           O   tau(   7) = (   0.5512220   1.1975152   0.7564307  )
         8           O   tau(   8) = (   0.0512220   0.2178619   0.4906935  )
         9           F   tau(   9) = (   0.4284010   1.6016862   2.2715943  )
        10           F   tau(  10) = (   0.9284010   0.7377549   1.4697783  )
        11           F   tau(  11) = (   0.4189250   0.7374476   1.0486544  )
        12           F   tau(  12) = (   0.4084680   0.7293725   0.5114806  )
        13           F   tau(  13) = (   0.9084680   0.6860045   0.7356436  )
        14           F   tau(  14) = (   0.9189250   0.6779294   0.1984698  )
        15           F   tau(  15) = (   0.0810750   1.1994796   2.2957786  )
        16           F   tau(  16) = (   0.0915320   1.1914045   1.7586048  )
        17           F   tau(  17) = (   0.5915320   1.1480365   1.9827678  )
        18           F   tau(  18) = (   0.5810750   1.1399614   1.4455940  )
        19           F   tau(  19) = (   0.0715990   1.1396542   1.0244701  )
        20           F   tau(  20) = (   0.5715990   0.2757229   0.2226541  )

   Crystallographic axes

     site n.     atom                  positions (cryst. coord.)
         1           V   tau(   1) = (  0.6999080  0.2921440  0.6812290  )
         2           V   tau(   2) = (  0.1999080  0.7078560  0.8187710  )
         3           V   tau(   3) = (  0.8000920  0.2921440  0.1812290  )
         4           V   tau(   4) = (  0.3000920  0.7078560  0.3187710  )
         5           O   tau(   5) = (  0.9487780  0.9621640  0.8032700  )
         6           O   tau(   6) = (  0.4487780  0.0378360  0.6967300  )
         7           O   tau(   7) = (  0.5512220  0.9621640  0.3032700  )
         8           O   tau(   8) = (  0.0512220  0.0378360  0.1967300  )
         9           F   tau(   9) = (  0.4284010  0.7973090  0.9107330  )
        10           F   tau(  10) = (  0.9284010  0.2026910  0.5892670  )
        11           F   tau(  11) = (  0.4189250  0.3660210  0.4204290  )
        12           F   tau(  12) = (  0.4084680  0.5663010  0.2050640  )
        13           F   tau(  13) = (  0.9084680  0.4336990  0.2949360  )
        14           F   tau(  14) = (  0.9189250  0.6339790  0.0795710  )
        15           F   tau(  15) = (  0.0810750  0.3660210  0.9204290  )
        16           F   tau(  16) = (  0.0915320  0.5663010  0.7050640  )
        17           F   tau(  17) = (  0.5915320  0.4336990  0.7949360  )
        18           F   tau(  18) = (  0.5810750  0.6339790  0.5795710  )
        19           F   tau(  19) = (  0.0715990  0.7973090  0.4107330  )
        20           F   tau(  20) = (  0.5715990  0.2026910  0.0892670  )

     number of k points=    10
                       cart. coord. in units 2pi/alat
        k(    1) = (   0.0000000   0.0000000   0.0000000), wk =   0.0740741
        k(    2) = (   0.0000000   0.0000000   0.1336408), wk =   0.1481481
        k(    3) = (   0.0000000   0.3496461  -0.1295361), wk =   0.1481481
        k(    4) = (   0.0000000   0.3496461   0.0041046), wk =   0.1481481
        k(    5) = (   0.0000000   0.3496461  -0.2631769), wk =   0.1481481
        k(    6) = (   0.3333333   0.0000000   0.0000000), wk =   0.1481481
        k(    7) = (   0.3333333   0.0000000   0.1336408), wk =   0.2962963
        k(    8) = (   0.3333333   0.3496461  -0.1295361), wk =   0.2962963
        k(    9) = (   0.3333333   0.3496461   0.0041046), wk =   0.2962963
        k(   10) = (   0.3333333   0.3496461  -0.2631769), wk =   0.2962963

                       cryst. coord.
        k(    1) = (   0.0000000   0.0000000   0.0000000), wk =   0.0740741
        k(    2) = (   0.0000000   0.0000000   0.3333333), wk =   0.1481481
        k(    3) = (   0.0000000   0.3333333   0.0000000), wk =   0.1481481
        k(    4) = (   0.0000000   0.3333333   0.3333333), wk =   0.1481481
        k(    5) = (   0.0000000   0.3333333  -0.3333333), wk =   0.1481481
        k(    6) = (   0.3333333   0.0000000   0.0000000), wk =   0.1481481
        k(    7) = (   0.3333333   0.0000000   0.3333333), wk =   0.2962963
        k(    8) = (   0.3333333   0.3333333   0.0000000), wk =   0.2962963
        k(    9) = (   0.3333333   0.3333333   0.3333333), wk =   0.2962963
        k(   10) = (   0.3333333   0.3333333  -0.3333333), wk =   0.2962963

     Dense  grid:   113377 G-vectors     FFT dimensions: (  48,  45, 120)

     Smooth grid:    39997 G-vectors     FFT dimensions: (  32,  32,  90)

     Dynamical RAM for                 wfc:       4.89 MB

     Dynamical RAM for     wfc (w. buffer):      29.34 MB

     Dynamical RAM for           str. fact:       1.30 MB

     Dynamical RAM for           local pot:       0.00 MB

     Dynamical RAM for          nlocal pot:       3.82 MB

     Dynamical RAM for                qrad:       3.73 MB

     Dynamical RAM for          rho,v,vnew:       2.78 MB

     Dynamical RAM for               rhoin:       0.93 MB

     Dynamical RAM for            rho*nmix:       6.92 MB

     Dynamical RAM for           G-vectors:       1.70 MB

     Dynamical RAM for          h,s,v(r/c):       3.00 MB

     Dynamical RAM for          <psi|beta>:       0.78 MB

     Dynamical RAM for                 psi:       9.78 MB

     Dynamical RAM for                hpsi:       9.78 MB

     Dynamical RAM for                spsi:       9.78 MB

     Dynamical RAM for      wfcinit/wfcrot:      11.28 MB

     Dynamical RAM for           addusdens:      43.03 MB

     Estimated static dynamical RAM per process >      47.80 MB

     Estimated max dynamical RAM per process >      97.75 MB

     Estimated total dynamical RAM >     754.30 MB

     Check: negative core charge=   -0.000009

     Initial potential from superposition of free atoms

     starting charge     159.9951, renormalised to     160.0000

     negative rho (up, down):  2.521E-03 0.000E+00
     Starting wfcs are  104 randomized atomic wfcs +  152 random wfcs
     Checking if some PAW data can be deallocated... 
       PAW data deallocated on    6 nodes for type:  2

     total cpu time spent up to now is        2.5 secs

     Self-consistent Calculation

     iteration #  1     ecut=    30.00 Ry     beta= 0.70
     Davidson diagonalization with overlap

---- Real-time Memory Report at c_bands before calling an iterative solver
           238 MiB given to the printing process from OS
             0 MiB allocation reported by mallinfo(arena+hblkhd)
        187893 MiB available memory on the node where the printing process lives
------------------
     ethr =  1.00E-02,  avg # of iterations =  6.0

     negative rho (up, down):  1.236E-02 0.000E+00

     total cpu time spent up to now is       14.7 secs

     total energy              =   -1326.02340445 Ry
     estimated scf accuracy    <       8.21845458 Ry

     iteration #  2     ecut=    30.00 Ry     beta= 0.70
     Davidson diagonalization with overlap

---- Real-time Memory Report at c_bands before calling an iterative solver
           308 MiB given to the printing process from OS
             0 MiB allocation reported by mallinfo(arena+hblkhd)
        187535 MiB available memory on the node where the printing process lives
------------------
     ethr =  5.14E-03,  avg # of iterations =  2.0

     negative rho (up, down):  3.150E-03 0.000E+00

     total cpu time spent up to now is       20.4 secs

     total energy              =   -1313.70169346 Ry
     estimated scf accuracy    <     186.96309186 Ry

     iteration #  3     ecut=    30.00 Ry     beta= 0.70
     Davidson diagonalization with overlap

---- Real-time Memory Report at c_bands before calling an iterative solver
           320 MiB given to the printing process from OS
             0 MiB allocation reported by mallinfo(arena+hblkhd)
        187483 MiB available memory on the node where the printing process lives
------------------
     ethr =  5.14E-03,  avg # of iterations =  2.0

     negative rho (up, down):  4.291E-03 0.000E+00

     total cpu time spent up to now is       26.5 secs

     total energy              =   -1331.20330653 Ry
     estimated scf accuracy    <       2.10635504 Ry

     iteration #  4     ecut=    30.00 Ry     beta= 0.70
     Davidson diagonalization with overlap

---- Real-time Memory Report at c_bands before calling an iterative solver
           323 MiB given to the printing process from OS
             0 MiB allocation reported by mallinfo(arena+hblkhd)
        187488 MiB available memory on the node where the printing process lives
------------------
     ethr =  1.32E-03,  avg # of iterations =  1.0

     negative rho (up, down):  5.478E-03 0.000E+00

     total cpu time spent up to now is       31.1 secs

     total energy              =   -1331.26331000 Ry
     estimated scf accuracy    <       0.88590027 Ry

     iteration #  5     ecut=    30.00 Ry     beta= 0.70
     Davidson diagonalization with overlap

---- Real-time Memory Report at c_bands before calling an iterative solver
           323 MiB given to the printing process from OS
             0 MiB allocation reported by mallinfo(arena+hblkhd)
        187494 MiB available memory on the node where the printing process lives
------------------
     ethr =  5.54E-04,  avg # of iterations =  1.0

     negative rho (up, down):  7.217E-03 0.000E+00

     total cpu time spent up to now is       35.3 secs

     total energy              =   -1331.20882432 Ry
     estimated scf accuracy    <       0.33489772 Ry

     iteration #  6     ecut=    30.00 Ry     beta= 0.70
     Davidson diagonalization with overlap

---- Real-time Memory Report at c_bands before calling an iterative solver
           323 MiB given to the printing process from OS
             0 MiB allocation reported by mallinfo(arena+hblkhd)
        187498 MiB available memory on the node where the printing process lives
------------------
     ethr =  2.09E-04,  avg # of iterations =  1.2

     negative rho (up, down):  7.584E-03 0.000E+00

     total cpu time spent up to now is       39.7 secs

     total energy              =   -1331.23520758 Ry
     estimated scf accuracy    <       0.01872591 Ry

     iteration #  7     ecut=    30.00 Ry     beta= 0.70
     Davidson diagonalization with overlap

---- Real-time Memory Report at c_bands before calling an iterative solver
           323 MiB given to the printing process from OS
             0 MiB allocation reported by mallinfo(arena+hblkhd)
        187500 MiB available memory on the node where the printing process lives
------------------
     ethr =  1.17E-05,  avg # of iterations = 10.0

     negative rho (up, down):  8.140E-03 0.000E+00

     total cpu time spent up to now is       47.4 secs

     total energy              =   -1331.23794590 Ry
     estimated scf accuracy    <       0.00463062 Ry

     iteration #  8     ecut=    30.00 Ry     beta= 0.70
     Davidson diagonalization with overlap

---- Real-time Memory Report at c_bands before calling an iterative solver
           337 MiB given to the printing process from OS
             0 MiB allocation reported by mallinfo(arena+hblkhd)
        187402 MiB available memory on the node where the printing process lives
------------------
     ethr =  2.89E-06,  avg # of iterations =  2.6

     negative rho (up, down):  8.071E-03 0.000E+00

     total cpu time spent up to now is       53.4 secs

     total energy              =   -1331.23863370 Ry
     estimated scf accuracy    <       0.00187191 Ry

     iteration #  9     ecut=    30.00 Ry     beta= 0.70
     Davidson diagonalization with overlap

---- Real-time Memory Report at c_bands before calling an iterative solver
           338 MiB given to the printing process from OS
             0 MiB allocation reported by mallinfo(arena+hblkhd)
        187390 MiB available memory on the node where the printing process lives
------------------
     ethr =  1.17E-06,  avg # of iterations =  1.4

     negative rho (up, down):  8.045E-03 0.000E+00

     total cpu time spent up to now is       59.0 secs

     total energy              =   -1331.23873147 Ry
     estimated scf accuracy    <       0.00039346 Ry

     iteration # 10     ecut=    30.00 Ry     beta= 0.70
     Davidson diagonalization with overlap

---- Real-time Memory Report at c_bands before calling an iterative solver
           338 MiB given to the printing process from OS
             0 MiB allocation reported by mallinfo(arena+hblkhd)
        187392 MiB available memory on the node where the printing process lives
------------------
     ethr =  2.46E-07,  avg # of iterations =  1.0

     negative rho (up, down):  8.072E-03 0.000E+00

     total cpu time spent up to now is       62.8 secs

     total energy              =   -1331.23878836 Ry
     estimated scf accuracy    <       0.00001123 Ry

     iteration # 11     ecut=    30.00 Ry     beta= 0.70
     Davidson diagonalization with overlap

---- Real-time Memory Report at c_bands before calling an iterative solver
           338 MiB given to the printing process from OS
             0 MiB allocation reported by mallinfo(arena+hblkhd)
        187391 MiB available memory on the node where the printing process lives
------------------
     ethr =  7.02E-09,  avg # of iterations =  1.0

     negative rho (up, down):  8.072E-03 0.000E+00

     total cpu time spent up to now is       67.8 secs

     End of self-consistent calculation

          k = 0.0000 0.0000 0.0000 (  4987 PWs)   bands (ev):

   -63.3107 -63.3105 -63.3085 -63.3083 -37.1954 -37.1942 -37.1742 -37.1731
   -37.1721 -37.1717 -37.1672 -37.1659 -37.1599 -37.1597 -37.1360 -37.1348
   -20.1232 -20.0700 -19.7961 -19.6710 -19.6588 -19.6012 -19.6008 -19.5986
   -19.4389 -19.4156 -19.3936 -19.3568 -15.1723 -15.1700 -14.8963 -14.8961
    -3.1049  -3.0971  -3.0790  -2.9734  -2.9254  -2.9227  -2.7930  -2.6891
    -2.6213  -2.5141  -2.2458  -2.2145  -2.1134  -2.1022  -2.0366  -2.0146
    -1.9307  -1.7953  -1.6501  -1.6257  -1.3714  -1.2586  -1.2539  -1.2150
    -1.1740  -1.1246  -0.9497  -0.8662  -0.8401  -0.8072  -0.6487  -0.4821
    -0.3363  -0.3092  -0.2012  -0.1705  -0.1377   0.0250   0.0739   0.1261
     0.1926   0.1963   0.3627   0.3897   0.4611   0.5381   0.8419   0.8444
     3.6540   3.7083   3.7548   3.7597   3.8609   3.8916   4.3507   4.4004
     4.5652   4.5845   4.8577   4.8635   5.5522   5.5620   6.3014   6.3597
     6.6277   6.6621   7.1475   7.1683   9.7579  11.1863  11.2503  14.2332
    14.2904  15.6343  15.6660  16.1022  16.2786  16.5163  16.5891  16.7991
    16.8449  16.9164  17.1520  17.1565  17.2684  17.6641  17.8483  18.0939
    18.1209  18.1550  18.4029  18.4378  18.4779  18.6745  18.8046  19.3956
    19.6002  20.4225  20.8499  21.1676  21.4801  21.6155  21.7395  21.7471
    21.9389  22.1726  22.3934  22.5883  22.6532  22.7979  22.9529  23.2404
    23.4867  23.5116  24.2344  24.6039  25.1158  25.3507  25.3655  25.8207
    25.9226  26.1977  26.7260  26.8773  26.9276  26.9549  27.0928  27.5285
    27.5308  28.0445  28.2732  28.3841  28.6513  28.7159  28.8050  28.9531
    29.1009  29.1832  29.5658  30.0466  30.2498  30.4339  30.4371  30.5273
    30.7771  31.0674  31.1002  31.2035  31.2638  31.5041  31.6129  32.3592
    32.4392  32.6450  32.7295  33.4259  33.8618  33.9632  34.1476  34.2763
    34.2873  34.5895  34.7214  35.1371  35.1489  35.1652  35.8667  35.8871
    36.0260  36.0561  36.1247  36.1443  36.3543  36.7012  36.7986  36.8824
    37.1001  37.3008  37.3199  37.3229  37.8781  38.0219  38.0987  38.3003
    38.4071  38.5783  38.6314  38.7832  38.9474  39.2627  39.3133  39.3863
    39.5027  39.5780  39.7767  39.7996  40.1572  40.2312  40.5064  40.6095
    40.6455  40.6619  40.9968  41.1725  41.3125  41.5677  41.6694  41.7682
    41.9660  42.0707  42.0780  42.1510  42.2124  42.3600  42.3905  42.7376
    42.7377  42.7518  42.9638  43.0811  43.1726  43.2775  43.7477  43.8100

     occupation numbers 
     1.0000   1.0000   1.0000   1.0000   1.0000   1.0000   1.0000   1.0000
     1.0000   1.0000   1.0000   1.0000   1.0000   1.0000   1.0000   1.0000
     1.0000   1.0000   1.0000   1.0000   1.0000   1.0000   1.0000   1.0000
     1.0000   1.0000   1.0000   1.0000   1.0000   1.0000   1.0000   1.0000
     1.0000   1.0000   1.0000   1.0000   1.0000   1.0000   1.0000   1.0000
     1.0000   1.0000   1.0000   1.0000   1.0000   1.0000   1.0000   1.0000
     1.0000   1.0000   1.0000   1.0000   1.0000   1.0000   1.0000   1.0000
     1.0000   1.0000   1.0000   1.0000   1.0000   1.0000   1.0000   1.0000
     1.0000   1.0000   1.0000   1.0000   1.0000   1.0000   1.0000   1.0000
     1.0000   1.0000   1.0000   1.0000   1.0000   1.0000   1.0000   1.0000
     0.0000   0.0000   0.0000   0.0000   0.0000   0.0000   0.0000   0.0000
     0.0000   0.0000   0.0000   0.0000   0.0000   0.0000   0.0000   0.0000
     0.0000   0.0000   0.0000   0.0000   0.0000   0.0000   0.0000   0.0000
     0.0000   0.0000   0.0000   0.0000   0.0000   0.0000   0.0000   0.0000
     0.0000   0.0000   0.0000   0.0000   0.0000   0.0000   0.0000   0.0000
     0.0000   0.0000   0.0000   0.0000   0.0000   0.0000   0.0000   0.0000
     0.0000   0.0000   0.0000   0.0000   0.0000   0.0000   0.0000   0.0000
     0.0000   0.0000   0.0000   0.0000   0.0000   0.0000   0.0000   0.0000
     0.0000   0.0000   0.0000   0.0000   0.0000   0.0000   0.0000   0.0000
     0.0000   0.0000   0.0000   0.0000   0.0000   0.0000   0.0000   0.0000
     0.0000   0.0000   0.0000   0.0000   0.0000   0.0000   0.0000   0.0000
     0.0000   0.0000   0.0000   0.0000   0.0000   0.0000   0.0000   0.0000
     0.0000   0.0000   0.0000   0.0000   0.0000   0.0000   0.0000   0.0000
     0.0000   0.0000   0.0000   0.0000   0.0000   0.0000   0.0000   0.0000
     0.0000   0.0000   0.0000   0.0000   0.0000   0.0000   0.0000   0.0000
     0.0000   0.0000   0.0000   0.0000   0.0000   0.0000   0.0000   0.0000
     0.0000   0.0000   0.0000   0.0000   0.0000   0.0000   0.0000   0.0000
     0.0000   0.0000   0.0000   0.0000   0.0000   0.0000   0.0000   0.0000
     0.0000   0.0000   0.0000   0.0000   0.0000   0.0000   0.0000   0.0000
     0.0000   0.0000   0.0000   0.0000   0.0000   0.0000   0.0000   0.0000
     0.0000   0.0000   0.0000   0.0000   0.0000   0.0000   0.0000   0.0000
     0.0000   0.0000   0.0000   0.0000   0.0000   0.0000   0.0000   0.0000

          k = 0.0000 0.0000 0.1336 (  4984 PWs)   bands (ev):

   -63.3107 -63.3106 -63.3084 -63.3083 -37.1945 -37.1940 -37.1745 -37.1738
   -37.1725 -37.1720 -37.1666 -37.1661 -37.1602 -37.1598 -37.1354 -37.1348
   -20.1119 -20.0856 -19.7703 -19.7166 -19.6289 -19.6089 -19.5995 -19.5987
   -19.4351 -19.4252 -19.3803 -19.3635 -15.1717 -15.1705 -14.8963 -14.8962
    -3.1030  -3.1006  -3.0493  -3.0023  -2.9293  -2.9277  -2.7677  -2.7188
    -2.5979  -2.5498  -2.2345  -2.2156  -2.1323  -2.1249  -1.9718  -1.9587
    -1.9153  -1.7848  -1.7326  -1.6760  -1.3445  -1.2912  -1.2319  -1.2174
    -1.1550  -1.1284  -0.9325  -0.8751  -0.8416  -0.8148  -0.5989  -0.5251
    -0.3002  -0.2946  -0.2095  -0.2084  -0.0933  -0.0152   0.0867   0.1106
     0.2032   0.2051   0.3684   0.3815   0.4772   0.5121   0.8447   0.8461
     3.6657   3.6924   3.7578   3.7628   3.8686   3.8830   4.3613   4.3855
     4.5686   4.5777   4.8610   4.8633   5.5535   5.5587   6.3160   6.3470
     6.6364   6.6543   7.1547   7.1661   9.9401  10.4535  12.1512  13.1805
    15.3343  15.7548  15.8086  16.0437  16.1962  16.2338  16.2943  16.4348
    16.8779  16.8797  17.1969  17.3981  17.4621  17.7250  17.9067  17.9325
    18.0050  18.2536  18.2847  18.3837  18.7869  18.9265  18.9376  19.3047
    19.4463  19.7811  20.7572  21.0410  21.6111  21.6386  21.8262  21.9709
    22.2304  22.2468  22.3301  22.6722  22.8652  23.0619  23.0697  23.3094
    23.3719  23.9741  24.1172  24.3653  24.6008  24.7964  24.8465  25.1334
    25.6693  26.2700  27.0363  27.1080  27.3901  27.4345  27.4526  27.6383
    27.8196  28.1224  28.1973  28.2643  28.3384  28.5396  28.9866  29.0518
    29.2156  29.3305  29.7149  29.8648  30.0006  30.1338  30.3894  30.7250
    30.9144  31.0549  31.2909  31.3071  31.4297  31.6401  31.8422  32.1539
    32.1933  32.3653  32.6419  33.1703  33.3812  33.7748  33.9532  34.1421
    34.3934  34.6432  34.7397  34.9091  35.1150  35.1581  35.6800  35.6805
    35.9106  35.9324  36.0804  36.5168  36.6594  36.7831  36.8507  36.9566
    37.3639  37.5816  37.6068  37.7264  37.8251  38.0789  38.0941  38.3795
    38.4361  38.6065  38.6140  38.8185  39.1036  39.2217  39.3507  39.4662
    39.6499  39.8207  40.0501  40.0948  40.3597  40.4029  40.4403  40.6693
    40.7391  40.7666  40.9234  41.0579  41.1460  41.2478  41.4219  41.5874
    41.7255  41.8322  41.8772  41.9006  41.9011  42.2104  42.3894  42.4374
    42.4430  42.5967  43.0528  43.0815  43.3550  43.5680  43.6167  43.6670

     occupation numbers 
     1.0000   1.0000   1.0000   1.0000   1.0000   1.0000   1.0000   1.0000
     1.0000   1.0000   1.0000   1.0000   1.0000   1.0000   1.0000   1.0000
     1.0000   1.0000   1.0000   1.0000   1.0000   1.0000   1.0000   1.0000
     1.0000   1.0000   1.0000   1.0000   1.0000   1.0000   1.0000   1.0000
     1.0000   1.0000   1.0000   1.0000   1.0000   1.0000   1.0000   1.0000
     1.0000   1.0000   1.0000   1.0000   1.0000   1.0000   1.0000   1.0000
     1.0000   1.0000   1.0000   1.0000   1.0000   1.0000   1.0000   1.0000
     1.0000   1.0000   1.0000   1.0000   1.0000   1.0000   1.0000   1.0000
     1.0000   1.0000   1.0000   1.0000   1.0000   1.0000   1.0000   1.0000
     1.0000   1.0000   1.0000   1.0000   1.0000   1.0000   1.0000   1.0000
     0.0000   0.0000   0.0000   0.0000   0.0000   0.0000   0.0000   0.0000
     0.0000   0.0000   0.0000   0.0000   0.0000   0.0000   0.0000   0.0000
     0.0000   0.0000   0.0000   0.0000   0.0000   0.0000   0.0000   0.0000
     0.0000   0.0000   0.0000   0.0000   0.0000   0.0000   0.0000   0.0000
     0.0000   0.0000   0.0000   0.0000   0.0000   0.0000   0.0000   0.0000
     0.0000   0.0000   0.0000   0.0000   0.0000   0.0000   0.0000   0.0000
     0.0000   0.0000   0.0000   0.0000   0.0000   0.0000   0.0000   0.0000
     0.0000   0.0000   0.0000   0.0000   0.0000   0.0000   0.0000   0.0000
     0.0000   0.0000   0.0000   0.0000   0.0000   0.0000   0.0000   0.0000
     0.0000   0.0000   0.0000   0.0000   0.0000   0.0000   0.0000   0.0000
     0.0000   0.0000   0.0000   0.0000   0.0000   0.0000   0.0000   0.0000
     0.0000   0.0000   0.0000   0.0000   0.0000   0.0000   0.0000   0.0000
     0.0000   0.0000   0.0000   0.0000   0.0000   0.0000   0.0000   0.0000
     0.0000   0.0000   0.0000   0.0000   0.0000   0.0000   0.0000   0.0000
     0.0000   0.0000   0.0000   0.0000   0.0000   0.0000   0.0000   0.0000
     0.0000   0.0000   0.0000   0.0000   0.0000   0.0000   0.0000   0.0000
     0.0000   0.0000   0.0000   0.0000   0.0000   0.0000   0.0000   0.0000
     0.0000   0.0000   0.0000   0.0000   0.0000   0.0000   0.0000   0.0000
     0.0000   0.0000   0.0000   0.0000   0.0000   0.0000   0.0000   0.0000
     0.0000   0.0000   0.0000   0.0000   0.0000   0.0000   0.0000   0.0000
     0.0000   0.0000   0.0000   0.0000   0.0000   0.0000   0.0000   0.0000
     0.0000   0.0000   0.0000   0.0000   0.0000   0.0000   0.0000   0.0000

          k = 0.0000 0.3496-0.1295 (  4987 PWs)   bands (ev):

   -63.3103 -63.3103 -63.3087 -63.3086 -37.1936 -37.1936 -37.1777 -37.1770
   -37.1693 -37.1683 -37.1662 -37.1660 -37.1600 -37.1591 -37.1379 -37.1378
   -20.0511 -20.0079 -19.7820 -19.6799 -19.6544 -19.6508 -19.6493 -19.6151
   -19.4437 -19.4232 -19.3734 -19.3696 -15.2005 -15.1998 -14.8941 -14.8929
    -3.0875  -3.0699  -3.0176  -2.9792  -2.8858  -2.8318  -2.7485  -2.7283
    -2.5029  -2.4493  -2.3265  -2.3025  -2.0706  -2.0209  -1.8345  -1.8308
    -1.8011  -1.7945  -1.6472  -1.6107  -1.6082  -1.4400  -1.4027  -1.3828
    -1.2354  -1.1705  -0.9542  -0.8392  -0.7373  -0.7309  -0.6144  -0.5834
    -0.4993  -0.4454  -0.3160  -0.2346  -0.0247  -0.0119   0.0425   0.1351
     0.2142   0.2159   0.3247   0.3807   0.4963   0.5680   0.7905   0.8025
     3.5567   3.5779   3.7137   3.7328   3.9800   3.9994   4.2624   4.2892
     4.6377   4.6422   4.8493   4.8656   5.5693   5.5955   6.1558   6.2133
     6.8712   6.8989   7.2459   7.2627  11.0244  11.5192  12.8529  13.5572
    13.6465  14.0830  14.9946  15.5886  15.7851  16.0080  16.1403  16.2865
    16.7642  16.8760  17.4883  17.5461  17.7017  17.7173  18.0728  18.0776
    18.5282  18.6120  18.7518  18.7947  19.0579  19.0987  19.3086  19.6585
    19.7342  20.0469  20.2176  20.2211  20.6700  20.9573  21.0026  21.4003
    21.4187  21.9686  22.2861  22.7102  22.7325  22.8588  23.4506  23.9770
    24.0220  24.2434  24.6839  24.8972  24.9708  25.0220  25.2595  25.2743
    25.3750  25.7773  26.3364  26.3633  27.0408  27.1867  27.5630  27.7645
    27.9924  28.2231  28.4940  28.7947  28.8009  29.0258  29.0485  29.3220
    29.4572  29.6932  30.0036  30.0109  30.2726  30.4935  30.7361  30.8237
    30.8716  31.1034  31.2938  31.4687  31.5362  31.7678  31.7788  32.1661
    32.1749  32.3577  32.7142  32.7745  33.3724  33.4931  33.5559  33.8870
    33.8883  34.3281  34.3995  34.4674  34.5941  34.7216  34.7892  35.0966
    35.3634  35.3660  35.6361  35.6818  36.4472  36.6946  36.8325  36.8430
    37.0201  37.2525  37.3680  37.7048  37.7254  37.9095  37.9506  38.0495
    38.3421  38.5123  38.7180  38.8698  38.8754  38.9296  39.1958  39.4329
    39.8146  39.8552  39.9969  40.1141  40.3145  40.4754  40.5375  40.7765
    40.8243  40.8621  40.9673  41.0745  41.4554  41.5305  41.5875  41.6530
    41.8770  41.9267  42.1471  42.1619  42.4650  42.5134  42.7903  42.8766
    43.0735  43.3415  43.4667  43.5499  43.6335  43.8789  44.1077  44.3251

     occupation numbers 
     1.0000   1.0000   1.0000   1.0000   1.0000   1.0000   1.0000   1.0000
     1.0000   1.0000   1.0000   1.0000   1.0000   1.0000   1.0000   1.0000
     1.0000   1.0000   1.0000   1.0000   1.0000   1.0000   1.0000   1.0000
     1.0000   1.0000   1.0000   1.0000   1.0000   1.0000   1.0000   1.0000
     1.0000   1.0000   1.0000   1.0000   1.0000   1.0000   1.0000   1.0000
     1.0000   1.0000   1.0000   1.0000   1.0000   1.0000   1.0000   1.0000
     1.0000   1.0000   1.0000   1.0000   1.0000   1.0000   1.0000   1.0000
     1.0000   1.0000   1.0000   1.0000   1.0000   1.0000   1.0000   1.0000
     1.0000   1.0000   1.0000   1.0000   1.0000   1.0000   1.0000   1.0000
     1.0000   1.0000   1.0000   1.0000   1.0000   1.0000   1.0000   1.0000
     0.0000   0.0000   0.0000   0.0000   0.0000   0.0000   0.0000   0.0000
     0.0000   0.0000   0.0000   0.0000   0.0000   0.0000   0.0000   0.0000
     0.0000   0.0000   0.0000   0.0000   0.0000   0.0000   0.0000   0.0000
     0.0000   0.0000   0.0000   0.0000   0.0000   0.0000   0.0000   0.0000
     0.0000   0.0000   0.0000   0.0000   0.0000   0.0000   0.0000   0.0000
     0.0000   0.0000   0.0000   0.0000   0.0000   0.0000   0.0000   0.0000
     0.0000   0.0000   0.0000   0.0000   0.0000   0.0000   0.0000   0.0000
     0.0000   0.0000   0.0000   0.0000   0.0000   0.0000   0.0000   0.0000
     0.0000   0.0000   0.0000   0.0000   0.0000   0.0000   0.0000   0.0000
     0.0000   0.0000   0.0000   0.0000   0.0000   0.0000   0.0000   0.0000
     0.0000   0.0000   0.0000   0.0000   0.0000   0.0000   0.0000   0.0000
     0.0000   0.0000   0.0000   0.0000   0.0000   0.0000   0.0000   0.0000
     0.0000   0.0000   0.0000   0.0000   0.0000   0.0000   0.0000   0.0000
     0.0000   0.0000   0.0000   0.0000   0.0000   0.0000   0.0000   0.0000
     0.0000   0.0000   0.0000   0.0000   0.0000   0.0000   0.0000   0.0000
     0.0000   0.0000   0.0000   0.0000   0.0000   0.0000   0.0000   0.0000
     0.0000   0.0000   0.0000   0.0000   0.0000   0.0000   0.0000   0.0000
     0.0000   0.0000   0.0000   0.0000   0.0000   0.0000   0.0000   0.0000
     0.0000   0.0000   0.0000   0.0000   0.0000   0.0000   0.0000   0.0000
     0.0000   0.0000   0.0000   0.0000   0.0000   0.0000   0.0000   0.0000
     0.0000   0.0000   0.0000   0.0000   0.0000   0.0000   0.0000   0.0000
     0.0000   0.0000   0.0000   0.0000   0.0000   0.0000   0.0000   0.0000

          k = 0.0000 0.3496 0.0041 (  4992 PWs)   bands (ev):

   -63.3103 -63.3103 -63.3087 -63.3087 -37.1941 -37.1936 -37.1775 -37.1773
   -37.1691 -37.1687 -37.1662 -37.1661 -37.1601 -37.1596 -37.1382 -37.1374
   -20.0465 -20.0152 -19.7659 -19.7067 -19.6543 -19.6512 -19.6340 -19.6179
   -19.4356 -19.4291 -19.3792 -19.3649 -15.2008 -15.1996 -14.8935 -14.8934
    -3.0901  -3.0640  -2.9997  -2.9879  -2.9166  -2.8059  -2.7511  -2.7463
    -2.4577  -2.4378  -2.3666  -2.3248  -2.0882  -2.0082  -1.8867  -1.7901
    -1.7683  -1.7615  -1.6631  -1.6310  -1.5545  -1.4965  -1.3922  -1.3761
    -1.2338  -1.1789  -0.9351  -0.8775  -0.7397  -0.7079  -0.6376  -0.5433
    -0.5164  -0.4620  -0.2849  -0.2714  -0.0278  -0.0058   0.0648   0.1211
     0.1821   0.2346   0.3361   0.3624   0.5351   0.5423   0.7938   0.7967
     3.5595   3.5712   3.7121   3.7345   3.9874   3.9913   4.2677   4.2835
     4.6383   4.6412   4.8531   4.8556   5.5629   5.6021   6.1796   6.1899
     6.8788   6.8930   7.2532   7.2553  10.8855  12.0742  12.1969  13.3917
    14.1722  14.3449  14.9145  15.0046  15.7872  16.1098  16.2399  16.3070
    16.8750  16.9781  17.3526  17.3571  17.7131  17.9348  18.0249  18.0775
    18.5134  18.6627  18.6755  18.8632  18.9152  19.0298  19.5026  19.6832
    19.7307  20.1273  20.2850  20.4928  20.5759  20.7604  20.9220  21.3685
    21.5385  21.7710  21.9731  22.4865  22.9156  23.1709  23.5312  23.6103
    24.1430  24.2662  24.5814  24.5995  24.9722  25.0996  25.2018  25.4346
    25.8470  26.1797  26.4326  26.9444  26.9665  27.1435  27.2239  27.7561
    27.9265  28.1007  28.2970  28.6800  28.7211  28.8772  28.9754  29.0276
    29.2618  29.9485  30.0066  30.0192  30.2250  30.3107  30.4470  30.6858
    30.9995  31.0549  31.2199  31.4313  31.6347  31.6807  31.9201  32.1952
    32.3579  32.6813  32.7969  33.1948  33.4916  33.5567  33.5975  33.9468
    34.0704  34.1688  34.3191  34.5839  34.7752  34.8142  35.0365  35.0541
    35.3433  35.6915  35.6924  36.0527  36.1090  36.2270  36.2675  36.8795
    37.0046  37.0992  37.1145  37.6378  37.8091  37.8563  37.9084  38.1378
    38.1526  38.3626  38.4512  38.6998  38.8342  39.0175  39.4913  39.6230
    39.7477  39.8308  39.8744  40.0095  40.2463  40.4364  40.5296  40.5938
    40.7242  40.8205  41.1727  41.1842  41.2182  41.6016  41.6264  41.6833
    41.8352  42.0279  42.0820  42.2936  42.3948  42.6004  42.6551  43.0898
    43.2686  43.3689  43.5264  43.8169  43.9030  44.0550  44.2666  44.3906

     occupation numbers 
     1.0000   1.0000   1.0000   1.0000   1.0000   1.0000   1.0000   1.0000
     1.0000   1.0000   1.0000   1.0000   1.0000   1.0000   1.0000   1.0000
     1.0000   1.0000   1.0000   1.0000   1.0000   1.0000   1.0000   1.0000
     1.0000   1.0000   1.0000   1.0000   1.0000   1.0000   1.0000   1.0000
     1.0000   1.0000   1.0000   1.0000   1.0000   1.0000   1.0000   1.0000
     1.0000   1.0000   1.0000   1.0000   1.0000   1.0000   1.0000   1.0000
     1.0000   1.0000   1.0000   1.0000   1.0000   1.0000   1.0000   1.0000
     1.0000   1.0000   1.0000   1.0000   1.0000   1.0000   1.0000   1.0000
     1.0000   1.0000   1.0000   1.0000   1.0000   1.0000   1.0000   1.0000
     1.0000   1.0000   1.0000   1.0000   1.0000   1.0000   1.0000   1.0000
     0.0000   0.0000   0.0000   0.0000   0.0000   0.0000   0.0000   0.0000
     0.0000   0.0000   0.0000   0.0000   0.0000   0.0000   0.0000   0.0000
     0.0000   0.0000   0.0000   0.0000   0.0000   0.0000   0.0000   0.0000
     0.0000   0.0000   0.0000   0.0000   0.0000   0.0000   0.0000   0.0000
     0.0000   0.0000   0.0000   0.0000   0.0000   0.0000   0.0000   0.0000
     0.0000   0.0000   0.0000   0.0000   0.0000   0.0000   0.0000   0.0000
     0.0000   0.0000   0.0000   0.0000   0.0000   0.0000   0.0000   0.0000
     0.0000   0.0000   0.0000   0.0000   0.0000   0.0000   0.0000   0.0000
     0.0000   0.0000   0.0000   0.0000   0.0000   0.0000   0.0000   0.0000
     0.0000   0.0000   0.0000   0.0000   0.0000   0.0000   0.0000   0.0000
     0.0000   0.0000   0.0000   0.0000   0.0000   0.0000   0.0000   0.0000
     0.0000   0.0000   0.0000   0.0000   0.0000   0.0000   0.0000   0.0000
     0.0000   0.0000   0.0000   0.0000   0.0000   0.0000   0.0000   0.0000
     0.0000   0.0000   0.0000   0.0000   0.0000   0.0000   0.0000   0.0000
     0.0000   0.0000   0.0000   0.0000   0.0000   0.0000   0.0000   0.0000
     0.0000   0.0000   0.0000   0.0000   0.0000   0.0000   0.0000   0.0000
     0.0000   0.0000   0.0000   0.0000   0.0000   0.0000   0.0000   0.0000
     0.0000   0.0000   0.0000   0.0000   0.0000   0.0000   0.0000   0.0000
     0.0000   0.0000   0.0000   0.0000   0.0000   0.0000   0.0000   0.0000
     0.0000   0.0000   0.0000   0.0000   0.0000   0.0000   0.0000   0.0000
     0.0000   0.0000   0.0000   0.0000   0.0000   0.0000   0.0000   0.0000
     0.0000   0.0000   0.0000   0.0000   0.0000   0.0000   0.0000   0.0000

          k = 0.0000 0.3496-0.2632 (  4995 PWs)   bands (ev):

   -63.3103 -63.3103 -63.3087 -63.3087 -37.1939 -37.1936 -37.1777 -37.1773
   -37.1691 -37.1689 -37.1663 -37.1659 -37.1602 -37.1597 -37.1379 -37.1378
   -20.0374 -20.0261 -19.7538 -19.7197 -19.6537 -19.6506 -19.6303 -19.6199
   -19.4452 -19.4167 -19.3836 -19.3639 -15.2012 -15.1993 -14.8940 -14.8929
    -3.0865  -3.0767  -3.0145  -2.9838  -2.8827  -2.8347  -2.7452  -2.7359
    -2.4762  -2.4333  -2.3668  -2.3308  -2.0970  -1.9569  -1.8809  -1.7678
    -1.7623  -1.7361  -1.7216  -1.6232  -1.6011  -1.5535  -1.3973  -1.2843
    -1.2665  -1.2055  -0.9102  -0.8671  -0.7409  -0.6974  -0.6388  -0.5762
    -0.4774  -0.4747  -0.3163  -0.2249  -0.0311  -0.0195   0.0689   0.1125
     0.1883   0.2402   0.3304   0.3604   0.4948   0.5770   0.7877   0.7999
     3.5484   3.5845   3.7223   3.7232   3.9801   3.9966   4.2704   4.2827
     4.6369   4.6397   4.8494   4.8617   5.5493   5.6165   6.1620   6.2083
     6.8792   6.8914   7.2468   7.2631  11.0623  11.4485  12.9531  13.5437
    13.6305  14.0339  14.9490  15.5491  15.8033  15.9960  16.3925  16.4144
    16.4454  17.0070  17.3914  17.4883  17.5492  17.8135  18.0331  18.3110
    18.4963  18.6012  18.7252  18.7893  18.9276  19.1968  19.4370  19.5472
    19.7900  19.8157  20.2025  20.3488  20.7454  21.0354  21.0446  21.3272
    21.4418  21.8781  22.2862  22.6343  22.8034  23.0824  23.1849  23.9819
    23.9951  24.2098  24.6402  24.6902  24.8892  25.1846  25.1903  25.6054
    25.6095  25.9077  26.0765  26.3556  27.0762  27.1117  27.5588  27.8922
    27.8949  28.0765  28.4554  28.7721  28.8986  28.9825  29.1548  29.2757
    29.3505  29.8732  30.0636  30.2183  30.2355  30.4152  30.5124  30.7041
    31.0325  31.0888  31.3561  31.3909  31.4347  31.7188  31.7645  32.0034
    32.3424  32.4774  32.5419  32.9537  33.1925  33.7041  33.8308  33.8719
    34.0813  34.1177  34.3357  34.4917  34.6655  34.8000  34.8340  34.8599
    34.9895  35.2450  35.4423  35.8236  36.4733  36.6597  36.8456  37.0515
    37.3079  37.4015  37.5231  37.6366  37.7709  38.0590  38.0617  38.1046
    38.1403  38.2950  38.7499  38.8161  38.9752  39.1549  39.1629  39.4522
    39.6204  39.7569  39.8022  40.1977  40.2163  40.2384  40.4447  40.5738
    40.7924  40.7946  41.0303  41.1701  41.2985  41.3291  41.6244  41.6955
    41.6993  42.0368  42.3555  42.3615  42.5016  42.6736  42.7469  42.9911
    43.0367  43.2035  43.4744  43.5331  43.9813  44.1168  44.2225  44.3795

     occupation numbers 
     1.0000   1.0000   1.0000   1.0000   1.0000   1.0000   1.0000   1.0000
     1.0000   1.0000   1.0000   1.0000   1.0000   1.0000   1.0000   1.0000
     1.0000   1.0000   1.0000   1.0000   1.0000   1.0000   1.0000   1.0000
     1.0000   1.0000   1.0000   1.0000   1.0000   1.0000   1.0000   1.0000
     1.0000   1.0000   1.0000   1.0000   1.0000   1.0000   1.0000   1.0000
     1.0000   1.0000   1.0000   1.0000   1.0000   1.0000   1.0000   1.0000
     1.0000   1.0000   1.0000   1.0000   1.0000   1.0000   1.0000   1.0000
     1.0000   1.0000   1.0000   1.0000   1.0000   1.0000   1.0000   1.0000
     1.0000   1.0000   1.0000   1.0000   1.0000   1.0000   1.0000   1.0000
     1.0000   1.0000   1.0000   1.0000   1.0000   1.0000   1.0000   1.0000
     0.0000   0.0000   0.0000   0.0000   0.0000   0.0000   0.0000   0.0000
     0.0000   0.0000   0.0000   0.0000   0.0000   0.0000   0.0000   0.0000
     0.0000   0.0000   0.0000   0.0000   0.0000   0.0000   0.0000   0.0000
     0.0000   0.0000   0.0000   0.0000   0.0000   0.0000   0.0000   0.0000
     0.0000   0.0000   0.0000   0.0000   0.0000   0.0000   0.0000   0.0000
     0.0000   0.0000   0.0000   0.0000   0.0000   0.0000   0.0000   0.0000
     0.0000   0.0000   0.0000   0.0000   0.0000   0.0000   0.0000   0.0000
     0.0000   0.0000   0.0000   0.0000   0.0000   0.0000   0.0000   0.0000
     0.0000   0.0000   0.0000   0.0000   0.0000   0.0000   0.0000   0.0000
     0.0000   0.0000   0.0000   0.0000   0.0000   0.0000   0.0000   0.0000
     0.0000   0.0000   0.0000   0.0000   0.0000   0.0000   0.0000   0.0000
     0.0000   0.0000   0.0000   0.0000   0.0000   0.0000   0.0000   0.0000
     0.0000   0.0000   0.0000   0.0000   0.0000   0.0000   0.0000   0.0000
     0.0000   0.0000   0.0000   0.0000   0.0000   0.0000   0.0000   0.0000
     0.0000   0.0000   0.0000   0.0000   0.0000   0.0000   0.0000   0.0000
     0.0000   0.0000   0.0000   0.0000   0.0000   0.0000   0.0000   0.0000
     0.0000   0.0000   0.0000   0.0000   0.0000   0.0000   0.0000   0.0000
     0.0000   0.0000   0.0000   0.0000   0.0000   0.0000   0.0000   0.0000
     0.0000   0.0000   0.0000   0.0000   0.0000   0.0000   0.0000   0.0000
     0.0000   0.0000   0.0000   0.0000   0.0000   0.0000   0.0000   0.0000
     0.0000   0.0000   0.0000   0.0000   0.0000   0.0000   0.0000   0.0000
     0.0000   0.0000   0.0000   0.0000   0.0000   0.0000   0.0000   0.0000

          k = 0.3333 0.0000 0.0000 (  5020 PWs)   bands (ev):

   -63.3102 -63.3101 -63.3090 -63.3090 -37.1907 -37.1896 -37.1798 -37.1790
   -37.1739 -37.1736 -37.1721 -37.1717 -37.1501 -37.1498 -37.1401 -37.1399
   -20.0087 -19.9686 -19.8083 -19.7738 -19.6771 -19.6732 -19.6248 -19.6092
   -19.4195 -19.4030 -19.3890 -19.3652 -15.1130 -15.1104 -14.9765 -14.9744
    -3.0894  -3.0486  -3.0171  -2.9893  -2.8099  -2.7077  -2.6334  -2.5755
    -2.5655  -2.5444  -2.2659  -2.2180  -2.1906  -2.1212  -1.9287  -1.8703
    -1.7686  -1.7510  -1.6239  -1.5709  -1.5494  -1.4094  -1.3621  -1.2174
    -1.1803  -1.1445  -1.0432  -0.9720  -0.8488  -0.7489  -0.6708  -0.5987
    -0.4311  -0.3765  -0.3748  -0.3119  -0.1776  -0.1614  -0.0789  -0.0253
     0.1912   0.2524   0.3428   0.4273   0.6018   0.6544   0.6609   0.6736
     3.6195   3.6517   3.7230   3.7594   4.1691   4.2264   4.4044   4.4271
     4.5429   4.5685   4.6337   4.6516   5.6553   5.6803   5.9946   6.0452
     6.8661   6.9237   7.1795   7.2114  10.8117  12.0014  12.1376  13.1425
    13.9672  14.3998  14.7145  14.8610  16.1271  16.1700  16.6921  17.0892
    17.1594  17.3617  17.4379  17.5208  17.5433  17.8316  18.0116  18.0766
    18.1126  18.3703  18.6447  18.7713  19.0252  19.0628  19.1821  19.2757
    19.6414  19.9311  20.1393  20.3836  20.6298  21.5457  21.5621  21.5666
    21.8300  21.9312  22.3399  22.7031  22.8120  22.9009  23.5118  23.7087
    23.8317  24.0349  24.2691  24.4227  24.6773  24.9891  25.1755  25.3532
    26.0489  26.0926  26.3096  26.8844  26.9190  27.0517  27.4540  27.6710
    27.8010  27.8290  28.0991  28.5394  28.6521  28.7710  28.9794  29.1328
    29.3618  29.4362  29.7600  30.1599  30.2924  30.4533  30.5230  30.5939
    31.0805  31.1157  31.3133  31.5001  31.7610  31.9629  32.2264  32.3117
    32.4098  32.5430  32.6871  32.7916  32.8146  33.0010  33.5955  33.6957
    33.9403  34.2571  34.5361  34.8399  34.9268  35.0457  35.3388  35.4705
    35.8045  35.8560  35.8629  36.1995  36.4132  36.4399  36.7921  36.7983
    36.9387  37.0277  37.2033  37.5827  37.6342  37.9563  38.1492  38.3645
    38.4658  38.5028  38.6287  39.0629  39.0941  39.3540  39.4173  39.4555
    39.6098  39.8947  40.0811  40.1232  40.5149  40.6573  40.6607  40.7716
    40.8965  41.1795  41.2226  41.2722  41.4036  41.6791  41.6968  41.9179
    42.0654  42.2548  42.3791  42.3838  42.4607  42.6583  43.0576  43.1523
    43.3011  43.5001  43.5522  43.6926  43.7842  43.8442  44.1551  44.4365

     occupation numbers 
     1.0000   1.0000   1.0000   1.0000   1.0000   1.0000   1.0000   1.0000
     1.0000   1.0000   1.0000   1.0000   1.0000   1.0000   1.0000   1.0000
     1.0000   1.0000   1.0000   1.0000   1.0000   1.0000   1.0000   1.0000
     1.0000   1.0000   1.0000   1.0000   1.0000   1.0000   1.0000   1.0000
     1.0000   1.0000   1.0000   1.0000   1.0000   1.0000   1.0000   1.0000
     1.0000   1.0000   1.0000   1.0000   1.0000   1.0000   1.0000   1.0000
     1.0000   1.0000   1.0000   1.0000   1.0000   1.0000   1.0000   1.0000
     1.0000   1.0000   1.0000   1.0000   1.0000   1.0000   1.0000   1.0000
     1.0000   1.0000   1.0000   1.0000   1.0000   1.0000   1.0000   1.0000
     1.0000   1.0000   1.0000   1.0000   1.0000   1.0000   1.0000   1.0000
     0.0000   0.0000   0.0000   0.0000   0.0000   0.0000   0.0000   0.0000
     0.0000   0.0000   0.0000   0.0000   0.0000   0.0000   0.0000   0.0000
     0.0000   0.0000   0.0000   0.0000   0.0000   0.0000   0.0000   0.0000
     0.0000   0.0000   0.0000   0.0000   0.0000   0.0000   0.0000   0.0000
     0.0000   0.0000   0.0000   0.0000   0.0000   0.0000   0.0000   0.0000
     0.0000   0.0000   0.0000   0.0000   0.0000   0.0000   0.0000   0.0000
     0.0000   0.0000   0.0000   0.0000   0.0000   0.0000   0.0000   0.0000
     0.0000   0.0000   0.0000   0.0000   0.0000   0.0000   0.0000   0.0000
     0.0000   0.0000   0.0000   0.0000   0.0000   0.0000   0.0000   0.0000
     0.0000   0.0000   0.0000   0.0000   0.0000   0.0000   0.0000   0.0000
     0.0000   0.0000   0.0000   0.0000   0.0000   0.0000   0.0000   0.0000
     0.0000   0.0000   0.0000   0.0000   0.0000   0.0000   0.0000   0.0000
     0.0000   0.0000   0.0000   0.0000   0.0000   0.0000   0.0000   0.0000
     0.0000   0.0000   0.0000   0.0000   0.0000   0.0000   0.0000   0.0000
     0.0000   0.0000   0.0000   0.0000   0.0000   0.0000   0.0000   0.0000
     0.0000   0.0000   0.0000   0.0000   0.0000   0.0000   0.0000   0.0000
     0.0000   0.0000   0.0000   0.0000   0.0000   0.0000   0.0000   0.0000
     0.0000   0.0000   0.0000   0.0000   0.0000   0.0000   0.0000   0.0000
     0.0000   0.0000   0.0000   0.0000   0.0000   0.0000   0.0000   0.0000
     0.0000   0.0000   0.0000   0.0000   0.0000   0.0000   0.0000   0.0000
     0.0000   0.0000   0.0000   0.0000   0.0000   0.0000   0.0000   0.0000
     0.0000   0.0000   0.0000   0.0000   0.0000   0.0000   0.0000   0.0000

          k = 0.3333 0.0000 0.1336 (  5035 PWs)   bands (ev):

   -63.3102 -63.3102 -63.3091 -63.3090 -37.1906 -37.1899 -37.1800 -37.1798
   -37.1742 -37.1740 -37.1722 -37.1715 -37.1505 -37.1502 -37.1404 -37.1402
   -20.0002 -19.9805 -19.7974 -19.7805 -19.6773 -19.6739 -19.6216 -19.6135
   -19.4166 -19.4093 -19.3808 -19.3697 -15.1124 -15.1111 -14.9761 -14.9751
    -3.0852  -3.0650  -3.0078  -2.9960  -2.7698  -2.6993  -2.6458  -2.5946
    -2.5692  -2.5529  -2.2843  -2.2658  -2.1575  -2.1346  -1.8925  -1.8501
    -1.8114  -1.7711  -1.5923  -1.5710  -1.5287  -1.4385  -1.3137  -1.2522
    -1.1452  -1.1296  -1.0524  -1.0189  -0.8238  -0.7792  -0.6574  -0.6171
    -0.4318  -0.4199  -0.3447  -0.3178  -0.1767  -0.1657  -0.0605  -0.0321
     0.2030   0.2349   0.3685   0.4070   0.6124   0.6366   0.6668   0.6717
     3.6246   3.6398   3.7326   3.7512   4.1817   4.2100   4.4097   4.4204
     4.5495   4.5622   4.6387   4.6468   5.6606   5.6727   6.0058   6.0313
     6.8782   6.9069   7.1864   7.2010  10.9677  11.4068  12.8705  13.2506
    13.6380  13.8247  14.8514  15.5028  15.7665  16.5153  16.6725  16.9083
    17.1252  17.1963  17.3425  17.5976  17.6684  17.8724  17.9434  18.0103
    18.3076  18.4230  18.5540  18.6869  18.8546  19.0938  19.2078  19.2726
    19.6377  19.7302  20.2738  20.5392  21.0906  21.3227  21.5778  21.6582
    21.7643  21.9892  22.3094  22.4389  22.6807  22.8197  23.3403  23.7246
    24.0075  24.1231  24.3618  24.5998  24.8198  24.9373  25.2573  25.5314
    25.6849  26.2487  26.4927  26.7211  26.7924  26.9799  27.1424  27.4287
    27.6386  27.6875  28.1343  28.2503  28.7386  28.9465  29.1167  29.1810
    29.3823  29.6320  29.9920  30.1638  30.2971  30.4145  30.7646  30.9575
    31.1342  31.2198  31.3846  31.4862  31.6890  31.7895  32.0911  32.3060
    32.4913  32.7230  32.8078  32.9465  32.9861  33.1687  33.5238  33.8002
    33.9331  34.0047  34.3841  34.4526  34.6946  34.9055  34.9881  35.1669
    35.2931  35.5612  35.8065  36.1381  36.2302  36.3902  36.5770  36.7572
    37.0000  37.1008  37.5013  37.6202  37.9520  38.1047  38.2382  38.4426
    38.7071  38.7977  38.9771  39.1022  39.2008  39.4872  39.5664  39.7180
    39.9339  40.0677  40.1574  40.3533  40.3813  40.5956  40.8042  40.8425
    40.9498  40.9748  41.1525  41.2204  41.4807  41.5558  41.6398  41.8371
    41.8737  42.1557  42.2383  42.4739  42.7378  42.8493  42.9247  43.0543
    43.1834  43.3483  43.5919  43.6383  43.6705  43.9902  44.0787  44.1228

     occupation numbers 
     1.0000   1.0000   1.0000   1.0000   1.0000   1.0000   1.0000   1.0000
     1.0000   1.0000   1.0000   1.0000   1.0000   1.0000   1.0000   1.0000
     1.0000   1.0000   1.0000   1.0000   1.0000   1.0000   1.0000   1.0000
     1.0000   1.0000   1.0000   1.0000   1.0000   1.0000   1.0000   1.0000
     1.0000   1.0000   1.0000   1.0000   1.0000   1.0000   1.0000   1.0000
     1.0000   1.0000   1.0000   1.0000   1.0000   1.0000   1.0000   1.0000
     1.0000   1.0000   1.0000   1.0000   1.0000   1.0000   1.0000   1.0000
     1.0000   1.0000   1.0000   1.0000   1.0000   1.0000   1.0000   1.0000
     1.0000   1.0000   1.0000   1.0000   1.0000   1.0000   1.0000   1.0000
     1.0000   1.0000   1.0000   1.0000   1.0000   1.0000   1.0000   1.0000
     0.0000   0.0000   0.0000   0.0000   0.0000   0.0000   0.0000   0.0000
     0.0000   0.0000   0.0000   0.0000   0.0000   0.0000   0.0000   0.0000
     0.0000   0.0000   0.0000   0.0000   0.0000   0.0000   0.0000   0.0000
     0.0000   0.0000   0.0000   0.0000   0.0000   0.0000   0.0000   0.0000
     0.0000   0.0000   0.0000   0.0000   0.0000   0.0000   0.0000   0.0000
     0.0000   0.0000   0.0000   0.0000   0.0000   0.0000   0.0000   0.0000
     0.0000   0.0000   0.0000   0.0000   0.0000   0.0000   0.0000   0.0000
     0.0000   0.0000   0.0000   0.0000   0.0000   0.0000   0.0000   0.0000
     0.0000   0.0000   0.0000   0.0000   0.0000   0.0000   0.0000   0.0000
     0.0000   0.0000   0.0000   0.0000   0.0000   0.0000   0.0000   0.0000
     0.0000   0.0000   0.0000   0.0000   0.0000   0.0000   0.0000   0.0000
     0.0000   0.0000   0.0000   0.0000   0.0000   0.0000   0.0000   0.0000
     0.0000   0.0000   0.0000   0.0000   0.0000   0.0000   0.0000   0.0000
     0.0000   0.0000   0.0000   0.0000   0.0000   0.0000   0.0000   0.0000
     0.0000   0.0000   0.0000   0.0000   0.0000   0.0000   0.0000   0.0000
     0.0000   0.0000   0.0000   0.0000   0.0000   0.0000   0.0000   0.0000
     0.0000   0.0000   0.0000   0.0000   0.0000   0.0000   0.0000   0.0000
     0.0000   0.0000   0.0000   0.0000   0.0000   0.0000   0.0000   0.0000
     0.0000   0.0000   0.0000   0.0000   0.0000   0.0000   0.0000   0.0000
     0.0000   0.0000   0.0000   0.0000   0.0000   0.0000   0.0000   0.0000
     0.0000   0.0000   0.0000   0.0000   0.0000   0.0000   0.0000   0.0000
     0.0000   0.0000   0.0000   0.0000   0.0000   0.0000   0.0000   0.0000

          k = 0.3333 0.3496-0.1295 (  5002 PWs)   bands (ev):

   -63.3099 -63.3098 -63.3092 -63.3091 -37.1906 -37.1902 -37.1820 -37.1815
   -37.1733 -37.1723 -37.1703 -37.1696 -37.1494 -37.1489 -37.1406 -37.1401
   -19.9571 -19.9257 -19.7970 -19.7693 -19.6827 -19.6715 -19.6396 -19.6196
   -19.4347 -19.4223 -19.3928 -19.3867 -15.1270 -15.1262 -14.9736 -14.9726
    -3.1590  -3.1384  -3.0792  -3.0436  -2.8185  -2.7746  -2.6360  -2.5420
    -2.5287  -2.3926  -2.2763  -2.2661  -2.1445  -2.1292  -2.0711  -1.8922
    -1.7796  -1.7596  -1.6675  -1.5957  -1.5343  -1.5278  -1.3270  -1.2272
    -1.1267  -1.1016  -0.9544  -0.8580  -0.7848  -0.7244  -0.6651  -0.6512
    -0.4385  -0.3762  -0.2230  -0.1668  -0.1297  -0.0893  -0.0444   0.0207
     0.2267   0.2450   0.3386   0.3897   0.5760   0.5882   0.6029   0.6261
     3.6524   3.6803   3.7391   3.7851   4.1249   4.1284   4.3552   4.3756
     4.5975   4.6022   4.6471   4.6614   5.7443   5.8072   6.1147   6.1643
     6.7391   6.7490   7.0370   7.0484  11.9240  12.3317  13.5401  13.9432
    14.1200  14.2230  14.3618  14.6244  15.3734  15.5420  15.6476  15.8520
    16.0790  16.2012  16.3293  16.9152  17.0401  17.5317  17.7369  18.0896
    18.3477  18.4618  18.6008  19.0301  19.4870  19.6159  19.7859  20.1207
    20.1727  20.7350  20.8552  21.1353  21.3137  21.6700  21.7698  21.8729
    22.2924  22.5161  22.5507  22.8378  22.9919  23.0634  23.2200  23.5036
    23.8321  23.9755  24.1029  24.6104  24.6868  24.9079  24.9800  25.3420
    25.7806  25.8485  26.0345  26.2391  26.7010  26.9480  27.0220  27.4184
    27.4779  27.5417  27.6547  27.9201  28.1274  28.4349  28.5810  29.1153
    29.1501  29.4146  29.8185  29.9394  30.1763  30.2811  30.6160  30.7812
    31.0279  31.2818  31.4096  31.6423  31.9531  32.0121  32.0481  32.4456
    32.6082  32.7977  32.9751  33.1553  33.3689  33.4908  33.7276  34.1072
    34.3251  34.4911  34.6426  34.7781  34.8408  35.0496  35.2163  35.3723
    35.4823  35.7625  35.8955  35.9554  36.1195  36.3796  36.5216  36.6352
    36.9540  37.1232  37.3529  37.5256  37.5599  37.8663  37.9913  38.0372
    38.1220  38.3662  38.6844  38.7926  38.8569  38.9635  39.1116  39.5484
    39.7238  39.7942  39.9866  40.0716  40.2645  40.3544  40.6743  40.8034
    41.2630  41.4324  41.4698  41.5386  41.6212  41.8659  41.9247  42.0865
    42.2728  42.3131  42.4775  42.6188  42.9736  43.0656  43.0805  43.1184
    43.3293  43.5085  43.6206  43.7242  43.8660  43.9984  44.0863  44.3185

     occupation numbers 
     1.0000   1.0000   1.0000   1.0000   1.0000   1.0000   1.0000   1.0000
     1.0000   1.0000   1.0000   1.0000   1.0000   1.0000   1.0000   1.0000
     1.0000   1.0000   1.0000   1.0000   1.0000   1.0000   1.0000   1.0000
     1.0000   1.0000   1.0000   1.0000   1.0000   1.0000   1.0000   1.0000
     1.0000   1.0000   1.0000   1.0000   1.0000   1.0000   1.0000   1.0000
     1.0000   1.0000   1.0000   1.0000   1.0000   1.0000   1.0000   1.0000
     1.0000   1.0000   1.0000   1.0000   1.0000   1.0000   1.0000   1.0000
     1.0000   1.0000   1.0000   1.0000   1.0000   1.0000   1.0000   1.0000
     1.0000   1.0000   1.0000   1.0000   1.0000   1.0000   1.0000   1.0000
     1.0000   1.0000   1.0000   1.0000   1.0000   1.0000   1.0000   1.0000
     0.0000   0.0000   0.0000   0.0000   0.0000   0.0000   0.0000   0.0000
     0.0000   0.0000   0.0000   0.0000   0.0000   0.0000   0.0000   0.0000
     0.0000   0.0000   0.0000   0.0000   0.0000   0.0000   0.0000   0.0000
     0.0000   0.0000   0.0000   0.0000   0.0000   0.0000   0.0000   0.0000
     0.0000   0.0000   0.0000   0.0000   0.0000   0.0000   0.0000   0.0000
     0.0000   0.0000   0.0000   0.0000   0.0000   0.0000   0.0000   0.0000
     0.0000   0.0000   0.0000   0.0000   0.0000   0.0000   0.0000   0.0000
     0.0000   0.0000   0.0000   0.0000   0.0000   0.0000   0.0000   0.0000
     0.0000   0.0000   0.0000   0.0000   0.0000   0.0000   0.0000   0.0000
     0.0000   0.0000   0.0000   0.0000   0.0000   0.0000   0.0000   0.0000
     0.0000   0.0000   0.0000   0.0000   0.0000   0.0000   0.0000   0.0000
     0.0000   0.0000   0.0000   0.0000   0.0000   0.0000   0.0000   0.0000
     0.0000   0.0000   0.0000   0.0000   0.0000   0.0000   0.0000   0.0000
     0.0000   0.0000   0.0000   0.0000   0.0000   0.0000   0.0000   0.0000
     0.0000   0.0000   0.0000   0.0000   0.0000   0.0000   0.0000   0.0000
     0.0000   0.0000   0.0000   0.0000   0.0000   0.0000   0.0000   0.0000
     0.0000   0.0000   0.0000   0.0000   0.0000   0.0000   0.0000   0.0000
     0.0000   0.0000   0.0000   0.0000   0.0000   0.0000   0.0000   0.0000
     0.0000   0.0000   0.0000   0.0000   0.0000   0.0000   0.0000   0.0000
     0.0000   0.0000   0.0000   0.0000   0.0000   0.0000   0.0000   0.0000
     0.0000   0.0000   0.0000   0.0000   0.0000   0.0000   0.0000   0.0000
     0.0000   0.0000   0.0000   0.0000   0.0000   0.0000   0.0000   0.0000

          k = 0.3333 0.3496 0.0041 (  5006 PWs)   bands (ev):

   -63.3100 -63.3098 -63.3092 -63.3091 -37.1907 -37.1904 -37.1825 -37.1814
   -37.1736 -37.1723 -37.1705 -37.1697 -37.1494 -37.1489 -37.1407 -37.1399
   -19.9538 -19.9309 -19.7899 -19.7735 -19.6819 -19.6766 -19.6321 -19.6247
   -19.4344 -19.4202 -19.3975 -19.3842 -15.1273 -15.1259 -14.9737 -14.9727
    -3.1651  -3.1285  -3.0732  -3.0538  -2.8126  -2.7809  -2.6397  -2.5490
    -2.5224  -2.3845  -2.3243  -2.2401  -2.1566  -2.1091  -2.0589  -1.8739
    -1.7920  -1.7488  -1.6840  -1.6248  -1.5550  -1.4578  -1.3024  -1.2607
    -1.1783  -1.0587  -0.9469  -0.8852  -0.7810  -0.7222  -0.6918  -0.6449
    -0.4341  -0.3530  -0.2329  -0.1771  -0.1104  -0.0963  -0.0248   0.0083
     0.2191   0.2388   0.3541   0.3787   0.5711   0.5821   0.6115   0.6191
     3.6503   3.6795   3.7527   3.7714   4.1187   4.1343   4.3605   4.3708
     4.5939   4.6057   4.6508   4.6554   5.7387   5.8137   6.1275   6.1493
     6.7392   6.7506   7.0256   7.0598  11.8006  12.7476  13.0296  13.8230
    14.0815  14.5080  14.6723  14.9424  15.0459  15.3314  15.4544  15.6942
    16.2796  16.3245  16.4460  16.8226  17.2187  17.2293  17.8123  18.0481
    18.2353  18.5508  18.8496  18.8850  19.5230  19.7089  19.9524  20.1128
    20.2701  20.5224  20.7677  21.1498  21.4619  21.5603  21.6566  21.7734
    22.2089  22.2707  22.4266  22.5610  22.9170  23.3376  23.4701  23.6836
    23.7902  24.2724  24.5426  24.6141  24.8330  24.9346  25.0257  25.1679
    25.4708  25.6645  25.9907  26.1560  26.8337  26.9298  27.0203  27.2932
    27.5218  27.5608  27.7979  27.8934  28.1682  28.3551  28.6167  28.8239
    29.3685  29.4820  29.5166  29.7244  30.1734  30.3483  30.5148  30.9086
    30.9966  31.3113  31.5578  31.6343  31.8546  32.1792  32.3326  32.5236
    32.5764  32.7848  32.9474  33.0377  33.5057  33.6595  33.8761  34.0786
    34.2339  34.2652  34.5021  34.7367  34.7845  34.9788  35.1932  35.4018
    35.6242  35.7400  35.8946  36.0795  36.1501  36.3466  36.4789  36.7835
    36.8894  37.1861  37.2673  37.5143  37.5734  37.6936  37.8775  38.1270
    38.1811  38.3816  38.4965  38.8422  38.8893  39.0457  39.3007  39.4412
    39.5527  39.9895  40.0255  40.1425  40.3197  40.3359  40.7162  40.9096
    41.0469  41.2852  41.3868  41.5273  41.6738  41.7994  41.8378  41.9263
    42.3001  42.3219  42.5310  42.7632  42.8323  42.9621  43.0635  43.1161
    43.3468  43.4143  43.5747  43.7006  43.9179  44.0700  44.2215  44.4175

     occupation numbers 
     1.0000   1.0000   1.0000   1.0000   1.0000   1.0000   1.0000   1.0000
     1.0000   1.0000   1.0000   1.0000   1.0000   1.0000   1.0000   1.0000
     1.0000   1.0000   1.0000   1.0000   1.0000   1.0000   1.0000   1.0000
     1.0000   1.0000   1.0000   1.0000   1.0000   1.0000   1.0000   1.0000
     1.0000   1.0000   1.0000   1.0000   1.0000   1.0000   1.0000   1.0000
     1.0000   1.0000   1.0000   1.0000   1.0000   1.0000   1.0000   1.0000
     1.0000   1.0000   1.0000   1.0000   1.0000   1.0000   1.0000   1.0000
     1.0000   1.0000   1.0000   1.0000   1.0000   1.0000   1.0000   1.0000
     1.0000   1.0000   1.0000   1.0000   1.0000   1.0000   1.0000   1.0000
     1.0000   1.0000   1.0000   1.0000   1.0000   1.0000   1.0000   1.0000
     0.0000   0.0000   0.0000   0.0000   0.0000   0.0000   0.0000   0.0000
     0.0000   0.0000   0.0000   0.0000   0.0000   0.0000   0.0000   0.0000
     0.0000   0.0000   0.0000   0.0000   0.0000   0.0000   0.0000   0.0000
     0.0000   0.0000   0.0000   0.0000   0.0000   0.0000   0.0000   0.0000
     0.0000   0.0000   0.0000   0.0000   0.0000   0.0000   0.0000   0.0000
     0.0000   0.0000   0.0000   0.0000   0.0000   0.0000   0.0000   0.0000
     0.0000   0.0000   0.0000   0.0000   0.0000   0.0000   0.0000   0.0000
     0.0000   0.0000   0.0000   0.0000   0.0000   0.0000   0.0000   0.0000
     0.0000   0.0000   0.0000   0.0000   0.0000   0.0000   0.0000   0.0000
     0.0000   0.0000   0.0000   0.0000   0.0000   0.0000   0.0000   0.0000
     0.0000   0.0000   0.0000   0.0000   0.0000   0.0000   0.0000   0.0000
     0.0000   0.0000   0.0000   0.0000   0.0000   0.0000   0.0000   0.0000
     0.0000   0.0000   0.0000   0.0000   0.0000   0.0000   0.0000   0.0000
     0.0000   0.0000   0.0000   0.0000   0.0000   0.0000   0.0000   0.0000
     0.0000   0.0000   0.0000   0.0000   0.0000   0.0000   0.0000   0.0000
     0.0000   0.0000   0.0000   0.0000   0.0000   0.0000   0.0000   0.0000
     0.0000   0.0000   0.0000   0.0000   0.0000   0.0000   0.0000   0.0000
     0.0000   0.0000   0.0000   0.0000   0.0000   0.0000   0.0000   0.0000
     0.0000   0.0000   0.0000   0.0000   0.0000   0.0000   0.0000   0.0000
     0.0000   0.0000   0.0000   0.0000   0.0000   0.0000   0.0000   0.0000
     0.0000   0.0000   0.0000   0.0000   0.0000   0.0000   0.0000   0.0000
     0.0000   0.0000   0.0000   0.0000   0.0000   0.0000   0.0000   0.0000

          k = 0.3333 0.3496-0.2632 (  5010 PWs)   bands (ev):

   -63.3100 -63.3099 -63.3092 -63.3091 -37.1908 -37.1902 -37.1823 -37.1816
   -37.1734 -37.1730 -37.1704 -37.1698 -37.1495 -37.1489 -37.1407 -37.1402
   -19.9474 -19.9385 -19.7866 -19.7756 -19.6814 -19.6761 -19.6349 -19.6230
   -19.4376 -19.4106 -19.4056 -19.3825 -15.1277 -15.1256 -14.9740 -14.9722
    -3.1565  -3.1375  -3.0852  -3.0398  -2.8276  -2.7710  -2.6428  -2.5673
    -2.5107  -2.3883  -2.2914  -2.2533  -2.1660  -2.1021  -2.0461  -1.8889
    -1.7999  -1.7207  -1.6947  -1.6243  -1.5668  -1.4957  -1.3354  -1.2356
    -1.1537  -1.0500  -0.9625  -0.8502  -0.7573  -0.7522  -0.6800  -0.6434
    -0.4211  -0.3839  -0.2081  -0.1944  -0.1196  -0.0974  -0.0325   0.0184
     0.2290   0.2335   0.3238   0.3971   0.5664   0.5809   0.6107   0.6292
     3.6511   3.6805   3.7397   3.7810   4.1181   4.1359   4.3592   4.3730
     4.5961   4.6055   4.6456   4.6589   5.7313   5.8184   6.1266   6.1520
     6.7388   6.7486   7.0242   7.0603  11.9442  12.2931  13.5749  13.9020
    14.2120  14.2281  14.3499  14.5905  15.3175  15.3930  15.8017  15.9339
    16.0375  16.0762  16.4087  17.0399  17.0782  17.4828  17.7418  17.8723
    18.2641  18.5087  18.6266  19.1937  19.5386  19.6870  19.8238  20.0489
    20.1714  20.6475  20.9164  21.0270  21.1750  21.6829  21.7223  22.0794
    22.1690  22.3535  22.5779  22.9346  23.0822  23.2296  23.3420  23.4956
    23.7173  23.8958  24.1143  24.4977  24.8093  24.9387  25.0370  25.3259
    25.5743  25.7849  26.0539  26.4297  26.6330  26.8952  27.0779  27.3186
    27.3997  27.6815  27.7095  27.7782  28.0572  28.3184  28.8979  29.0286
    29.3214  29.4302  29.7404  29.9818  30.1925  30.3032  30.5473  30.8646
    31.0319  31.3282  31.4464  31.6080  31.7212  32.0152  32.2071  32.3060
    32.5999  32.7536  32.8601  33.0763  33.4662  33.7773  33.9676  34.0729
    34.3328  34.3604  34.5553  34.6579  34.7009  35.0319  35.1611  35.2265
    35.5801  35.6248  35.8413  36.0371  36.1832  36.3405  36.5999  36.8680
    36.9607  37.2718  37.3392  37.5793  37.6876  37.6952  37.8840  38.0087
    38.0696  38.3977  38.6055  38.8684  38.9667  39.1568  39.3183  39.3365
    39.5642  39.8972  39.9406  40.2397  40.2448  40.4791  40.6093  40.9663
    41.1378  41.2704  41.3899  41.4535  41.5571  41.7257  41.7948  41.9989
    42.2389  42.3479  42.6044  42.7502  42.7811  42.9403  43.0663  43.1931
    43.3664  43.4768  43.5771  43.7212  43.9986  44.0477  44.2143  44.4544

     occupation numbers 
     1.0000   1.0000   1.0000   1.0000   1.0000   1.0000   1.0000   1.0000
     1.0000   1.0000   1.0000   1.0000   1.0000   1.0000   1.0000   1.0000
     1.0000   1.0000   1.0000   1.0000   1.0000   1.0000   1.0000   1.0000
     1.0000   1.0000   1.0000   1.0000   1.0000   1.0000   1.0000   1.0000
     1.0000   1.0000   1.0000   1.0000   1.0000   1.0000   1.0000   1.0000
     1.0000   1.0000   1.0000   1.0000   1.0000   1.0000   1.0000   1.0000
     1.0000   1.0000   1.0000   1.0000   1.0000   1.0000   1.0000   1.0000
     1.0000   1.0000   1.0000   1.0000   1.0000   1.0000   1.0000   1.0000
     1.0000   1.0000   1.0000   1.0000   1.0000   1.0000   1.0000   1.0000
     1.0000   1.0000   1.0000   1.0000   1.0000   1.0000   1.0000   1.0000
     0.0000   0.0000   0.0000   0.0000   0.0000   0.0000   0.0000   0.0000
     0.0000   0.0000   0.0000   0.0000   0.0000   0.0000   0.0000   0.0000
     0.0000   0.0000   0.0000   0.0000   0.0000   0.0000   0.0000   0.0000
     0.0000   0.0000   0.0000   0.0000   0.0000   0.0000   0.0000   0.0000
     0.0000   0.0000   0.0000   0.0000   0.0000   0.0000   0.0000   0.0000
     0.0000   0.0000   0.0000   0.0000   0.0000   0.0000   0.0000   0.0000
     0.0000   0.0000   0.0000   0.0000   0.0000   0.0000   0.0000   0.0000
     0.0000   0.0000   0.0000   0.0000   0.0000   0.0000   0.0000   0.0000
     0.0000   0.0000   0.0000   0.0000   0.0000   0.0000   0.0000   0.0000
     0.0000   0.0000   0.0000   0.0000   0.0000   0.0000   0.0000   0.0000
     0.0000   0.0000   0.0000   0.0000   0.0000   0.0000   0.0000   0.0000
     0.0000   0.0000   0.0000   0.0000   0.0000   0.0000   0.0000   0.0000
     0.0000   0.0000   0.0000   0.0000   0.0000   0.0000   0.0000   0.0000
     0.0000   0.0000   0.0000   0.0000   0.0000   0.0000   0.0000   0.0000
     0.0000   0.0000   0.0000   0.0000   0.0000   0.0000   0.0000   0.0000
     0.0000   0.0000   0.0000   0.0000   0.0000   0.0000   0.0000   0.0000
     0.0000   0.0000   0.0000   0.0000   0.0000   0.0000   0.0000   0.0000
     0.0000   0.0000   0.0000   0.0000   0.0000   0.0000   0.0000   0.0000
     0.0000   0.0000   0.0000   0.0000   0.0000   0.0000   0.0000   0.0000
     0.0000   0.0000   0.0000   0.0000   0.0000   0.0000   0.0000   0.0000
     0.0000   0.0000   0.0000   0.0000   0.0000   0.0000   0.0000   0.0000
     0.0000   0.0000   0.0000   0.0000   0.0000   0.0000   0.0000   0.0000

     highest occupied, lowest unoccupied level (ev):     0.8461    3.5484

!    total energy              =   -1331.23878959 Ry
     estimated scf accuracy    <       0.00000024 Ry

     The total energy is the sum of the following terms:
     one-electron contribution =    -881.92157104 Ry
     hartree contribution      =     499.86077847 Ry
     xc contribution           =    -218.47668628 Ry
     ewald contribution        =    -692.55634463 Ry
     one-center paw contrib.   =     -38.14496612 Ry
      -> PAW hartree energy AE =       0.00000000 Ry
      -> PAW hartree energy PS =       0.00000000 Ry
      -> PAW xc energy AE      =       0.00000000 Ry
      -> PAW xc energy PS      =       0.00000000 Ry
      -> total E_H with PAW    =     499.86077847 Ry
      -> total E_XC with PAW   =    -218.47668628 Ry

     convergence has been achieved in  11 iterations

     Writing all to output data dir bands_nm/myprefix.save/
 
     init_run     :      8.18s CPU      2.33s WALL (       1 calls)
     electrons    :    215.73s CPU     65.40s WALL (       1 calls)

     Called by init_run:
     wfcinit      :      5.77s CPU      1.52s WALL (       1 calls)
     wfcinit:atom :      0.01s CPU      0.00s WALL (       5 calls)
     wfcinit:wfcr :      5.61s CPU      1.48s WALL (       5 calls)
     potinit      :      0.52s CPU      0.18s WALL (       1 calls)
     hinit0       :      1.68s CPU      0.55s WALL (       1 calls)

     Called by electrons:
     c_bands      :    192.56s CPU     57.76s WALL (      11 calls)
     sum_band     :     19.74s CPU      6.24s WALL (      11 calls)
     v_of_rho     :      0.73s CPU      0.31s WALL (      12 calls)
     v_h          :      0.05s CPU      0.02s WALL (      12 calls)
     v_xc         :      0.67s CPU      0.29s WALL (      12 calls)
     newd         :      1.41s CPU      0.60s WALL (      12 calls)
     PAW_pot      :      0.76s CPU      0.27s WALL (      12 calls)
     mix_rho      :      0.27s CPU      0.13s WALL (      11 calls)

     Called by c_bands:
     init_us_2    :      0.31s CPU      0.12s WALL (     115 calls)
     init_us_2:cp :      0.31s CPU      0.12s WALL (     115 calls)
     cegterg      :    188.63s CPU     56.63s WALL (      55 calls)

     Called by sum_band:
     sum_band:wei :      0.00s CPU      0.00s WALL (      11 calls)
     sum_band:loo :     18.00s CPU      5.54s WALL (      11 calls)
     sum_band:buf :      0.22s CPU      0.06s WALL (      55 calls)
     sum_band:ini :      0.18s CPU      0.07s WALL (      55 calls)
     sum_band:cal :      3.52s CPU      0.99s WALL (      55 calls)
     sum_band:bec :      0.17s CPU      0.07s WALL (      55 calls)
     addusdens    :      1.33s CPU      0.57s WALL (      11 calls)
     addusd:skk   :      0.04s CPU      0.02s WALL (      33 calls)
     addusd:dgemm :      0.14s CPU      0.13s WALL (      33 calls)
     addusd:qvan2 :      0.97s CPU      0.34s WALL (      33 calls)

     Called by *egterg:
     cdiaghg      :     52.33s CPU     15.60s WALL (     205 calls)
     cegterg:over :     21.42s CPU      5.98s WALL (     150 calls)
     cegterg:upda :     10.97s CPU      3.34s WALL (     150 calls)
     cegterg:last :     24.03s CPU      7.04s WALL (      93 calls)
     cdiaghg:chol :      3.11s CPU      0.91s WALL (     205 calls)
     cdiaghg:inve :      0.99s CPU      0.29s WALL (     205 calls)
     cdiaghg:para :     12.96s CPU      3.93s WALL (     410 calls)
     h_psi        :     68.53s CPU     21.21s WALL (     210 calls)
     s_psi        :      7.05s CPU      2.04s WALL (     210 calls)
     g_psi        :      0.07s CPU      0.03s WALL (     150 calls)

     Called by h_psi:
     h_psi:calbec :      8.31s CPU      2.42s WALL (     210 calls)
     vloc_psi     :     52.97s CPU     16.65s WALL (     210 calls)
     add_vuspsi   :      7.12s CPU      2.08s WALL (     210 calls)

     General routines
     calbec       :     11.83s CPU      3.41s WALL (     265 calls)
     fft          :      0.63s CPU      0.26s WALL (     154 calls)
     ffts         :      0.05s CPU      0.02s WALL (      23 calls)
     fftw         :     59.32s CPU     17.68s WALL (   78812 calls)
     interpolate  :      0.07s CPU      0.03s WALL (      12 calls)
 
     Parallel routines

     PAW routines
     PAW_pot      :      0.76s CPU      0.27s WALL (      12 calls)
     PAW_symme    :      0.02s CPU      0.01s WALL (      23 calls)
 
     PWSCF        :   3m46.01s CPU   1m 8.72s WALL

 
   This run was terminated on:   0:22:48  17Jul2023            

=------------------------------------------------------------------------------=
   JOB DONE.
=------------------------------------------------------------------------------=
