
     Program PWSCF v.7.1 starts on 17Jul2023 at  0:36:46 

     This program is part of the open-source Quantum ESPRESSO suite
     for quantum simulation of materials; please cite
         "P. Giannozzi et al., J. Phys.:Condens. Matter 21 395502 (2009);
         "P. Giannozzi et al., J. Phys.:Condens. Matter 29 465901 (2017);
         "P. Giannozzi et al., J. Chem. Phys. 152 154105 (2020);
          URL http://www.quantum-espresso.org", 
     in publications or presentations arising from this work. More details at
     http://www.quantum-espresso.org/quote

     Parallel version (MPI & OpenMP), running on      32 processor cores
     Number of MPI processes:                 8
     Threads/MPI process:                     4

     MPI processes distributed on     1 nodes
     193023 MiB available memory on the printing compute node when the environment starts
 
     Reading input from espresso_3617.pwi
Warning: card &CELL ignored
Warning: card / ignored

     Current dimensions of program PWSCF are:
     Max number of different atomic species (ntypx) = 10
     Max number of k-points (npk) =  40000
     Max angular momentum in pseudopotentials (lmaxx) =  4
     file O.pbe-n-kjpaw_psl.0.1.UPF: wavefunction(s)  2P renormalized
     Message from routine setup:
     using ibrav=0 with symmetry is DISCOURAGED, use correct ibrav instead
 
     K-points division:     npool     =       2
     R & G space division:  proc/nbgrp/npool/nimage =       4
     Subspace diagonalization in iterative solution of the eigenvalue problem:
     one sub-group per band group will be used
     scalapack distributed-memory algorithm (size of sub-group:  2*  2 procs)

 
     Parallelization info
     --------------------
     sticks:   dense  smooth     PW     G-vecs:    dense   smooth      PW
     Min         363     183     52                21669     7687    1214
     Max         364     184     53                21670     7689    1219
     Sum        1455     733    211                86679    30751    4869
 
     Using Slab Decomposition
 


     bravais-lattice index     =            0
     lattice parameter (alat)  =       9.3682  a.u.
     unit-cell volume          =    1381.6096 (a.u.)^3
     number of atoms/cell      =           18
     number of atomic types    =            3
     number of electrons       =       170.00
     number of Kohn-Sham states=          256
     kinetic-energy cutoff     =      30.0000  Ry
     charge density cutoff     =     240.0000  Ry
     scf convergence threshold =      1.0E-06
     mixing beta               =       0.7000
     number of iterations used =            8  plain     mixing
     Exchange-correlation= SLA  PW   PBX  PBC
                           (   1   4   3   4   0   0   0)

     celldm(1)=   9.368158  celldm(2)=   0.000000  celldm(3)=   0.000000
     celldm(4)=   0.000000  celldm(5)=   0.000000  celldm(6)=   0.000000

     crystal axes: (cart. coord. in units of alat)
               a(1) = (   1.000000   0.000000   0.000000 )  
               a(2) = (  -0.501408   0.865211   0.000000 )  
               a(3) = (   0.000000   0.000000   1.942230 )  

     reciprocal axes: (cart. coord. in units 2 pi/alat)
               b(1) = (  1.000000  0.579521  0.000000 )  
               b(2) = (  0.000000  1.155787  0.000000 )  
               b(3) = (  0.000000  0.000000  0.514872 )  


     PseudoPot. # 1 for Mn read from file:
     /lustre07/scratch/pragov/crystal_structure_design/utils/SSSP/mn_pbe_v1.5.uspp.F.UPF
     MD5 check sum: 82ef2b46521d7a7d9e736dc3972e4928
     Pseudo is Ultrasoft + core correction, Zval = 15.0
     Generated by new atomic code, or converted to UPF format
     Using radial grid of  859 points,  6 beta functions with: 
                l(1) =   0
                l(2) =   0
                l(3) =   1
                l(4) =   1
                l(5) =   2
                l(6) =   2
     Q(r) pseudized with  8 coefficients,  rinner =    0.950   0.950   0.950
                                                       0.950   0.950

     PseudoPot. # 2 for Co read from file:
     /lustre07/scratch/pragov/crystal_structure_design/utils/SSSP/Co_pbe_v1.2.uspp.F.UPF
     MD5 check sum: 5f91765df6ddd3222702df6e7b74a16d
     Pseudo is Ultrasoft + core correction, Zval = 17.0
     Generated by new atomic code, or converted to UPF format
     Using radial grid of  863 points,  6 beta functions with: 
                l(1) =   0
                l(2) =   0
                l(3) =   1
                l(4) =   1
                l(5) =   2
                l(6) =   2
     Q(r) pseudized with  8 coefficients,  rinner =    1.200   1.200   1.200
                                                       1.200   1.200

     PseudoPot. # 3 for O  read from file:
     /lustre07/scratch/pragov/crystal_structure_design/utils/SSSP/O.pbe-n-kjpaw_psl.0.1.UPF
     MD5 check sum: 0234752ac141de4415c5fc33072bef88
     Pseudo is Projector augmented-wave + core cor, Zval =  6.0
     Generated using "atomic" code by A. Dal Corso  v.5.0.99 svn rev. 10869
     Shape of augmentation charge: BESSEL
     Using radial grid of 1095 points,  4 beta functions with: 
                l(1) =   0
                l(2) =   0
                l(3) =   1
                l(4) =   1
     Q(r) pseudized with 0 coefficients 


     atomic species   valence    mass     pseudopotential
        Mn            15.00    54.93804     Mn( 1.00)
        Co            17.00    58.93319     Co( 1.00)
        O              6.00    15.99900     O ( 1.00)

      4 Sym. Ops., with inversion, found ( 2 have fractional translation)


                                    s                        frac. trans.

      isym =  1     identity                                     

 cryst.   s( 1) = (     1          0          0      )
                  (     0          1          0      )
                  (     0          0          1      )

 cart.    s( 1) = (  1.0000000  0.0000000  0.0000000 )
                  (  0.0000000  1.0000000  0.0000000 )
                  (  0.0000000  0.0000000  1.0000000 )


      isym =  2     180 deg rotation - cart. axis [0,0,1]        

 cryst.   s( 2) = (    -1          0          0      )    f =(  0.5000000 )
                  (     0         -1          0      )       (  0.5000000 )
                  (     0          0          1      )       (  0.5000000 )

 cart.    s( 2) = ( -1.0000000  0.0000000  0.0000000 )    f =(  0.2492961 )
                  (  0.0000000 -1.0000000  0.0000000 )       (  0.4326056 )
                  (  0.0000000  0.0000000  1.0000000 )       (  0.9711150 )


      isym =  3     inversion                                    

 cryst.   s( 3) = (    -1          0          0      )
                  (     0         -1          0      )
                  (     0          0         -1      )

 cart.    s( 3) = ( -1.0000000  0.0000000  0.0000000 )
                  (  0.0000000 -1.0000000  0.0000000 )
                  (  0.0000000  0.0000000 -1.0000000 )


      isym =  4     inv. 180 deg rotation - cart. axis [0,0,1]   

 cryst.   s( 4) = (     1          0          0      )    f =(  0.5000000 )
                  (     0          1          0      )       (  0.5000000 )
                  (     0          0         -1      )       (  0.5000000 )

 cart.    s( 4) = (  1.0000000  0.0000000  0.0000000 )    f =(  0.2492961 )
                  (  0.0000000  1.0000000  0.0000000 )       (  0.4326056 )
                  (  0.0000000  0.0000000 -1.0000000 )       (  0.9711150 )


   Cartesian axes

     site n.     atom                  positions (alat units)
         1           Mn  tau(   1) = (   0.2492961   0.4326056   0.9711150  )
         2           Mn  tau(   2) = (   0.0000000   0.0000000   0.0000000  )
         3           Co  tau(   3) = (   0.7497348   0.1442194   0.9711150  )
         4           Co  tau(   4) = (  -0.0009690   0.5768250   0.0000000  )
         5           Co  tau(   5) = (   0.4995613   0.2883861   0.0000000  )
         6           Co  tau(   6) = (  -0.2511426   0.7209917   0.9711150  )
         7           O   tau(   7) = (   0.3296363   0.5720205   0.1919448  )
         8           O   tau(   8) = (   0.4182521   0.7257962   1.1630597  )
         9           O   tau(   9) = (   0.0803402   0.1394149   0.7791702  )
        10           O   tau(  10) = (   0.0795582   0.7254527   0.7792304  )
        11           O   tau(  11) = (   0.1689560   0.2931906   1.7502852  )
        12           O   tau(  12) = (   0.6615175   0.0000234   1.7503454  )
        13           O   tau(  13) = (   0.8302620   0.2928471   0.1918845  )
        14           O   tau(  14) = (  -0.0891864   0.4326289   1.1629995  )
        15           O   tau(  15) = (   0.4190341   0.1397584   1.1629995  )
        16           O   tau(  16) = (   0.5877787   0.4325822   0.7792304  )
        17           O   tau(  17) = (  -0.3316698   0.5723640   1.7503454  )
        18           O   tau(  18) = (  -0.1629252   0.8651878   0.1918845  )

   Crystallographic axes

     site n.     atom                  positions (cryst. coord.)
         1           Mn  tau(   1) = (  0.5000000  0.5000000  0.5000000  )
         2           Mn  tau(   2) = (  0.0000000  0.0000000  0.0000000  )
         3           Co  tau(   3) = (  0.8333130  0.1666870  0.5000000  )
         4           Co  tau(   4) = (  0.3333130  0.6666870  0.0000000  )
         5           Co  tau(   5) = (  0.6666870  0.3333130  0.0000000  )
         6           Co  tau(   6) = (  0.1666870  0.8333130  0.5000000  )
         7           O   tau(   7) = (  0.6611340  0.6611340  0.0988270  )
         8           O   tau(   8) = (  0.8388660  0.8388660  0.5988270  )
         9           O   tau(   9) = (  0.1611340  0.1611340  0.4011730  )
        10           O   tau(  10) = (  0.4999730  0.8384690  0.4012040  )
        11           O   tau(  11) = (  0.3388660  0.3388660  0.9011730  )
        12           O   tau(  12) = (  0.6615310  0.0000270  0.9012040  )
        13           O   tau(  13) = (  0.9999730  0.3384690  0.0987960  )
        14           O   tau(  14) = (  0.1615310  0.5000270  0.5987960  )
        15           O   tau(  15) = (  0.5000270  0.1615310  0.5987960  )
        16           O   tau(  16) = (  0.8384690  0.4999730  0.4012040  )
        17           O   tau(  17) = (  0.0000270  0.6615310  0.9012040  )
        18           O   tau(  18) = (  0.3384690  0.9999730  0.0987960  )

     number of k points=    10
                       cart. coord. in units 2pi/alat
        k(    1) = (   0.0000000   0.0000000   0.0000000), wk =   0.0740741
        k(    2) = (   0.0000000   0.0000000   0.1716240), wk =   0.1481481
        k(    3) = (   0.0000000   0.3852624   0.0000000), wk =   0.1481481
        k(    4) = (   0.0000000   0.3852624   0.1716240), wk =   0.2962963
        k(    5) = (   0.3333333   0.1931736   0.0000000), wk =   0.1481481
        k(    6) = (   0.3333333   0.1931736   0.1716240), wk =   0.2962963
        k(    7) = (   0.3333333   0.5784360   0.0000000), wk =   0.1481481
        k(    8) = (   0.3333333   0.5784360   0.1716240), wk =   0.2962963
        k(    9) = (   0.3333333  -0.1920889   0.0000000), wk =   0.1481481
        k(   10) = (   0.3333333  -0.1920889   0.1716240), wk =   0.2962963

                       cryst. coord.
        k(    1) = (   0.0000000   0.0000000   0.0000000), wk =   0.0740741
        k(    2) = (   0.0000000   0.0000000   0.3333333), wk =   0.1481481
        k(    3) = (   0.0000000   0.3333333   0.0000000), wk =   0.1481481
        k(    4) = (   0.0000000   0.3333333   0.3333333), wk =   0.2962963
        k(    5) = (   0.3333333   0.0000000   0.0000000), wk =   0.1481481
        k(    6) = (   0.3333333   0.0000000   0.3333333), wk =   0.2962963
        k(    7) = (   0.3333333   0.3333333   0.0000000), wk =   0.1481481
        k(    8) = (   0.3333333   0.3333333   0.3333333), wk =   0.2962963
        k(    9) = (   0.3333333  -0.3333333   0.0000000), wk =   0.1481481
        k(   10) = (   0.3333333  -0.3333333   0.3333333), wk =   0.2962963

     Dense  grid:    86679 G-vectors     FFT dimensions: (  48,  48,  90)

     Smooth grid:    30751 G-vectors     FFT dimensions: (  36,  36,  64)

     Dynamical RAM for                 wfc:       3.74 MB

     Dynamical RAM for     wfc (w. buffer):      22.45 MB

     Dynamical RAM for           str. fact:       0.99 MB

     Dynamical RAM for           local pot:       0.00 MB

     Dynamical RAM for          nlocal pot:       2.98 MB

     Dynamical RAM for                qrad:       3.73 MB

     Dynamical RAM for          rho,v,vnew:       2.20 MB

     Dynamical RAM for               rhoin:       0.73 MB

     Dynamical RAM for            rho*nmix:       5.29 MB

     Dynamical RAM for           G-vectors:       1.30 MB

     Dynamical RAM for          h,s,v(r/c):       3.00 MB

     Dynamical RAM for          <psi|beta>:       0.80 MB

     Dynamical RAM for                 psi:       7.48 MB

     Dynamical RAM for                hpsi:       7.48 MB

     Dynamical RAM for                spsi:       7.48 MB

     Dynamical RAM for      wfcinit/wfcrot:       8.99 MB

     Dynamical RAM for           addusdens:      32.90 MB

     Estimated static dynamical RAM per process >      37.74 MB

     Estimated max dynamical RAM per process >      75.93 MB

     Estimated total dynamical RAM >     586.30 MB

     Check: negative core charge=   -0.000027

     Initial potential from superposition of free atoms

     starting charge     164.9998, renormalised to     170.0000
     Starting wfcs are  126 randomized atomic wfcs +  130 random wfcs
     Checking if some PAW data can be deallocated... 
       PAW data deallocated on    2 nodes for type:  3

     total cpu time spent up to now is        2.2 secs

     Self-consistent Calculation

     iteration #  1     ecut=    30.00 Ry     beta= 0.70
     Davidson diagonalization with overlap

---- Real-time Memory Report at c_bands before calling an iterative solver
           240 MiB given to the printing process from OS
             0 MiB allocation reported by mallinfo(arena+hblkhd)
        192352 MiB available memory on the node where the printing process lives
------------------
     ethr =  1.00E-02,  avg # of iterations =  6.0

     total cpu time spent up to now is       16.5 secs

     total energy              =   -2094.06544463 Ry
     estimated scf accuracy    <      30.78778761 Ry

     iteration #  2     ecut=    30.00 Ry     beta= 0.70
     Davidson diagonalization with overlap

---- Real-time Memory Report at c_bands before calling an iterative solver
           317 MiB given to the printing process from OS
             0 MiB allocation reported by mallinfo(arena+hblkhd)
        191987 MiB available memory on the node where the printing process lives
------------------
     ethr =  1.00E-02,  avg # of iterations =  2.3

     total cpu time spent up to now is       24.6 secs

     total energy              =   -2097.74818176 Ry
     estimated scf accuracy    <     224.18659428 Ry

     iteration #  3     ecut=    30.00 Ry     beta= 0.70
     Davidson diagonalization with overlap

---- Real-time Memory Report at c_bands before calling an iterative solver
           320 MiB given to the printing process from OS
             0 MiB allocation reported by mallinfo(arena+hblkhd)
        191701 MiB available memory on the node where the printing process lives
------------------
     ethr =  1.00E-02,  avg # of iterations =  2.0

     total cpu time spent up to now is       30.4 secs

     total energy              =   -2114.20584548 Ry
     estimated scf accuracy    <      37.93667071 Ry

     iteration #  4     ecut=    30.00 Ry     beta= 0.70
     Davidson diagonalization with overlap

---- Real-time Memory Report at c_bands before calling an iterative solver
           335 MiB given to the printing process from OS
             0 MiB allocation reported by mallinfo(arena+hblkhd)
        191593 MiB available memory on the node where the printing process lives
------------------
     ethr =  1.00E-02,  avg # of iterations =  1.0

     total cpu time spent up to now is       33.6 secs

     total energy              =   -2114.67003287 Ry
     estimated scf accuracy    <       4.50012500 Ry

     iteration #  5     ecut=    30.00 Ry     beta= 0.70
     Davidson diagonalization with overlap

---- Real-time Memory Report at c_bands before calling an iterative solver
           335 MiB given to the printing process from OS
             0 MiB allocation reported by mallinfo(arena+hblkhd)
        191560 MiB available memory on the node where the printing process lives
------------------
     ethr =  2.65E-03,  avg # of iterations =  1.0

     total cpu time spent up to now is       37.0 secs

     total energy              =   -2114.66186337 Ry
     estimated scf accuracy    <       3.65206864 Ry

     iteration #  6     ecut=    30.00 Ry     beta= 0.70
     Davidson diagonalization with overlap

---- Real-time Memory Report at c_bands before calling an iterative solver
           335 MiB given to the printing process from OS
             0 MiB allocation reported by mallinfo(arena+hblkhd)
        191616 MiB available memory on the node where the printing process lives
------------------
     ethr =  2.15E-03,  avg # of iterations =  1.0

     total cpu time spent up to now is       40.7 secs

     total energy              =   -2114.90649693 Ry
     estimated scf accuracy    <       3.76155125 Ry

     iteration #  7     ecut=    30.00 Ry     beta= 0.70
     Davidson diagonalization with overlap

---- Real-time Memory Report at c_bands before calling an iterative solver
           335 MiB given to the printing process from OS
             0 MiB allocation reported by mallinfo(arena+hblkhd)
        191556 MiB available memory on the node where the printing process lives
------------------
     ethr =  2.15E-03,  avg # of iterations =  1.0

     total cpu time spent up to now is       45.9 secs

     total energy              =   -2114.96841684 Ry
     estimated scf accuracy    <       0.22649161 Ry

     iteration #  8     ecut=    30.00 Ry     beta= 0.70
     Davidson diagonalization with overlap

---- Real-time Memory Report at c_bands before calling an iterative solver
           335 MiB given to the printing process from OS
             0 MiB allocation reported by mallinfo(arena+hblkhd)
        191526 MiB available memory on the node where the printing process lives
------------------
     ethr =  1.33E-04,  avg # of iterations =  2.7

     total cpu time spent up to now is       50.7 secs

     total energy              =   -2114.96680392 Ry
     estimated scf accuracy    <       0.34550952 Ry

     iteration #  9     ecut=    30.00 Ry     beta= 0.70
     Davidson diagonalization with overlap

---- Real-time Memory Report at c_bands before calling an iterative solver
           335 MiB given to the printing process from OS
             0 MiB allocation reported by mallinfo(arena+hblkhd)
        191490 MiB available memory on the node where the printing process lives
------------------
     ethr =  1.33E-04,  avg # of iterations =  1.0

     total cpu time spent up to now is       53.9 secs

     total energy              =   -2114.98107663 Ry
     estimated scf accuracy    <       0.06669373 Ry

     iteration # 10     ecut=    30.00 Ry     beta= 0.70
     Davidson diagonalization with overlap

---- Real-time Memory Report at c_bands before calling an iterative solver
           335 MiB given to the printing process from OS
             0 MiB allocation reported by mallinfo(arena+hblkhd)
        191487 MiB available memory on the node where the printing process lives
------------------
     ethr =  3.92E-05,  avg # of iterations =  3.3

     total cpu time spent up to now is       57.8 secs

     total energy              =   -2114.97880516 Ry
     estimated scf accuracy    <       0.05138188 Ry

     iteration # 11     ecut=    30.00 Ry     beta= 0.70
     Davidson diagonalization with overlap

---- Real-time Memory Report at c_bands before calling an iterative solver
           335 MiB given to the printing process from OS
             0 MiB allocation reported by mallinfo(arena+hblkhd)
        191418 MiB available memory on the node where the printing process lives
------------------
     ethr =  3.02E-05,  avg # of iterations =  2.4

     total cpu time spent up to now is       61.7 secs

     total energy              =   -2114.98034032 Ry
     estimated scf accuracy    <       0.00283093 Ry

     iteration # 12     ecut=    30.00 Ry     beta= 0.70
     Davidson diagonalization with overlap

---- Real-time Memory Report at c_bands before calling an iterative solver
           335 MiB given to the printing process from OS
             0 MiB allocation reported by mallinfo(arena+hblkhd)
        191486 MiB available memory on the node where the printing process lives
------------------
     ethr =  1.67E-06,  avg # of iterations = 10.8

     total cpu time spent up to now is       68.8 secs

     total energy              =   -2114.98041604 Ry
     estimated scf accuracy    <       0.00059312 Ry

     iteration # 13     ecut=    30.00 Ry     beta= 0.70
     Davidson diagonalization with overlap

---- Real-time Memory Report at c_bands before calling an iterative solver
           375 MiB given to the printing process from OS
             0 MiB allocation reported by mallinfo(arena+hblkhd)
        191154 MiB available memory on the node where the printing process lives
------------------
     ethr =  3.49E-07,  avg # of iterations =  1.0

     total cpu time spent up to now is       72.4 secs

     total energy              =   -2114.98044287 Ry
     estimated scf accuracy    <       0.00011874 Ry

     iteration # 14     ecut=    30.00 Ry     beta= 0.70
     Davidson diagonalization with overlap

---- Real-time Memory Report at c_bands before calling an iterative solver
           375 MiB given to the printing process from OS
             0 MiB allocation reported by mallinfo(arena+hblkhd)
        191164 MiB available memory on the node where the printing process lives
------------------
     ethr =  6.98E-08,  avg # of iterations =  1.0

     total cpu time spent up to now is       76.0 secs

     total energy              =   -2114.98045315 Ry
     estimated scf accuracy    <       0.00036867 Ry

     iteration # 15     ecut=    30.00 Ry     beta= 0.70
     Davidson diagonalization with overlap

---- Real-time Memory Report at c_bands before calling an iterative solver
           376 MiB given to the printing process from OS
             0 MiB allocation reported by mallinfo(arena+hblkhd)
        191167 MiB available memory on the node where the printing process lives
------------------
     ethr =  6.98E-08,  avg # of iterations =  1.0

     total cpu time spent up to now is       78.8 secs

     total energy              =   -2114.98043798 Ry
     estimated scf accuracy    <       0.00039068 Ry

     iteration # 16     ecut=    30.00 Ry     beta= 0.70
     Davidson diagonalization with overlap

---- Real-time Memory Report at c_bands before calling an iterative solver
           376 MiB given to the printing process from OS
             0 MiB allocation reported by mallinfo(arena+hblkhd)
        191191 MiB available memory on the node where the printing process lives
------------------
     ethr =  6.98E-08,  avg # of iterations =  1.0

     total cpu time spent up to now is       81.5 secs

     total energy              =   -2114.98044418 Ry
     estimated scf accuracy    <       0.00002503 Ry

     iteration # 17     ecut=    30.00 Ry     beta= 0.70
     Davidson diagonalization with overlap

---- Real-time Memory Report at c_bands before calling an iterative solver
           376 MiB given to the printing process from OS
             0 MiB allocation reported by mallinfo(arena+hblkhd)
        191163 MiB available memory on the node where the printing process lives
------------------
     ethr =  1.47E-08,  avg # of iterations =  1.0

     total cpu time spent up to now is       84.2 secs

     total energy              =   -2114.98044438 Ry
     estimated scf accuracy    <       0.00000729 Ry

     iteration # 18     ecut=    30.00 Ry     beta= 0.70
     Davidson diagonalization with overlap

---- Real-time Memory Report at c_bands before calling an iterative solver
           376 MiB given to the printing process from OS
             0 MiB allocation reported by mallinfo(arena+hblkhd)
        191135 MiB available memory on the node where the printing process lives
------------------
     ethr =  4.29E-09,  avg # of iterations =  1.0

     total cpu time spent up to now is       87.6 secs

     total energy              =   -2114.98044466 Ry
     estimated scf accuracy    <       0.00000152 Ry

     iteration # 19     ecut=    30.00 Ry     beta= 0.70
     Davidson diagonalization with overlap

---- Real-time Memory Report at c_bands before calling an iterative solver
           376 MiB given to the printing process from OS
             0 MiB allocation reported by mallinfo(arena+hblkhd)
        191134 MiB available memory on the node where the printing process lives
------------------
     ethr =  8.94E-10,  avg # of iterations =  1.0

     total cpu time spent up to now is       91.4 secs

     total energy              =   -2114.98032317 Ry
     estimated scf accuracy    <       0.00211472 Ry

     iteration # 20     ecut=    30.00 Ry     beta= 0.70
     Davidson diagonalization with overlap

---- Real-time Memory Report at c_bands before calling an iterative solver
           376 MiB given to the printing process from OS
             0 MiB allocation reported by mallinfo(arena+hblkhd)
        191105 MiB available memory on the node where the printing process lives
------------------
     ethr =  8.94E-10,  avg # of iterations =  1.2

     total cpu time spent up to now is       94.4 secs

     End of self-consistent calculation

          k = 0.0000 0.0000 0.0000 (  3853 PWs)   bands (ev):

   -88.9842 -88.9839 -88.9789 -88.9787 -73.6295 -73.6294 -52.2592 -52.2585
   -52.2581 -52.2546 -52.2368 -52.2356 -52.2354 -52.2329 -52.1225 -52.1172
   -52.1115 -52.1103 -42.3608 -42.3605 -42.3510 -42.3505 -42.2367 -42.2343
   -12.9957 -12.9218 -11.3107 -11.3066 -11.2871 -11.2863 -11.1841 -11.1707
   -11.1609 -11.1487 -10.9743 -10.8516   0.9261   1.0916   1.1191   1.1688
     1.1890   1.2215   1.2377   1.2858   1.3091   1.3308   1.3442   1.3445
     1.3479   1.4947   1.5149   1.5458   1.9185   1.9427   3.3356   3.3581
     3.3761   3.4464   3.4589   3.5018   3.5038   3.5357   3.6455   3.6859
     3.9119   3.9251   4.4234   5.2038   5.2213   5.2310   5.2379   5.3502
     5.3565   5.3581   5.3609   5.4431   5.4539   5.4665   5.7656   5.7688
     6.3877   6.4190   6.4286   6.4616   6.7607   6.7939   6.8085   6.8162
     7.0056   7.1325   8.4684   8.5293   8.5809   8.6354   8.8194   8.8682
     8.9088   8.9565   9.5717   9.6005   9.6082   9.6323  13.6299  15.6653
    15.8788  17.2134  19.7658  19.8606  19.9803  20.0912  20.2211  20.4793
    20.5481  20.5495  20.6657  20.6812  20.8492  21.0774  21.4822  21.5273
    21.6500  21.7775  21.8372  21.9423  22.0294  22.0905  22.8967  23.0857
    23.3443  23.4999  23.7485  24.0026  24.5625  24.5746  26.0391  26.2509
    26.3375  26.3663  27.0912  27.2086  27.3377  27.5080  27.7024  28.4390
    29.4960  29.6734  30.1731  30.3944  30.6492  30.8950  30.9259  30.9758
    31.0292  31.0737  31.0786  31.2022  31.3327  31.4978  32.3543  32.5301
    32.6495  32.7337  33.1569  33.6109  33.8753  34.3428  34.6634  35.0208
    35.1405  35.4054  35.5592  35.6743  35.8206  35.9964  36.0854  36.5012
    37.5777  37.6245  37.8136  37.9389  37.9959  38.2828  38.2871  38.5497
    38.6173  39.4172  39.5570  39.9498  39.9593  40.0974  40.2078  40.4491
    40.5101  40.8971  41.3999  41.4177  41.4937  42.0578  42.0595  42.2982
    42.4562  43.1391  43.2724  43.7267  43.9146  43.9523  43.9946  44.0914
    44.1018  44.1019  44.3730  44.5852  44.6603  44.7875  45.3559  45.3571
    45.5839  45.6507  45.6519  45.8543  45.9410  46.9238  47.0495  47.1315
    47.1746  47.4651  48.0981  48.3319  48.7472  48.9036  49.2486  49.2852
    49.3336  49.7179  49.7357  49.7629  49.8584  49.8942  49.9700  50.1587
    50.1876  50.2229  50.2399  50.4426  50.4611  50.9005  51.1323  51.5427
    51.6684  51.9239  52.1284  52.8031  52.8129  52.8281  52.8639  52.8737

     occupation numbers 
     1.0000   1.0000   1.0000   1.0000   1.0000   1.0000   1.0000   1.0000
     1.0000   1.0000   1.0000   1.0000   1.0000   1.0000   1.0000   1.0000
     1.0000   1.0000   1.0000   1.0000   1.0000   1.0000   1.0000   1.0000
     1.0000   1.0000   1.0000   1.0000   1.0000   1.0000   1.0000   1.0000
     1.0000   1.0000   1.0000   1.0000   1.0000   1.0000   1.0000   1.0000
     1.0000   1.0000   1.0000   1.0000   1.0000   1.0000   1.0000   1.0000
     1.0000   1.0000   1.0000   1.0000   1.0000   1.0000   1.0000   1.0000
     1.0000   1.0000   1.0000   1.0000   1.0000   1.0000   1.0000   1.0000
     1.0000   1.0000   1.0000   1.0000   1.0000   1.0000   1.0000   1.0000
     1.0000   1.0000   1.0000   1.0000   1.0000   1.0000   1.0000   1.0000
     1.0000   1.0000   1.0000   1.0000   1.0000   0.0000   0.0000   0.0000
     0.0000   0.0000   0.0000   0.0000   0.0000   0.0000   0.0000   0.0000
     0.0000   0.0000   0.0000   0.0000   0.0000   0.0000   0.0000   0.0000
     0.0000   0.0000   0.0000   0.0000   0.0000   0.0000   0.0000   0.0000
     0.0000   0.0000   0.0000   0.0000   0.0000   0.0000   0.0000   0.0000
     0.0000   0.0000   0.0000   0.0000   0.0000   0.0000   0.0000   0.0000
     0.0000   0.0000   0.0000   0.0000   0.0000   0.0000   0.0000   0.0000
     0.0000   0.0000   0.0000   0.0000   0.0000   0.0000   0.0000   0.0000
     0.0000   0.0000   0.0000   0.0000   0.0000   0.0000   0.0000   0.0000
     0.0000   0.0000   0.0000   0.0000   0.0000   0.0000   0.0000   0.0000
     0.0000   0.0000   0.0000   0.0000   0.0000   0.0000   0.0000   0.0000
     0.0000   0.0000   0.0000   0.0000   0.0000   0.0000   0.0000   0.0000
     0.0000   0.0000   0.0000   0.0000   0.0000   0.0000   0.0000   0.0000
     0.0000   0.0000   0.0000   0.0000   0.0000   0.0000   0.0000   0.0000
     0.0000   0.0000   0.0000   0.0000   0.0000   0.0000   0.0000   0.0000
     0.0000   0.0000   0.0000   0.0000   0.0000   0.0000   0.0000   0.0000
     0.0000   0.0000   0.0000   0.0000   0.0000   0.0000   0.0000   0.0000
     0.0000   0.0000   0.0000   0.0000   0.0000   0.0000   0.0000   0.0000
     0.0000   0.0000   0.0000   0.0000   0.0000   0.0000   0.0000   0.0000
     0.0000   0.0000   0.0000   0.0000   0.0000   0.0000   0.0000   0.0000
     0.0000   0.0000   0.0000   0.0000   0.0000   0.0000   0.0000   0.0000
     0.0000   0.0000   0.0000   0.0000   0.0000   0.0000   0.0000   0.0000

          k = 0.0000 0.0000 0.1716 (  3842 PWs)   bands (ev):

   -88.9841 -88.9836 -88.9789 -88.9784 -73.6295 -73.6291 -52.2575 -52.2567
   -52.2564 -52.2527 -52.2366 -52.2334 -52.2322 -52.2312 -52.1220 -52.1189
   -52.1141 -52.1092 -42.3601 -42.3572 -42.3503 -42.3470 -42.2385 -42.2341
   -12.9780 -12.9413 -11.3057 -11.3023 -11.2931 -11.2928 -11.1774 -11.1659
   -11.1649 -11.1533 -10.9426 -10.8816   1.0518   1.1134   1.1282   1.1524
     1.1680   1.2417   1.2488   1.2729   1.2907   1.3343   1.3370   1.3463
     1.3529   1.3535   1.5296   1.5470   1.9271   1.9424   3.3457   3.3576
     3.3598   3.4219   3.4824   3.4894   3.4947   3.5305   3.6762   3.6985
     3.9379   3.9471   4.6735   5.1872   5.2220   5.2234   5.2372   5.2472
     5.3545   5.3594   5.3597   5.3670   5.4561   5.4597   5.7654   5.7699
     6.4007   6.4127   6.4220   6.4348   6.7729   6.7934   6.7971   6.8043
     7.0453   7.1158   8.5127   8.5525   8.5765   8.6112   8.8582   8.8878
     8.9074   8.9369   9.5919   9.6053   9.6112   9.6202  13.9459  14.7541
    16.6311  17.0870  19.8228  19.9512  20.0182  20.0391  20.1260  20.3560
    20.6143  20.6164  20.6231  20.6986  20.9603  21.1644  21.2404  21.3910
    21.6486  21.9195  21.9928  22.1502  22.1535  22.4026  22.6040  22.9027
    22.9570  22.9648  23.5291  23.6938  25.3681  25.4897  26.1415  26.2398
    26.2642  26.2778  26.6933  26.7730  27.5885  28.0750  28.0986  28.3129
    29.4672  29.7134  29.7691  29.8973  30.0580  30.1785  30.4727  30.5540
    30.8248  31.0742  31.2271  31.2655  32.2377  32.4664  32.6931  32.7083
    32.8724  33.0952  33.6419  33.8044  34.1069  34.5117  34.7193  34.8829
    34.9464  35.2246  35.3207  35.3970  35.4892  35.6603  35.8933  36.1700
    36.2460  37.0240  37.7893  38.1656  38.4510  38.5967  38.8726  39.0149
    39.2546  39.4339  39.4977  39.8239  40.1179  40.3690  40.4951  40.5222
    40.9271  40.9323  41.1078  41.2639  41.3696  41.4146  42.2997  42.6989
    42.8052  43.1577  43.1717  43.3329  43.4890  43.5112  43.7340  43.7588
    43.9850  44.6569  44.6826  44.8331  45.2202  45.2397  45.3619  45.4078
    45.5489  45.6451  45.6952  45.8349  46.6716  46.6947  46.7263  46.9961
    47.1966  47.3077  47.4000  47.4035  47.7257  47.7538  47.9975  48.0621
    49.2736  49.2757  49.4121  49.6952  50.1089  50.2810  50.2862  50.5701
    50.5856  50.7593  51.0894  51.1943  51.3249  51.5899  51.8478  52.3502
    52.4286  52.6095  52.6781  52.7419  52.7925  52.8859  53.1982  53.2322

     occupation numbers 
     1.0000   1.0000   1.0000   1.0000   1.0000   1.0000   1.0000   1.0000
     1.0000   1.0000   1.0000   1.0000   1.0000   1.0000   1.0000   1.0000
     1.0000   1.0000   1.0000   1.0000   1.0000   1.0000   1.0000   1.0000
     1.0000   1.0000   1.0000   1.0000   1.0000   1.0000   1.0000   1.0000
     1.0000   1.0000   1.0000   1.0000   1.0000   1.0000   1.0000   1.0000
     1.0000   1.0000   1.0000   1.0000   1.0000   1.0000   1.0000   1.0000
     1.0000   1.0000   1.0000   1.0000   1.0000   1.0000   1.0000   1.0000
     1.0000   1.0000   1.0000   1.0000   1.0000   1.0000   1.0000   1.0000
     1.0000   1.0000   1.0000   1.0000   1.0000   1.0000   1.0000   1.0000
     1.0000   1.0000   1.0000   1.0000   1.0000   1.0000   1.0000   1.0000
     1.0000   1.0000   1.0000   1.0000   1.0000   0.0000   0.0000   0.0000
     0.0000   0.0000   0.0000   0.0000   0.0000   0.0000   0.0000   0.0000
     0.0000   0.0000   0.0000   0.0000   0.0000   0.0000   0.0000   0.0000
     0.0000   0.0000   0.0000   0.0000   0.0000   0.0000   0.0000   0.0000
     0.0000   0.0000   0.0000   0.0000   0.0000   0.0000   0.0000   0.0000
     0.0000   0.0000   0.0000   0.0000   0.0000   0.0000   0.0000   0.0000
     0.0000   0.0000   0.0000   0.0000   0.0000   0.0000   0.0000   0.0000
     0.0000   0.0000   0.0000   0.0000   0.0000   0.0000   0.0000   0.0000
     0.0000   0.0000   0.0000   0.0000   0.0000   0.0000   0.0000   0.0000
     0.0000   0.0000   0.0000   0.0000   0.0000   0.0000   0.0000   0.0000
     0.0000   0.0000   0.0000   0.0000   0.0000   0.0000   0.0000   0.0000
     0.0000   0.0000   0.0000   0.0000   0.0000   0.0000   0.0000   0.0000
     0.0000   0.0000   0.0000   0.0000   0.0000   0.0000   0.0000   0.0000
     0.0000   0.0000   0.0000   0.0000   0.0000   0.0000   0.0000   0.0000
     0.0000   0.0000   0.0000   0.0000   0.0000   0.0000   0.0000   0.0000
     0.0000   0.0000   0.0000   0.0000   0.0000   0.0000   0.0000   0.0000
     0.0000   0.0000   0.0000   0.0000   0.0000   0.0000   0.0000   0.0000
     0.0000   0.0000   0.0000   0.0000   0.0000   0.0000   0.0000   0.0000
     0.0000   0.0000   0.0000   0.0000   0.0000   0.0000   0.0000   0.0000
     0.0000   0.0000   0.0000   0.0000   0.0000   0.0000   0.0000   0.0000
     0.0000   0.0000   0.0000   0.0000   0.0000   0.0000   0.0000   0.0000
     0.0000   0.0000   0.0000   0.0000   0.0000   0.0000   0.0000   0.0000

          k = 0.0000 0.3853 0.0000 (  3830 PWs)   bands (ev):

   -88.9830 -88.9825 -88.9799 -88.9798 -73.6294 -73.6292 -52.2604 -52.2591
   -52.2582 -52.2536 -52.2389 -52.2383 -52.2318 -52.2286 -52.1181 -52.1143
   -52.1102 -52.1097 -42.3622 -42.3590 -42.3506 -42.3498 -42.2341 -42.2318
   -12.5802 -12.5118 -11.7198 -11.6705 -11.3135 -11.3072 -11.2974 -11.2907
   -11.1214 -11.0727 -11.0092 -10.9146   0.3432   0.3452   1.0495   1.0764
     1.2018   1.2158   1.2301   1.3002   1.4323   1.5933   1.6173   1.6183
     1.6344   1.8793   2.2242   2.2385   2.5352   2.5438   2.8024   2.9571
     3.0158   3.0365   3.0472   3.2668   3.3937   3.4273   3.4949   3.5234
     3.9142   3.9167   4.4195   4.4921   4.7886   4.8310   5.1608   5.6696
     5.7454   5.7492   5.7931   5.8072   5.9450   5.9673   6.1167   6.1192
     6.2157   6.2293   6.3706   6.4264   6.6122   6.6182   6.8008   6.8923
     6.9686   7.1057   8.5485   8.5629   8.6046   8.6697   8.8184   8.8281
     8.8432   8.8846   9.3329   9.3550   9.3935   9.4024  15.0737  16.4821
    17.2495  17.7957  17.8809  18.5358  18.5818  18.7844  19.5605  19.6328
    19.7353  20.8117  21.0289  21.1153  21.1218  21.3739  21.3926  21.5761
    21.5920  21.6885  21.7943  22.2573  22.6407  23.0594  23.3380  23.6745
    23.7225  23.7878  24.3205  24.6722  24.9207  25.0582  25.5817  25.6164
    25.7381  26.3442  26.5773  27.1031  27.1246  27.4451  27.4693  27.5059
    28.5922  29.1139  29.2851  29.6914  29.7803  29.9818  30.0485  30.2995
    30.4623  31.2999  31.5485  31.6644  31.9061  32.0701  32.5036  32.9971
    33.0584  33.2971  33.3173  33.7555  34.0560  34.2421  34.3661  34.5585
    35.0588  35.4211  36.1438  36.2420  36.4441  37.1151  37.2196  37.5025
    37.9108  37.9897  38.1097  38.4704  38.6469  38.8118  38.8135  38.9057
    39.2164  39.4336  39.7712  39.9409  40.3902  40.4744  40.5846  40.8943
    41.1458  41.2900  41.3468  41.4845  41.9321  42.2772  42.3093  42.4868
    42.6529  42.6904  42.8069  42.8496  42.9067  43.2242  43.7037  43.8740
    44.0630  44.0959  44.3951  44.8473  45.1468  45.2185  45.2905  45.3704
    45.6788  45.8644  45.9999  46.0175  46.3800  46.5841  46.6551  46.6693
    46.8049  46.9493  47.3224  47.4107  47.5525  48.0403  48.3384  48.6546
    48.9797  49.0474  49.0822  49.2275  49.3651  49.9933  50.2098  50.4083
    50.6842  51.1532  51.2516  51.3875  51.4525  51.7878  51.8739  51.9459
    52.2092  52.4880  52.6412  52.7115  52.8561  52.9442  53.0111  53.1028

     occupation numbers 
     1.0000   1.0000   1.0000   1.0000   1.0000   1.0000   1.0000   1.0000
     1.0000   1.0000   1.0000   1.0000   1.0000   1.0000   1.0000   1.0000
     1.0000   1.0000   1.0000   1.0000   1.0000   1.0000   1.0000   1.0000
     1.0000   1.0000   1.0000   1.0000   1.0000   1.0000   1.0000   1.0000
     1.0000   1.0000   1.0000   1.0000   1.0000   1.0000   1.0000   1.0000
     1.0000   1.0000   1.0000   1.0000   1.0000   1.0000   1.0000   1.0000
     1.0000   1.0000   1.0000   1.0000   1.0000   1.0000   1.0000   1.0000
     1.0000   1.0000   1.0000   1.0000   1.0000   1.0000   1.0000   1.0000
     1.0000   1.0000   1.0000   1.0000   1.0000   1.0000   1.0000   1.0000
     1.0000   1.0000   1.0000   1.0000   1.0000   1.0000   1.0000   1.0000
     1.0000   1.0000   1.0000   1.0000   1.0000   0.0000   0.0000   0.0000
     0.0000   0.0000   0.0000   0.0000   0.0000   0.0000   0.0000   0.0000
     0.0000   0.0000   0.0000   0.0000   0.0000   0.0000   0.0000   0.0000
     0.0000   0.0000   0.0000   0.0000   0.0000   0.0000   0.0000   0.0000
     0.0000   0.0000   0.0000   0.0000   0.0000   0.0000   0.0000   0.0000
     0.0000   0.0000   0.0000   0.0000   0.0000   0.0000   0.0000   0.0000
     0.0000   0.0000   0.0000   0.0000   0.0000   0.0000   0.0000   0.0000
     0.0000   0.0000   0.0000   0.0000   0.0000   0.0000   0.0000   0.0000
     0.0000   0.0000   0.0000   0.0000   0.0000   0.0000   0.0000   0.0000
     0.0000   0.0000   0.0000   0.0000   0.0000   0.0000   0.0000   0.0000
     0.0000   0.0000   0.0000   0.0000   0.0000   0.0000   0.0000   0.0000
     0.0000   0.0000   0.0000   0.0000   0.0000   0.0000   0.0000   0.0000
     0.0000   0.0000   0.0000   0.0000   0.0000   0.0000   0.0000   0.0000
     0.0000   0.0000   0.0000   0.0000   0.0000   0.0000   0.0000   0.0000
     0.0000   0.0000   0.0000   0.0000   0.0000   0.0000   0.0000   0.0000
     0.0000   0.0000   0.0000   0.0000   0.0000   0.0000   0.0000   0.0000
     0.0000   0.0000   0.0000   0.0000   0.0000   0.0000   0.0000   0.0000
     0.0000   0.0000   0.0000   0.0000   0.0000   0.0000   0.0000   0.0000
     0.0000   0.0000   0.0000   0.0000   0.0000   0.0000   0.0000   0.0000
     0.0000   0.0000   0.0000   0.0000   0.0000   0.0000   0.0000   0.0000
     0.0000   0.0000   0.0000   0.0000   0.0000   0.0000   0.0000   0.0000
     0.0000   0.0000   0.0000   0.0000   0.0000   0.0000   0.0000   0.0000

          k = 0.0000 0.3853 0.1716 (  3840 PWs)   bands (ev):

   -88.9829 -88.9827 -88.9800 -88.9799 -73.6294 -73.6293 -52.2588 -52.2584
   -52.2577 -52.2546 -52.2397 -52.2381 -52.2321 -52.2316 -52.1172 -52.1162
   -52.1127 -52.1114 -42.3622 -42.3602 -42.3502 -42.3501 -42.2346 -42.2343
   -12.5640 -12.5295 -11.7086 -11.6843 -11.3122 -11.3089 -11.2953 -11.2918
   -11.1077 -11.0831 -10.9862 -10.9381   0.3446   0.3511   1.0751   1.1107
     1.1502   1.2045   1.2096   1.2339   1.5774   1.6021   1.6124   1.6139
     1.6256   1.7855   2.2240   2.2268   2.5331   2.5374   2.8650   2.9507
     3.0080   3.0153   3.0836   3.1919   3.4181   3.4391   3.4738   3.4939
     3.9142   3.9178   4.4418   4.4769   4.7919   4.8170   5.3061   5.5392
     5.7451   5.7471   5.7917   5.8017   5.9491   5.9562   6.1176   6.1205
     6.2101   6.2186   6.3808   6.4036   6.6187   6.6199   6.8182   6.8607
     7.0170   7.0839   8.5365   8.5450   8.6209   8.6629   8.8120   8.8232
     8.8457   8.8775   9.3259   9.3395   9.3988   9.4109  15.3071  15.9153
    17.7672  17.8462  17.8785  18.4571  18.6105  18.6323  19.5629  19.6099
    19.9511  20.4890  20.8913  21.0330  21.2644  21.2953  21.4141  21.4818
    21.6037  21.6601  22.2117  22.3801  22.5631  23.1176  23.2733  23.4424
    23.7269  23.7600  24.5318  24.6358  24.9504  25.0938  25.2119  25.4562
    25.9327  26.5215  26.5926  27.0059  27.1636  27.3196  27.5571  28.2303
    28.4498  28.9547  29.3509  29.5589  29.6986  29.8872  30.0820  30.4860
    30.8810  30.9309  31.1824  31.5594  32.0807  32.1397  32.2617  32.6958
    32.8203  32.8738  33.1036  33.2687  34.3243  34.4729  34.7463  35.5241
    35.5544  35.8561  36.0091  36.3801  36.7237  36.8785  37.1330  37.2240
    37.4168  37.9210  38.0896  38.3743  38.4117  39.0666  39.1420  39.3042
    39.4479  39.5929  39.6505  40.0134  40.4062  40.4553  40.5896  40.7863
    40.8421  41.0446  41.4022  41.6675  41.6972  41.7884  42.0336  42.2080
    42.2530  42.5377  42.7072  43.0272  43.0843  43.2529  43.4793  43.8859
    44.0119  44.3399  44.5309  44.7333  44.7876  45.2096  45.3142  45.4988
    45.5578  45.7292  45.9045  46.0048  46.1825  46.5282  46.7499  46.8118
    46.9724  47.2985  47.5283  47.6986  47.8164  47.9623  48.7458  48.8113
    48.9586  49.0431  49.6243  49.7526  49.9167  50.2335  50.2625  50.6336
    50.6531  50.8424  51.0418  51.1193  51.1808  51.4568  51.8016  51.8234
    51.9121  52.4661  52.4801  52.6822  52.8435  53.0138  53.1807  53.4965

     occupation numbers 
     1.0000   1.0000   1.0000   1.0000   1.0000   1.0000   1.0000   1.0000
     1.0000   1.0000   1.0000   1.0000   1.0000   1.0000   1.0000   1.0000
     1.0000   1.0000   1.0000   1.0000   1.0000   1.0000   1.0000   1.0000
     1.0000   1.0000   1.0000   1.0000   1.0000   1.0000   1.0000   1.0000
     1.0000   1.0000   1.0000   1.0000   1.0000   1.0000   1.0000   1.0000
     1.0000   1.0000   1.0000   1.0000   1.0000   1.0000   1.0000   1.0000
     1.0000   1.0000   1.0000   1.0000   1.0000   1.0000   1.0000   1.0000
     1.0000   1.0000   1.0000   1.0000   1.0000   1.0000   1.0000   1.0000
     1.0000   1.0000   1.0000   1.0000   1.0000   1.0000   1.0000   1.0000
     1.0000   1.0000   1.0000   1.0000   1.0000   1.0000   1.0000   1.0000
     1.0000   1.0000   1.0000   1.0000   1.0000   0.0000   0.0000   0.0000
     0.0000   0.0000   0.0000   0.0000   0.0000   0.0000   0.0000   0.0000
     0.0000   0.0000   0.0000   0.0000   0.0000   0.0000   0.0000   0.0000
     0.0000   0.0000   0.0000   0.0000   0.0000   0.0000   0.0000   0.0000
     0.0000   0.0000   0.0000   0.0000   0.0000   0.0000   0.0000   0.0000
     0.0000   0.0000   0.0000   0.0000   0.0000   0.0000   0.0000   0.0000
     0.0000   0.0000   0.0000   0.0000   0.0000   0.0000   0.0000   0.0000
     0.0000   0.0000   0.0000   0.0000   0.0000   0.0000   0.0000   0.0000
     0.0000   0.0000   0.0000   0.0000   0.0000   0.0000   0.0000   0.0000
     0.0000   0.0000   0.0000   0.0000   0.0000   0.0000   0.0000   0.0000
     0.0000   0.0000   0.0000   0.0000   0.0000   0.0000   0.0000   0.0000
     0.0000   0.0000   0.0000   0.0000   0.0000   0.0000   0.0000   0.0000
     0.0000   0.0000   0.0000   0.0000   0.0000   0.0000   0.0000   0.0000
     0.0000   0.0000   0.0000   0.0000   0.0000   0.0000   0.0000   0.0000
     0.0000   0.0000   0.0000   0.0000   0.0000   0.0000   0.0000   0.0000
     0.0000   0.0000   0.0000   0.0000   0.0000   0.0000   0.0000   0.0000
     0.0000   0.0000   0.0000   0.0000   0.0000   0.0000   0.0000   0.0000
     0.0000   0.0000   0.0000   0.0000   0.0000   0.0000   0.0000   0.0000
     0.0000   0.0000   0.0000   0.0000   0.0000   0.0000   0.0000   0.0000
     0.0000   0.0000   0.0000   0.0000   0.0000   0.0000   0.0000   0.0000
     0.0000   0.0000   0.0000   0.0000   0.0000   0.0000   0.0000   0.0000
     0.0000   0.0000   0.0000   0.0000   0.0000   0.0000   0.0000   0.0000

          k = 0.3333 0.1932 0.0000 (  3830 PWs)   bands (ev):

   -88.9830 -88.9825 -88.9799 -88.9798 -73.6294 -73.6292 -52.2603 -52.2591
   -52.2583 -52.2536 -52.2389 -52.2383 -52.2318 -52.2286 -52.1181 -52.1143
   -52.1102 -52.1097 -42.3622 -42.3590 -42.3506 -42.3498 -42.2341 -42.2318
   -12.5802 -12.5118 -11.7198 -11.6705 -11.3135 -11.3072 -11.2974 -11.2907
   -11.1214 -11.0727 -11.0093 -10.9146   0.3432   0.3452   1.0495   1.0764
     1.2018   1.2158   1.2301   1.3002   1.4323   1.5933   1.6173   1.6183
     1.6344   1.8793   2.2242   2.2385   2.5352   2.5438   2.8024   2.9571
     3.0158   3.0365   3.0472   3.2668   3.3937   3.4273   3.4949   3.5234
     3.9142   3.9167   4.4195   4.4921   4.7887   4.8310   5.1608   5.6696
     5.7454   5.7492   5.7931   5.8072   5.9450   5.9673   6.1167   6.1192
     6.2157   6.2294   6.3706   6.4264   6.6122   6.6182   6.8009   6.8923
     6.9686   7.1057   8.5485   8.5629   8.6046   8.6697   8.8184   8.8281
     8.8432   8.8846   9.3329   9.3550   9.3935   9.4024  15.0737  16.4821
    17.2495  17.7957  17.8809  18.5358  18.5818  18.7844  19.5605  19.6328
    19.7353  20.8117  21.0289  21.1153  21.1218  21.3739  21.3926  21.5761
    21.5920  21.6885  21.7943  22.2573  22.6407  23.0594  23.3380  23.6745
    23.7225  23.7878  24.3205  24.6722  24.9207  25.0582  25.5817  25.6164
    25.7381  26.3442  26.5772  27.1031  27.1246  27.4451  27.4693  27.5059
    28.5922  29.1139  29.2851  29.6914  29.7803  29.9818  30.0485  30.2995
    30.4623  31.2999  31.5485  31.6644  31.9061  32.0701  32.5036  32.9971
    33.0584  33.2971  33.3173  33.7555  34.0560  34.2421  34.3661  34.5585
    35.0588  35.4211  36.1438  36.2420  36.4441  37.1151  37.2196  37.5025
    37.9108  37.9897  38.1097  38.4704  38.6469  38.8118  38.8135  38.9057
    39.2164  39.4336  39.7712  39.9409  40.3902  40.4744  40.5846  40.8943
    41.1458  41.2900  41.3468  41.4845  41.9321  42.2772  42.3093  42.4868
    42.6529  42.6904  42.8069  42.8496  42.9067  43.2242  43.7037  43.8740
    44.0630  44.0959  44.3951  44.8473  45.1468  45.2185  45.2905  45.3704
    45.6788  45.8644  45.9999  46.0175  46.3800  46.5841  46.6551  46.6693
    46.8050  46.9493  47.3224  47.4107  47.5525  48.0403  48.3384  48.6546
    48.9797  49.0474  49.0822  49.2275  49.3651  49.9933  50.2098  50.4083
    50.6842  51.1532  51.2516  51.3875  51.4525  51.7878  51.8739  51.9459
    52.2092  52.4880  52.6412  52.7115  52.8561  52.9442  53.0111  53.1028

     occupation numbers 
     1.0000   1.0000   1.0000   1.0000   1.0000   1.0000   1.0000   1.0000
     1.0000   1.0000   1.0000   1.0000   1.0000   1.0000   1.0000   1.0000
     1.0000   1.0000   1.0000   1.0000   1.0000   1.0000   1.0000   1.0000
     1.0000   1.0000   1.0000   1.0000   1.0000   1.0000   1.0000   1.0000
     1.0000   1.0000   1.0000   1.0000   1.0000   1.0000   1.0000   1.0000
     1.0000   1.0000   1.0000   1.0000   1.0000   1.0000   1.0000   1.0000
     1.0000   1.0000   1.0000   1.0000   1.0000   1.0000   1.0000   1.0000
     1.0000   1.0000   1.0000   1.0000   1.0000   1.0000   1.0000   1.0000
     1.0000   1.0000   1.0000   1.0000   1.0000   1.0000   1.0000   1.0000
     1.0000   1.0000   1.0000   1.0000   1.0000   1.0000   1.0000   1.0000
     1.0000   1.0000   1.0000   1.0000   1.0000   0.0000   0.0000   0.0000
     0.0000   0.0000   0.0000   0.0000   0.0000   0.0000   0.0000   0.0000
     0.0000   0.0000   0.0000   0.0000   0.0000   0.0000   0.0000   0.0000
     0.0000   0.0000   0.0000   0.0000   0.0000   0.0000   0.0000   0.0000
     0.0000   0.0000   0.0000   0.0000   0.0000   0.0000   0.0000   0.0000
     0.0000   0.0000   0.0000   0.0000   0.0000   0.0000   0.0000   0.0000
     0.0000   0.0000   0.0000   0.0000   0.0000   0.0000   0.0000   0.0000
     0.0000   0.0000   0.0000   0.0000   0.0000   0.0000   0.0000   0.0000
     0.0000   0.0000   0.0000   0.0000   0.0000   0.0000   0.0000   0.0000
     0.0000   0.0000   0.0000   0.0000   0.0000   0.0000   0.0000   0.0000
     0.0000   0.0000   0.0000   0.0000   0.0000   0.0000   0.0000   0.0000
     0.0000   0.0000   0.0000   0.0000   0.0000   0.0000   0.0000   0.0000
     0.0000   0.0000   0.0000   0.0000   0.0000   0.0000   0.0000   0.0000
     0.0000   0.0000   0.0000   0.0000   0.0000   0.0000   0.0000   0.0000
     0.0000   0.0000   0.0000   0.0000   0.0000   0.0000   0.0000   0.0000
     0.0000   0.0000   0.0000   0.0000   0.0000   0.0000   0.0000   0.0000
     0.0000   0.0000   0.0000   0.0000   0.0000   0.0000   0.0000   0.0000
     0.0000   0.0000   0.0000   0.0000   0.0000   0.0000   0.0000   0.0000
     0.0000   0.0000   0.0000   0.0000   0.0000   0.0000   0.0000   0.0000
     0.0000   0.0000   0.0000   0.0000   0.0000   0.0000   0.0000   0.0000
     0.0000   0.0000   0.0000   0.0000   0.0000   0.0000   0.0000   0.0000
     0.0000   0.0000   0.0000   0.0000   0.0000   0.0000   0.0000   0.0000

          k = 0.3333 0.1932 0.1716 (  3840 PWs)   bands (ev):

   -88.9829 -88.9827 -88.9800 -88.9799 -73.6294 -73.6293 -52.2588 -52.2584
   -52.2577 -52.2546 -52.2397 -52.2381 -52.2321 -52.2316 -52.1172 -52.1162
   -52.1127 -52.1114 -42.3622 -42.3602 -42.3503 -42.3501 -42.2346 -42.2343
   -12.5640 -12.5295 -11.7086 -11.6843 -11.3122 -11.3089 -11.2953 -11.2918
   -11.1077 -11.0831 -10.9862 -10.9381   0.3446   0.3511   1.0751   1.1107
     1.1502   1.2045   1.2096   1.2339   1.5774   1.6022   1.6124   1.6139
     1.6256   1.7855   2.2240   2.2268   2.5331   2.5374   2.8650   2.9507
     3.0080   3.0153   3.0837   3.1919   3.4181   3.4390   3.4739   3.4940
     3.9142   3.9178   4.4418   4.4769   4.7920   4.8170   5.3061   5.5392
     5.7451   5.7471   5.7917   5.8017   5.9491   5.9562   6.1176   6.1205
     6.2101   6.2186   6.3807   6.4036   6.6187   6.6199   6.8183   6.8607
     7.0170   7.0839   8.5365   8.5450   8.6210   8.6629   8.8120   8.8232
     8.8457   8.8775   9.3259   9.3395   9.3988   9.4109  15.3071  15.9153
    17.7672  17.8462  17.8785  18.4571  18.6105  18.6323  19.5629  19.6099
    19.9511  20.4890  20.8913  21.0330  21.2644  21.2953  21.4141  21.4818
    21.6037  21.6601  22.2117  22.3801  22.5631  23.1176  23.2733  23.4424
    23.7269  23.7600  24.5318  24.6358  24.9504  25.0938  25.2119  25.4562
    25.9327  26.5215  26.5926  27.0059  27.1636  27.3196  27.5571  28.2303
    28.4498  28.9547  29.3509  29.5589  29.6986  29.8872  30.0820  30.4860
    30.8810  30.9309  31.1824  31.5594  32.0808  32.1397  32.2618  32.6958
    32.8203  32.8738  33.1036  33.2687  34.3243  34.4729  34.7463  35.5241
    35.5544  35.8561  36.0091  36.3801  36.7237  36.8785  37.1330  37.2240
    37.4168  37.9210  38.0896  38.3743  38.4117  39.0666  39.1420  39.3042
    39.4479  39.5929  39.6505  40.0134  40.4062  40.4553  40.5896  40.7863
    40.8421  41.0446  41.4022  41.6675  41.6972  41.7884  42.0336  42.2080
    42.2530  42.5377  42.7072  43.0272  43.0843  43.2529  43.4793  43.8859
    44.0119  44.3399  44.5309  44.7333  44.7876  45.2096  45.3142  45.4988
    45.5578  45.7292  45.9045  46.0048  46.1825  46.5282  46.7499  46.8118
    46.9724  47.2985  47.5283  47.6986  47.8164  47.9623  48.7458  48.8113
    48.9586  49.0431  49.6243  49.7526  49.9167  50.2335  50.2625  50.6336
    50.6531  50.8424  51.0418  51.1193  51.1808  51.4568  51.8016  51.8234
    51.9121  52.4661  52.4801  52.6821  52.8435  53.0138  53.1807  53.4965

     occupation numbers 
     1.0000   1.0000   1.0000   1.0000   1.0000   1.0000   1.0000   1.0000
     1.0000   1.0000   1.0000   1.0000   1.0000   1.0000   1.0000   1.0000
     1.0000   1.0000   1.0000   1.0000   1.0000   1.0000   1.0000   1.0000
     1.0000   1.0000   1.0000   1.0000   1.0000   1.0000   1.0000   1.0000
     1.0000   1.0000   1.0000   1.0000   1.0000   1.0000   1.0000   1.0000
     1.0000   1.0000   1.0000   1.0000   1.0000   1.0000   1.0000   1.0000
     1.0000   1.0000   1.0000   1.0000   1.0000   1.0000   1.0000   1.0000
     1.0000   1.0000   1.0000   1.0000   1.0000   1.0000   1.0000   1.0000
     1.0000   1.0000   1.0000   1.0000   1.0000   1.0000   1.0000   1.0000
     1.0000   1.0000   1.0000   1.0000   1.0000   1.0000   1.0000   1.0000
     1.0000   1.0000   1.0000   1.0000   1.0000   0.0000   0.0000   0.0000
     0.0000   0.0000   0.0000   0.0000   0.0000   0.0000   0.0000   0.0000
     0.0000   0.0000   0.0000   0.0000   0.0000   0.0000   0.0000   0.0000
     0.0000   0.0000   0.0000   0.0000   0.0000   0.0000   0.0000   0.0000
     0.0000   0.0000   0.0000   0.0000   0.0000   0.0000   0.0000   0.0000
     0.0000   0.0000   0.0000   0.0000   0.0000   0.0000   0.0000   0.0000
     0.0000   0.0000   0.0000   0.0000   0.0000   0.0000   0.0000   0.0000
     0.0000   0.0000   0.0000   0.0000   0.0000   0.0000   0.0000   0.0000
     0.0000   0.0000   0.0000   0.0000   0.0000   0.0000   0.0000   0.0000
     0.0000   0.0000   0.0000   0.0000   0.0000   0.0000   0.0000   0.0000
     0.0000   0.0000   0.0000   0.0000   0.0000   0.0000   0.0000   0.0000
     0.0000   0.0000   0.0000   0.0000   0.0000   0.0000   0.0000   0.0000
     0.0000   0.0000   0.0000   0.0000   0.0000   0.0000   0.0000   0.0000
     0.0000   0.0000   0.0000   0.0000   0.0000   0.0000   0.0000   0.0000
     0.0000   0.0000   0.0000   0.0000   0.0000   0.0000   0.0000   0.0000
     0.0000   0.0000   0.0000   0.0000   0.0000   0.0000   0.0000   0.0000
     0.0000   0.0000   0.0000   0.0000   0.0000   0.0000   0.0000   0.0000
     0.0000   0.0000   0.0000   0.0000   0.0000   0.0000   0.0000   0.0000
     0.0000   0.0000   0.0000   0.0000   0.0000   0.0000   0.0000   0.0000
     0.0000   0.0000   0.0000   0.0000   0.0000   0.0000   0.0000   0.0000
     0.0000   0.0000   0.0000   0.0000   0.0000   0.0000   0.0000   0.0000
     0.0000   0.0000   0.0000   0.0000   0.0000   0.0000   0.0000   0.0000

          k = 0.3333 0.5784 0.0000 (  3826 PWs)   bands (ev):

   -88.9813 -88.9812 -88.9812 -88.9811 -73.6293 -73.6292 -52.2623 -52.2599
   -52.2457 -52.2456 -52.2452 -52.2439 -52.2291 -52.2288 -52.1164 -52.1158
   -52.1119 -52.1119 -42.3597 -42.3586 -42.3500 -42.3487 -42.2363 -42.2315
   -11.9784 -11.9652 -11.9408 -11.9303 -11.8486 -11.8410 -11.1076 -11.1075
   -11.0856 -11.0538 -11.0344 -11.0315   0.7125   0.7141   0.7400   0.8334
     0.8927   0.8947   1.6364   1.7080   1.7116   1.7509   1.8304   1.8943
     1.9178   1.9224   2.0001   2.0169   2.0240   2.0273   2.5622   2.5803
     2.5951   2.9880   3.0375   3.0460   3.6778   3.6929   3.7283   3.7375
     3.7401   3.7612   4.8689   4.9718   4.9971   5.0191   5.0677   5.1698
     5.9655   5.9744   5.9904   6.0085   6.0138   6.0139   6.0808   6.0965
     6.2742   6.2869   6.3216   6.3266   6.6172   6.6253   6.6633   6.7245
     6.8180   6.8182   8.2786   8.3363   8.4269   8.6227   8.6804   8.7109
     9.1073   9.1465   9.4296   9.4716   9.4738   9.5047  16.6544  16.7253
    16.7829  17.4297  17.4940  17.6606  18.6668  18.7075  18.7886  20.0803
    20.1320  20.2910  20.4354  21.0670  21.2779  21.3529  21.4274  21.6871
    22.0378  22.1240  22.2023  22.2679  22.5196  22.8079  22.8083  22.9075
    23.6807  23.8187  24.3103  24.4903  24.6739  24.8241  25.8520  26.1548
    26.2544  26.7362  27.1405  27.2029  27.7482  27.8246  27.8619  27.9010
    28.0845  28.4883  29.5610  29.8835  30.0152  30.1967  30.2459  30.4596
    30.7722  30.8019  30.9790  31.1118  31.3640  31.6742  31.9975  32.1781
    32.7122  32.8242  32.8677  32.9192  33.6218  33.6975  34.1653  34.7613
    34.8662  35.6276  36.0420  36.1921  36.4031  36.4149  36.4352  37.6279
    37.7077  37.8756  38.2354  38.4420  39.0416  39.4080  39.4526  39.5448
    39.6275  40.1090  40.1478  40.3631  40.4648  40.5998  40.8358  41.3412
    41.9372  41.9909  42.8102  42.8897  43.1422  43.2132  43.4119  43.5765
    43.6221  43.6629  43.7032  43.9965  44.1059  44.1085  44.4041  44.4768
    44.4899  44.5676  44.6087  44.8554  44.9159  44.9329  45.0043  45.0785
    45.1372  45.5472  45.7689  45.9352  46.3090  46.4839  46.5773  46.5969
    46.7133  46.7738  46.9496  47.3878  47.5103  47.5376  47.7748  47.7909
    47.8404  48.0375  48.1579  48.1776  48.4750  49.0930  49.3826  49.4960
    49.6588  50.0484  50.7225  50.8011  50.8949  50.9142  50.9834  50.9878
    51.3189  51.4994  51.6063  51.6099  51.6483  52.0486  52.0491  52.1556

     occupation numbers 
     1.0000   1.0000   1.0000   1.0000   1.0000   1.0000   1.0000   1.0000
     1.0000   1.0000   1.0000   1.0000   1.0000   1.0000   1.0000   1.0000
     1.0000   1.0000   1.0000   1.0000   1.0000   1.0000   1.0000   1.0000
     1.0000   1.0000   1.0000   1.0000   1.0000   1.0000   1.0000   1.0000
     1.0000   1.0000   1.0000   1.0000   1.0000   1.0000   1.0000   1.0000
     1.0000   1.0000   1.0000   1.0000   1.0000   1.0000   1.0000   1.0000
     1.0000   1.0000   1.0000   1.0000   1.0000   1.0000   1.0000   1.0000
     1.0000   1.0000   1.0000   1.0000   1.0000   1.0000   1.0000   1.0000
     1.0000   1.0000   1.0000   1.0000   1.0000   1.0000   1.0000   1.0000
     1.0000   1.0000   1.0000   1.0000   1.0000   1.0000   1.0000   1.0000
     1.0000   1.0000   1.0000   1.0000   1.0000   0.0000   0.0000   0.0000
     0.0000   0.0000   0.0000   0.0000   0.0000   0.0000   0.0000   0.0000
     0.0000   0.0000   0.0000   0.0000   0.0000   0.0000   0.0000   0.0000
     0.0000   0.0000   0.0000   0.0000   0.0000   0.0000   0.0000   0.0000
     0.0000   0.0000   0.0000   0.0000   0.0000   0.0000   0.0000   0.0000
     0.0000   0.0000   0.0000   0.0000   0.0000   0.0000   0.0000   0.0000
     0.0000   0.0000   0.0000   0.0000   0.0000   0.0000   0.0000   0.0000
     0.0000   0.0000   0.0000   0.0000   0.0000   0.0000   0.0000   0.0000
     0.0000   0.0000   0.0000   0.0000   0.0000   0.0000   0.0000   0.0000
     0.0000   0.0000   0.0000   0.0000   0.0000   0.0000   0.0000   0.0000
     0.0000   0.0000   0.0000   0.0000   0.0000   0.0000   0.0000   0.0000
     0.0000   0.0000   0.0000   0.0000   0.0000   0.0000   0.0000   0.0000
     0.0000   0.0000   0.0000   0.0000   0.0000   0.0000   0.0000   0.0000
     0.0000   0.0000   0.0000   0.0000   0.0000   0.0000   0.0000   0.0000
     0.0000   0.0000   0.0000   0.0000   0.0000   0.0000   0.0000   0.0000
     0.0000   0.0000   0.0000   0.0000   0.0000   0.0000   0.0000   0.0000
     0.0000   0.0000   0.0000   0.0000   0.0000   0.0000   0.0000   0.0000
     0.0000   0.0000   0.0000   0.0000   0.0000   0.0000   0.0000   0.0000
     0.0000   0.0000   0.0000   0.0000   0.0000   0.0000   0.0000   0.0000
     0.0000   0.0000   0.0000   0.0000   0.0000   0.0000   0.0000   0.0000
     0.0000   0.0000   0.0000   0.0000   0.0000   0.0000   0.0000   0.0000
     0.0000   0.0000   0.0000   0.0000   0.0000   0.0000   0.0000   0.0000

          k = 0.3333 0.5784 0.1716 (  3828 PWs)   bands (ev):

   -88.9814 -88.9813 -88.9812 -88.9812 -73.6294 -73.6292 -52.2621 -52.2610
   -52.2468 -52.2459 -52.2451 -52.2440 -52.2304 -52.2281 -52.1151 -52.1150
   -52.1145 -52.1144 -42.3602 -42.3583 -42.3510 -42.3490 -42.2352 -42.2345
   -11.9666 -11.9554 -11.9427 -11.9421 -11.8527 -11.8480 -11.0933 -11.0885
   -11.0732 -11.0669 -11.0489 -11.0453   0.7448   0.7462   0.7697   0.8037
     0.8583   0.8704   1.6637   1.6914   1.7013   1.7182   1.8283   1.8631
     1.9275   1.9297   2.0160   2.0250   2.0306   2.0318   2.6832   2.6970
     2.7256   2.8981   2.9258   2.9579   3.6743   3.6774   3.7246   3.7278
     3.7347   3.7439   4.9373   4.9751   5.0136   5.0138   5.0452   5.1052
     5.9716   5.9780   5.9929   6.0002   6.0061   6.0080   6.0756   6.0866
     6.2862   6.2936   6.3089   6.3114   6.6377   6.6382   6.6552   6.6866
     6.7973   6.8031   8.3396   8.3821   8.4985   8.5699   8.6101   8.6351
     9.1109   9.1350   9.4405   9.4653   9.4708   9.4830  16.7906  16.8931
    16.9343  17.1486  17.2698  17.3324  18.9975  19.0999  19.1092  19.5348
    19.8134  19.8218  20.9203  21.3091  21.4834  21.5239  21.5482  21.8237
    21.8314  21.9543  22.0660  22.1497  22.4858  22.6712  23.0334  23.1090
    23.5925  23.6709  23.7165  23.8750  25.4554  25.6012  25.9936  26.0074
    26.1407  26.6053  27.1592  27.1880  27.7696  27.7830  27.8553  27.8621
    28.0264  28.5906  29.6688  29.8957  29.9244  30.0071  30.1811  30.4344
    30.7557  30.7970  31.2994  31.4182  31.4667  31.4948  31.7113  31.8721
    32.6026  32.6277  32.7991  33.2966  33.4743  33.4779  34.3521  34.4110
    35.5995  35.7403  35.7761  36.3740  36.6817  36.7415  36.7610  37.4373
    37.7049  37.7592  38.1605  38.2090  38.4712  39.4075  39.4758  39.7201
    39.7443  39.8846  40.0665  40.1937  40.5968  40.7077  41.1434  41.3157
    41.8192  41.9639  42.6437  42.6816  43.0073  43.0430  43.3263  43.3555
    43.6220  43.7181  43.8316  44.0670  44.0900  44.1534  44.2999  44.4653
    44.4871  44.5524  44.7793  44.8420  44.8520  45.1064  45.3222  45.4023
    45.5357  45.6685  45.7206  45.7379  46.0504  46.1949  46.8402  46.8805
    46.9985  47.0018  47.1379  47.1559  47.1602  47.2891  47.4273  47.8734
    47.9421  48.1927  48.2445  48.3309  48.6933  48.8224  48.9530  49.0441
    49.6641  49.8066  50.0107  50.3045  50.3913  50.6411  50.6864  51.2775
    51.2928  51.7119  51.8183  52.2153  52.4677  52.5584  53.2514  53.3574

     occupation numbers 
     1.0000   1.0000   1.0000   1.0000   1.0000   1.0000   1.0000   1.0000
     1.0000   1.0000   1.0000   1.0000   1.0000   1.0000   1.0000   1.0000
     1.0000   1.0000   1.0000   1.0000   1.0000   1.0000   1.0000   1.0000
     1.0000   1.0000   1.0000   1.0000   1.0000   1.0000   1.0000   1.0000
     1.0000   1.0000   1.0000   1.0000   1.0000   1.0000   1.0000   1.0000
     1.0000   1.0000   1.0000   1.0000   1.0000   1.0000   1.0000   1.0000
     1.0000   1.0000   1.0000   1.0000   1.0000   1.0000   1.0000   1.0000
     1.0000   1.0000   1.0000   1.0000   1.0000   1.0000   1.0000   1.0000
     1.0000   1.0000   1.0000   1.0000   1.0000   1.0000   1.0000   1.0000
     1.0000   1.0000   1.0000   1.0000   1.0000   1.0000   1.0000   1.0000
     1.0000   1.0000   1.0000   1.0000   1.0000   0.0000   0.0000   0.0000
     0.0000   0.0000   0.0000   0.0000   0.0000   0.0000   0.0000   0.0000
     0.0000   0.0000   0.0000   0.0000   0.0000   0.0000   0.0000   0.0000
     0.0000   0.0000   0.0000   0.0000   0.0000   0.0000   0.0000   0.0000
     0.0000   0.0000   0.0000   0.0000   0.0000   0.0000   0.0000   0.0000
     0.0000   0.0000   0.0000   0.0000   0.0000   0.0000   0.0000   0.0000
     0.0000   0.0000   0.0000   0.0000   0.0000   0.0000   0.0000   0.0000
     0.0000   0.0000   0.0000   0.0000   0.0000   0.0000   0.0000   0.0000
     0.0000   0.0000   0.0000   0.0000   0.0000   0.0000   0.0000   0.0000
     0.0000   0.0000   0.0000   0.0000   0.0000   0.0000   0.0000   0.0000
     0.0000   0.0000   0.0000   0.0000   0.0000   0.0000   0.0000   0.0000
     0.0000   0.0000   0.0000   0.0000   0.0000   0.0000   0.0000   0.0000
     0.0000   0.0000   0.0000   0.0000   0.0000   0.0000   0.0000   0.0000
     0.0000   0.0000   0.0000   0.0000   0.0000   0.0000   0.0000   0.0000
     0.0000   0.0000   0.0000   0.0000   0.0000   0.0000   0.0000   0.0000
     0.0000   0.0000   0.0000   0.0000   0.0000   0.0000   0.0000   0.0000
     0.0000   0.0000   0.0000   0.0000   0.0000   0.0000   0.0000   0.0000
     0.0000   0.0000   0.0000   0.0000   0.0000   0.0000   0.0000   0.0000
     0.0000   0.0000   0.0000   0.0000   0.0000   0.0000   0.0000   0.0000
     0.0000   0.0000   0.0000   0.0000   0.0000   0.0000   0.0000   0.0000
     0.0000   0.0000   0.0000   0.0000   0.0000   0.0000   0.0000   0.0000
     0.0000   0.0000   0.0000   0.0000   0.0000   0.0000   0.0000   0.0000

          k = 0.3333-0.1921 0.0000 (  3822 PWs)   bands (ev):

   -88.9827 -88.9826 -88.9797 -88.9797 -73.6292 -73.6292 -52.2612 -52.2572
   -52.2543 -52.2540 -52.2394 -52.2350 -52.2334 -52.2282 -52.1195 -52.1147
   -52.1104 -52.1079 -42.3603 -42.3551 -42.3527 -42.3500 -42.2351 -42.2308
   -12.5801 -12.5150 -11.7137 -11.6822 -11.3313 -11.3237 -11.2799 -11.2708
   -11.1097 -11.0799 -11.0053 -10.9156   0.2858   0.4184   1.0539   1.0882
     1.1600   1.2194   1.2658   1.2974   1.4505   1.5835   1.6180   1.6273
     1.6379   1.8562   2.1986   2.2675   2.4574   2.6199   2.8112   2.8593
     3.0243   3.0419   3.1346   3.2397   3.4331   3.4633   3.4821   3.4974
     3.9093   3.9317   4.2995   4.6083   4.6966   4.9319   5.2137   5.6165
     5.7468   5.7518   5.7950   5.8073   5.9530   5.9611   6.1065   6.1222
     6.2149   6.2305   6.3566   6.4481   6.5947   6.6345   6.8049   6.8996
     6.9695   7.1050   8.5154   8.6142   8.6179   8.6549   8.7732   8.8582
     8.8641   8.8732   9.3300   9.3635   9.3990   9.4023  15.0654  16.5000
    17.2544  17.8016  18.0534  18.2379  18.7555  19.1399  19.3036  19.7632
    19.7649  19.9610  20.4803  20.8844  21.0078  21.0965  21.2268  21.5608
    21.7630  22.1515  22.7589  22.8323  22.8975  23.2191  23.4552  23.9380
    23.9901  24.0610  24.1216  24.6560  24.7196  24.8212  25.0916  26.0238
    26.1230  26.1553  26.2755  26.7401  27.0624  27.1842  27.6595  27.7271
    28.1442  28.4517  28.8172  28.8269  28.9393  29.7846  30.1340  30.4558
    31.3167  31.3830  31.6395  31.8735  32.1655  32.4802  33.2150  33.3145
    33.5500  33.7567  33.7769  33.9405  34.1225  34.1957  34.4418  34.5437
    35.0086  35.9614  36.0497  36.1715  36.2408  36.7902  37.2555  37.7431
    37.7546  37.8422  38.0779  38.0964  38.2769  38.4262  39.1117  39.2028
    39.3544  39.3760  39.9113  40.0581  40.1835  40.2653  40.4057  40.4947
    40.5251  40.7990  40.8010  40.9697  41.2481  41.5622  42.2794  42.6182
    42.6723  42.8428  42.9739  43.3175  43.3678  43.4727  43.6647  43.7310
    43.9285  44.1412  44.6019  45.0006  45.0854  45.0969  45.2354  45.4804
    45.7236  45.7870  45.7878  46.2011  46.2206  46.6109  46.8343  46.8935
    47.4013  47.4277  47.5123  47.6969  47.8669  48.5168  48.5858  48.5960
    48.6947  48.9476  49.4606  49.7312  49.7934  50.2015  50.2321  50.4565
    50.6490  50.7500  50.7754  50.8131  51.1734  51.6710  51.9647  52.2628
    52.3350  52.3672  52.6893  52.8006  53.2441  53.3243  53.4695  53.6235

     occupation numbers 
     1.0000   1.0000   1.0000   1.0000   1.0000   1.0000   1.0000   1.0000
     1.0000   1.0000   1.0000   1.0000   1.0000   1.0000   1.0000   1.0000
     1.0000   1.0000   1.0000   1.0000   1.0000   1.0000   1.0000   1.0000
     1.0000   1.0000   1.0000   1.0000   1.0000   1.0000   1.0000   1.0000
     1.0000   1.0000   1.0000   1.0000   1.0000   1.0000   1.0000   1.0000
     1.0000   1.0000   1.0000   1.0000   1.0000   1.0000   1.0000   1.0000
     1.0000   1.0000   1.0000   1.0000   1.0000   1.0000   1.0000   1.0000
     1.0000   1.0000   1.0000   1.0000   1.0000   1.0000   1.0000   1.0000
     1.0000   1.0000   1.0000   1.0000   1.0000   1.0000   1.0000   1.0000
     1.0000   1.0000   1.0000   1.0000   1.0000   1.0000   1.0000   1.0000
     1.0000   1.0000   1.0000   1.0000   1.0000   0.0000   0.0000   0.0000
     0.0000   0.0000   0.0000   0.0000   0.0000   0.0000   0.0000   0.0000
     0.0000   0.0000   0.0000   0.0000   0.0000   0.0000   0.0000   0.0000
     0.0000   0.0000   0.0000   0.0000   0.0000   0.0000   0.0000   0.0000
     0.0000   0.0000   0.0000   0.0000   0.0000   0.0000   0.0000   0.0000
     0.0000   0.0000   0.0000   0.0000   0.0000   0.0000   0.0000   0.0000
     0.0000   0.0000   0.0000   0.0000   0.0000   0.0000   0.0000   0.0000
     0.0000   0.0000   0.0000   0.0000   0.0000   0.0000   0.0000   0.0000
     0.0000   0.0000   0.0000   0.0000   0.0000   0.0000   0.0000   0.0000
     0.0000   0.0000   0.0000   0.0000   0.0000   0.0000   0.0000   0.0000
     0.0000   0.0000   0.0000   0.0000   0.0000   0.0000   0.0000   0.0000
     0.0000   0.0000   0.0000   0.0000   0.0000   0.0000   0.0000   0.0000
     0.0000   0.0000   0.0000   0.0000   0.0000   0.0000   0.0000   0.0000
     0.0000   0.0000   0.0000   0.0000   0.0000   0.0000   0.0000   0.0000
     0.0000   0.0000   0.0000   0.0000   0.0000   0.0000   0.0000   0.0000
     0.0000   0.0000   0.0000   0.0000   0.0000   0.0000   0.0000   0.0000
     0.0000   0.0000   0.0000   0.0000   0.0000   0.0000   0.0000   0.0000
     0.0000   0.0000   0.0000   0.0000   0.0000   0.0000   0.0000   0.0000
     0.0000   0.0000   0.0000   0.0000   0.0000   0.0000   0.0000   0.0000
     0.0000   0.0000   0.0000   0.0000   0.0000   0.0000   0.0000   0.0000
     0.0000   0.0000   0.0000   0.0000   0.0000   0.0000   0.0000   0.0000
     0.0000   0.0000   0.0000   0.0000   0.0000   0.0000   0.0000   0.0000

          k = 0.3333-0.1921 0.1716 (  3842 PWs)   bands (ev):

   -88.9829 -88.9828 -88.9799 -88.9799 -73.6294 -73.6294 -52.2598 -52.2594
   -52.2553 -52.2551 -52.2383 -52.2369 -52.2340 -52.2332 -52.1180 -52.1165
   -52.1128 -52.1111 -42.3596 -42.3594 -42.3525 -42.3518 -42.2356 -42.2338
   -12.5647 -12.5319 -11.7065 -11.6908 -11.3299 -11.3258 -11.2773 -11.2726
   -11.1020 -11.0868 -10.9826 -10.9379   0.3155   0.3824   1.0695   1.1210
     1.1384   1.1901   1.2151   1.2494   1.5868   1.5956   1.6112   1.6167
     1.6284   1.7821   2.2094   2.2394   2.4821   2.5623   2.8855   2.9123
     3.0219   3.0426   3.1148   3.1555   3.4329   3.4423   3.4701   3.4785
     3.9113   3.9179   4.3891   4.5344   4.7441   4.8595   5.3228   5.5221
     5.7410   5.7461   5.7919   5.8016   5.9501   5.9530   6.1104   6.1170
     6.2162   6.2247   6.3679   6.4104   6.6039   6.6299   6.8204   6.8676
     7.0112   7.0805   8.5087   8.5493   8.6389   8.6679   8.7844   8.8255
     8.8657   8.8726   9.3354   9.3446   9.4030   9.4034  15.2996  15.9115
    17.8206  17.8295  17.9969  18.3851  18.6181  19.0212  19.2810  19.3112
    20.0513  20.3259  20.4709  20.6160  20.9301  21.0114  21.3146  21.5545
    22.0309  22.3186  22.5777  22.8527  22.9768  23.0517  23.3268  23.6156
    23.7693  23.8389  24.3092  24.6715  24.9187  25.0601  25.2886  25.5602
    26.2099  26.3641  26.5744  26.8672  27.1980  27.4313  27.5036  27.9729
    28.1853  28.1902  28.4211  28.4786  29.4784  29.5031  29.9764  30.0627
    31.3895  31.6131  31.6970  32.0357  32.1494  32.1896  32.7267  32.7799
    33.5614  33.6012  34.3574  34.5138  34.5243  34.6925  34.8495  34.8555
    35.3336  35.6140  35.9875  36.1588  36.2597  36.6994  36.8126  36.9611
    37.4988  37.9373  38.0409  38.2020  38.3085  38.3912  38.6620  38.7053
    38.9221  39.0441  39.3388  39.6956  39.8723  40.2666  40.4408  40.8532
    41.2337  41.4251  41.4808  41.7068  41.8445  41.9987  42.2313  42.2737
    42.8480  42.8899  42.9066  43.0450  43.3551  43.3848  43.6515  43.8962
    44.1956  44.2125  44.4149  44.8176  44.9340  45.1470  45.2601  45.4783
    45.7511  45.8943  45.9517  46.1324  46.4460  46.6487  46.8258  46.9461
    47.0477  47.2123  47.4550  47.6195  47.6444  48.4681  48.5148  48.7408
    48.7914  48.8810  49.0207  49.3341  49.4228  49.9890  50.1618  50.3982
    50.5558  50.7591  50.8430  50.8664  51.1881  51.3788  51.8098  52.1108
    52.3217  52.6375  52.7973  52.9545  53.0690  53.1092  53.2956  53.4897

     occupation numbers 
     1.0000   1.0000   1.0000   1.0000   1.0000   1.0000   1.0000   1.0000
     1.0000   1.0000   1.0000   1.0000   1.0000   1.0000   1.0000   1.0000
     1.0000   1.0000   1.0000   1.0000   1.0000   1.0000   1.0000   1.0000
     1.0000   1.0000   1.0000   1.0000   1.0000   1.0000   1.0000   1.0000
     1.0000   1.0000   1.0000   1.0000   1.0000   1.0000   1.0000   1.0000
     1.0000   1.0000   1.0000   1.0000   1.0000   1.0000   1.0000   1.0000
     1.0000   1.0000   1.0000   1.0000   1.0000   1.0000   1.0000   1.0000
     1.0000   1.0000   1.0000   1.0000   1.0000   1.0000   1.0000   1.0000
     1.0000   1.0000   1.0000   1.0000   1.0000   1.0000   1.0000   1.0000
     1.0000   1.0000   1.0000   1.0000   1.0000   1.0000   1.0000   1.0000
     1.0000   1.0000   1.0000   1.0000   1.0000   0.0000   0.0000   0.0000
     0.0000   0.0000   0.0000   0.0000   0.0000   0.0000   0.0000   0.0000
     0.0000   0.0000   0.0000   0.0000   0.0000   0.0000   0.0000   0.0000
     0.0000   0.0000   0.0000   0.0000   0.0000   0.0000   0.0000   0.0000
     0.0000   0.0000   0.0000   0.0000   0.0000   0.0000   0.0000   0.0000
     0.0000   0.0000   0.0000   0.0000   0.0000   0.0000   0.0000   0.0000
     0.0000   0.0000   0.0000   0.0000   0.0000   0.0000   0.0000   0.0000
     0.0000   0.0000   0.0000   0.0000   0.0000   0.0000   0.0000   0.0000
     0.0000   0.0000   0.0000   0.0000   0.0000   0.0000   0.0000   0.0000
     0.0000   0.0000   0.0000   0.0000   0.0000   0.0000   0.0000   0.0000
     0.0000   0.0000   0.0000   0.0000   0.0000   0.0000   0.0000   0.0000
     0.0000   0.0000   0.0000   0.0000   0.0000   0.0000   0.0000   0.0000
     0.0000   0.0000   0.0000   0.0000   0.0000   0.0000   0.0000   0.0000
     0.0000   0.0000   0.0000   0.0000   0.0000   0.0000   0.0000   0.0000
     0.0000   0.0000   0.0000   0.0000   0.0000   0.0000   0.0000   0.0000
     0.0000   0.0000   0.0000   0.0000   0.0000   0.0000   0.0000   0.0000
     0.0000   0.0000   0.0000   0.0000   0.0000   0.0000   0.0000   0.0000
     0.0000   0.0000   0.0000   0.0000   0.0000   0.0000   0.0000   0.0000
     0.0000   0.0000   0.0000   0.0000   0.0000   0.0000   0.0000   0.0000
     0.0000   0.0000   0.0000   0.0000   0.0000   0.0000   0.0000   0.0000
     0.0000   0.0000   0.0000   0.0000   0.0000   0.0000   0.0000   0.0000
     0.0000   0.0000   0.0000   0.0000   0.0000   0.0000   0.0000   0.0000

     highest occupied, lowest unoccupied level (ev):     6.7729    6.6182

!    total energy              =   -2114.98044455 Ry
     estimated scf accuracy    <       0.00000068 Ry

     The total energy is the sum of the following terms:
     one-electron contribution =   -1696.17029736 Ry
     hartree contribution      =     915.55336693 Ry
     xc contribution           =    -270.51874564 Ry
     ewald contribution        =    -949.41719561 Ry
     one-center paw contrib.   =    -114.42757286 Ry
      -> PAW hartree energy AE =       0.00000000 Ry
      -> PAW hartree energy PS =       0.00000000 Ry
      -> PAW xc energy AE      =       0.00000000 Ry
      -> PAW xc energy PS      =       0.00000000 Ry
      -> total E_H with PAW    =     915.55336693 Ry
      -> total E_XC with PAW   =    -270.51874564 Ry

     convergence has been achieved in  20 iterations

     Writing all to output data dir bands_nm/myprefix.save/
 
     init_run     :      6.37s CPU      1.95s WALL (       1 calls)
     electrons    :    316.33s CPU     92.38s WALL (       1 calls)

     Called by init_run:
     wfcinit      :      4.85s CPU      1.37s WALL (       1 calls)
     wfcinit:atom :      0.01s CPU      0.00s WALL (       5 calls)
     wfcinit:wfcr :      4.76s CPU      1.35s WALL (       5 calls)
     potinit      :      0.39s CPU      0.14s WALL (       1 calls)
     hinit0       :      0.89s CPU      0.35s WALL (       1 calls)

     Called by electrons:
     c_bands      :    276.24s CPU     81.32s WALL (      20 calls)
     sum_band     :     31.73s CPU      8.79s WALL (      20 calls)
     v_of_rho     :      0.92s CPU      0.24s WALL (      21 calls)
     v_h          :      0.08s CPU      0.02s WALL (      21 calls)
     v_xc         :      0.83s CPU      0.22s WALL (      21 calls)
     newd         :      3.89s CPU      1.07s WALL (      21 calls)
     PAW_pot      :      2.96s CPU      0.78s WALL (      21 calls)
     mix_rho      :      0.28s CPU      0.08s WALL (      20 calls)

     Called by c_bands:
     init_us_2    :      0.23s CPU      0.08s WALL (     205 calls)
     init_us_2:cp :      0.23s CPU      0.08s WALL (     205 calls)
     cegterg      :    225.52s CPU     58.03s WALL (     100 calls)

     Called by sum_band:
     sum_band:wei :      0.00s CPU      0.00s WALL (      20 calls)
     sum_band:loo :     18.03s CPU      4.64s WALL (      20 calls)
     sum_band:buf :      0.32s CPU      0.07s WALL (     100 calls)
     sum_band:ini :      0.10s CPU      0.03s WALL (     100 calls)
     sum_band:cal :      4.30s CPU      1.08s WALL (     100 calls)
     sum_band:bec :      0.13s CPU      0.05s WALL (     100 calls)
     addusdens    :      1.82s CPU      0.63s WALL (      20 calls)
     addusd:skk   :      0.01s CPU      0.00s WALL (      60 calls)
     addusd:dgemm :      0.36s CPU      0.25s WALL (      60 calls)
     addusd:qvan2 :      1.15s CPU      0.31s WALL (      60 calls)

     Called by *egterg:
     cdiaghg      :     81.43s CPU     21.30s WALL (     306 calls)
     cegterg:over :     25.12s CPU      6.36s WALL (     206 calls)
     cegterg:upda :     12.30s CPU      3.12s WALL (     206 calls)
     cegterg:last :     21.78s CPU      5.53s WALL (     141 calls)
     cdiaghg:chol :      5.10s CPU      1.34s WALL (     306 calls)
     cdiaghg:inve :      1.68s CPU      0.44s WALL (     306 calls)
     cdiaghg:para :     18.88s CPU      5.02s WALL (     612 calls)
     h_psi        :     70.84s CPU     18.29s WALL (     311 calls)
     s_psi        :      8.30s CPU      2.10s WALL (     311 calls)
     g_psi        :      0.06s CPU      0.03s WALL (     206 calls)

     Called by h_psi:
     h_psi:calbec :      9.58s CPU      2.44s WALL (     311 calls)
     vloc_psi     :     52.86s CPU     13.69s WALL (     311 calls)
     add_vuspsi   :      8.21s CPU      2.11s WALL (     311 calls)

     General routines
     calbec       :     13.88s CPU      3.52s WALL (     411 calls)
     fft          :      0.79s CPU      0.22s WALL (     271 calls)
     ffts         :      0.10s CPU      0.03s WALL (      41 calls)
     fftw         :     62.87s CPU     14.39s WALL (  137536 calls)
     interpolate  :      0.09s CPU      0.02s WALL (      21 calls)
 
     Parallel routines

     PAW routines
     PAW_pot      :      2.96s CPU      0.78s WALL (      21 calls)
     PAW_symme    :      0.03s CPU      0.01s WALL (      41 calls)
 
     PWSCF        :   5m24.54s CPU   1m35.62s WALL

 
   This run was terminated on:   0:38:21  17Jul2023            

=------------------------------------------------------------------------------=
   JOB DONE.
=------------------------------------------------------------------------------=
