
     Program PWSCF v.7.1 starts on 15Jul2023 at 22:32:43 

     This program is part of the open-source Quantum ESPRESSO suite
     for quantum simulation of materials; please cite
         "P. Giannozzi et al., J. Phys.:Condens. Matter 21 395502 (2009);
         "P. Giannozzi et al., J. Phys.:Condens. Matter 29 465901 (2017);
         "P. Giannozzi et al., J. Chem. Phys. 152 154105 (2020);
          URL http://www.quantum-espresso.org", 
     in publications or presentations arising from this work. More details at
     http://www.quantum-espresso.org/quote

     Parallel version (MPI & OpenMP), running on      32 processor cores
     Number of MPI processes:                 8
     Threads/MPI process:                     4

     MPI processes distributed on     1 nodes
     213753 MiB available memory on the printing compute node when the environment starts
 
     Reading input from espresso_7450.pwi
Warning: card &CELL ignored
Warning: card / ignored

     Current dimensions of program PWSCF are:
     Max number of different atomic species (ntypx) = 10
     Max number of k-points (npk) =  40000
     Max angular momentum in pseudopotentials (lmaxx) =  4
     file O.pbe-n-kjpaw_psl.0.1.UPF: wavefunction(s)  2P renormalized
 
     K-points division:     npool     =       2
     R & G space division:  proc/nbgrp/npool/nimage =       4
     Subspace diagonalization in iterative solution of the eigenvalue problem:
     one sub-group per band group will be used
     scalapack distributed-memory algorithm (size of sub-group:  2*  2 procs)

 
     Parallelization info
     --------------------
     sticks:   dense  smooth     PW     G-vecs:    dense   smooth      PW
     Min         570     282     85                19171     6770    1092
     Max         571     283     86                19172     6774    1093
     Sum        2283    1131    341                76687    27091    4369
 
     Using Slab Decomposition
 


     bravais-lattice index     =            0
     lattice parameter (alat)  =      10.8563  a.u.
     unit-cell volume          =    1220.5406 (a.u.)^3
     number of atoms/cell      =           16
     number of atomic types    =            3
     number of electrons       =       144.00
     number of Kohn-Sham states=          256
     kinetic-energy cutoff     =      30.0000  Ry
     charge density cutoff     =     240.0000  Ry
     scf convergence threshold =      1.0E-06
     mixing beta               =       0.7000
     number of iterations used =            8  plain     mixing
     Exchange-correlation= SLA  PW   PBX  PBC
                           (   1   4   3   4   0   0   0)

     celldm(1)=  10.856286  celldm(2)=   0.000000  celldm(3)=   0.000000
     celldm(4)=   0.000000  celldm(5)=   0.000000  celldm(6)=   0.000000

     crystal axes: (cart. coord. in units of alat)
               a(1) = (   1.000000   0.000000   0.000000 )  
               a(2) = (  -0.000088   1.014935   0.000000 )  
               a(3) = (  -0.400715   0.507297   0.939875 )  

     reciprocal axes: (cart. coord. in units 2 pi/alat)
               b(1) = (  1.000000  0.000087  0.426303 )  
               b(2) = (  0.000000  0.985284 -0.531806 )  
               b(3) = (  0.000000  0.000000  1.063972 )  


     PseudoPot. # 1 for Na read from file:
     /lustre07/scratch/pragov/crystal_structure_design/utils/SSSP/na_pbe_v1.5.uspp.F.UPF
     MD5 check sum: 44600605ef58000f06b90626533354dc
     Pseudo is Ultrasoft, Zval =  9.0
     Generated by new atomic code, or converted to UPF format
     Using radial grid of  819 points,  5 beta functions with: 
                l(1) =   0
                l(2) =   0
                l(3) =   1
                l(4) =   1
                l(5) =   2
     Q(r) pseudized with  8 coefficients,  rinner =    1.250   1.250   1.250
                                                       1.250   1.250

     PseudoPot. # 2 for Mn read from file:
     /lustre07/scratch/pragov/crystal_structure_design/utils/SSSP/mn_pbe_v1.5.uspp.F.UPF
     MD5 check sum: 82ef2b46521d7a7d9e736dc3972e4928
     Pseudo is Ultrasoft + core correction, Zval = 15.0
     Generated by new atomic code, or converted to UPF format
     Using radial grid of  859 points,  6 beta functions with: 
                l(1) =   0
                l(2) =   0
                l(3) =   1
                l(4) =   1
                l(5) =   2
                l(6) =   2
     Q(r) pseudized with  8 coefficients,  rinner =    0.950   0.950   0.950
                                                       0.950   0.950

     PseudoPot. # 3 for O  read from file:
     /lustre07/scratch/pragov/crystal_structure_design/utils/SSSP/O.pbe-n-kjpaw_psl.0.1.UPF
     MD5 check sum: 0234752ac141de4415c5fc33072bef88
     Pseudo is Projector augmented-wave + core cor, Zval =  6.0
     Generated using "atomic" code by A. Dal Corso  v.5.0.99 svn rev. 10869
     Shape of augmentation charge: BESSEL
     Using radial grid of 1095 points,  4 beta functions with: 
                l(1) =   0
                l(2) =   0
                l(3) =   1
                l(4) =   1
     Q(r) pseudized with 0 coefficients 


     atomic species   valence    mass     pseudopotential
        Na             9.00    22.98977     Na( 1.00)
        Mn            15.00    54.93804     Mn( 1.00)
        O              6.00    15.99900     O ( 1.00)

     No symmetry found


                                    s                        frac. trans.

      isym =  1     identity                                     

 cryst.   s( 1) = (     1          0          0      )
                  (     0          1          0      )
                  (     0          0          1      )

 cart.    s( 1) = (  1.0000000  0.0000000  0.0000000 )
                  (  0.0000000  1.0000000 -0.0000000 )
                  (  0.0000000  0.0000000  1.0000000 )


   Cartesian axes

     site n.     atom                  positions (alat units)
         1           Na  tau(   1) = (   0.2992257   0.5066209   0.4703566  )
         2           Na  tau(   2) = (   0.7992811   0.7619563   0.4703810  )
         3           Na  tau(   3) = (   0.2998885   1.0140283   0.4694891  )
         4           Na  tau(   4) = (  -0.1999613   0.2543751   0.4695163  )
         5           Mn  tau(   5) = (   0.5991609   1.0135941   0.9398578  )
         6           Mn  tau(   6) = (   0.4999835   0.7623804   0.0000385  )
         7           Mn  tau(   7) = (   0.5992128   1.5206929   0.9398043  )
         8           Mn  tau(   8) = (   0.4999918   0.2552684   0.0000470  )
         9           O   tau(   9) = (  -0.0250407   1.0157382   0.7469937  )
        10           O   tau(  10) = (   0.4748663   1.2675331   0.7469683  )
        11           O   tau(  11) = (  -0.0247708   0.5082949   0.7468414  )
        12           O   tau(  12) = (   0.4752080   0.7599817   0.7467436  )
        13           O   tau(  13) = (   0.6239421   1.0159669   0.1931461  )
        14           O   tau(  14) = (   0.1240290   0.2527574   0.1930343  )
        15           O   tau(  15) = (   0.6243251   0.5084125   0.1929046  )
        16           O   tau(  16) = (   0.1242307   0.7602540   0.1928755  )

   Crystallographic axes

     site n.     atom                  positions (cryst. coord.)
         1           Na  tau(   1) = (  0.4997840  0.2490270  0.5004460  )
         2           Na  tau(   2) = (  0.9998720  0.5005920  0.5004720  )
         3           Na  tau(   3) = (  0.5001210  0.7494290  0.4995230  )
         4           Na  tau(   4) = (  0.0002170  0.0009400  0.4995520  )
         5           Mn  tau(   5) = (  0.9999130  0.4988560  0.9999820  )
         6           Mn  tau(   6) = (  0.5000660  0.7511410  0.0000410  )
         7           Mn  tau(   7) = (  0.9999860  0.9985210  0.9999250  )
         8           Mn  tau(   8) = (  0.5000340  0.2514870  0.0000500  )
         9           O   tau(   9) = (  0.2934930  0.6035350  0.7947800  )
        10           O   tau(  10) = (  0.7934110  0.8516380  0.7947530  )
        11           O   tau(  11) = (  0.2936540  0.1036400  0.7946180  )
        12           O   tau(  12) = (  0.7936130  0.3516750  0.7945140  )
        13           O   tau(  13) = (  0.7063690  0.8983000  0.2055020  )
        14           O   tau(  14) = (  0.2063420  0.1463810  0.2053830  )
        15           O   tau(  15) = (  0.7066050  0.3983430  0.2052450  )
        16           O   tau(  16) = (  0.2065200  0.6464940  0.2052140  )

     number of k points=    14
                       cart. coord. in units 2pi/alat
        k(    1) = (   0.0000000   0.0000000   0.0000000), wk =   0.0740741
        k(    2) = (   0.0000000   0.0000000   0.3546572), wk =   0.1481481
        k(    3) = (   0.0000000   0.3284281  -0.1772688), wk =   0.1481481
        k(    4) = (   0.0000000   0.3284281   0.1773884), wk =   0.1481481
        k(    5) = (   0.0000000   0.3284281  -0.5319260), wk =   0.1481481
        k(    6) = (   0.3333333   0.0000289   0.1421010), wk =   0.1481481
        k(    7) = (   0.3333333   0.0000289   0.4967582), wk =   0.1481481
        k(    8) = (   0.3333333   0.0000289  -0.2125562), wk =   0.1481481
        k(    9) = (   0.3333333   0.3284570  -0.0351678), wk =   0.1481481
        k(   10) = (   0.3333333   0.3284570   0.3194894), wk =   0.1481481
        k(   11) = (   0.3333333   0.3284570  -0.3898250), wk =   0.1481481
        k(   12) = (   0.3333333  -0.3283992   0.3193698), wk =   0.1481481
        k(   13) = (   0.3333333  -0.3283992   0.6740270), wk =   0.1481481
        k(   14) = (   0.3333333  -0.3283992  -0.0352874), wk =   0.1481481

                       cryst. coord.
        k(    1) = (   0.0000000   0.0000000   0.0000000), wk =   0.0740741
        k(    2) = (   0.0000000   0.0000000   0.3333333), wk =   0.1481481
        k(    3) = (   0.0000000   0.3333333  -0.0000000), wk =   0.1481481
        k(    4) = (   0.0000000   0.3333333   0.3333333), wk =   0.1481481
        k(    5) = (   0.0000000   0.3333333  -0.3333333), wk =   0.1481481
        k(    6) = (   0.3333333  -0.0000000   0.0000000), wk =   0.1481481
        k(    7) = (   0.3333333  -0.0000000   0.3333333), wk =   0.1481481
        k(    8) = (   0.3333333  -0.0000000  -0.3333333), wk =   0.1481481
        k(    9) = (   0.3333333   0.3333333  -0.0000000), wk =   0.1481481
        k(   10) = (   0.3333333   0.3333333   0.3333333), wk =   0.1481481
        k(   11) = (   0.3333333   0.3333333  -0.3333333), wk =   0.1481481
        k(   12) = (   0.3333333  -0.3333333  -0.0000000), wk =   0.1481481
        k(   13) = (   0.3333333  -0.3333333   0.3333333), wk =   0.1481481
        k(   14) = (   0.3333333  -0.3333333  -0.3333333), wk =   0.1481481

     Dense  grid:    76687 G-vectors     FFT dimensions: (  54,  60,  64)

     Smooth grid:    27091 G-vectors     FFT dimensions: (  40,  40,  45)

     Dynamical RAM for                 wfc:       3.30 MB

     Dynamical RAM for     wfc (w. buffer):      26.44 MB

     Dynamical RAM for           str. fact:       0.88 MB

     Dynamical RAM for           local pot:       0.00 MB

     Dynamical RAM for          nlocal pot:       2.43 MB

     Dynamical RAM for                qrad:       3.73 MB

     Dynamical RAM for          rho,v,vnew:       2.06 MB

     Dynamical RAM for               rhoin:       0.69 MB

     Dynamical RAM for            rho*nmix:       4.68 MB

     Dynamical RAM for           G-vectors:       1.15 MB

     Dynamical RAM for          h,s,v(r/c):       3.00 MB

     Dynamical RAM for          <psi|beta>:       0.73 MB

     Dynamical RAM for                 psi:       6.61 MB

     Dynamical RAM for                hpsi:       6.61 MB

     Dynamical RAM for                spsi:       6.61 MB

     Dynamical RAM for      wfcinit/wfcrot:       8.11 MB

     Dynamical RAM for           addusdens:      28.52 MB

     Estimated static dynamical RAM per process >      40.52 MB

     Estimated max dynamical RAM per process >      73.72 MB

     Estimated total dynamical RAM >     571.06 MB

     Check: negative core charge=   -0.000026

     Initial potential from superposition of free atoms

     starting charge     141.9745, renormalised to     144.0000
     Starting wfcs are  104 randomized atomic wfcs +  152 random wfcs
     Checking if some PAW data can be deallocated... 
       PAW data deallocated on    4 nodes for type:  3

     total cpu time spent up to now is        1.8 secs

     Self-consistent Calculation

     iteration #  1     ecut=    30.00 Ry     beta= 0.70
     Davidson diagonalization with overlap

---- Real-time Memory Report at c_bands before calling an iterative solver
           241 MiB given to the printing process from OS
             0 MiB allocation reported by mallinfo(arena+hblkhd)
        213088 MiB available memory on the node where the printing process lives
------------------
     ethr =  1.00E-02,  avg # of iterations =  6.1

     total cpu time spent up to now is       11.2 secs

     total energy              =   -1554.98271281 Ry
     estimated scf accuracy    <       6.59082745 Ry

     iteration #  2     ecut=    30.00 Ry     beta= 0.70
     Davidson diagonalization with overlap

---- Real-time Memory Report at c_bands before calling an iterative solver
           314 MiB given to the printing process from OS
             0 MiB allocation reported by mallinfo(arena+hblkhd)
        212845 MiB available memory on the node where the printing process lives
------------------
     ethr =  4.58E-03,  avg # of iterations =  2.0

     total cpu time spent up to now is       15.5 secs

     total energy              =   -1548.34630309 Ry
     estimated scf accuracy    <     120.80930715 Ry

     iteration #  3     ecut=    30.00 Ry     beta= 0.70
     Davidson diagonalization with overlap

---- Real-time Memory Report at c_bands before calling an iterative solver
           323 MiB given to the printing process from OS
             0 MiB allocation reported by mallinfo(arena+hblkhd)
        212832 MiB available memory on the node where the printing process lives
------------------
     ethr =  4.58E-03,  avg # of iterations =  2.0

     total cpu time spent up to now is       19.7 secs

     total energy              =   -1559.12174481 Ry
     estimated scf accuracy    <       1.17479602 Ry

     iteration #  4     ecut=    30.00 Ry     beta= 0.70
     Davidson diagonalization with overlap

---- Real-time Memory Report at c_bands before calling an iterative solver
           328 MiB given to the printing process from OS
             0 MiB allocation reported by mallinfo(arena+hblkhd)
        212834 MiB available memory on the node where the printing process lives
------------------
     ethr =  8.16E-04,  avg # of iterations =  1.0

     total cpu time spent up to now is       23.1 secs

     total energy              =   -1558.81262448 Ry
     estimated scf accuracy    <      27.10540636 Ry

     iteration #  5     ecut=    30.00 Ry     beta= 0.70
     Davidson diagonalization with overlap

---- Real-time Memory Report at c_bands before calling an iterative solver
           336 MiB given to the printing process from OS
             0 MiB allocation reported by mallinfo(arena+hblkhd)
        212673 MiB available memory on the node where the printing process lives
------------------
     ethr =  8.16E-04,  avg # of iterations =  1.0

     total cpu time spent up to now is       26.5 secs

     total energy              =   -1559.04942346 Ry
     estimated scf accuracy    <      13.73190122 Ry

     iteration #  6     ecut=    30.00 Ry     beta= 0.70
     Davidson diagonalization with overlap

---- Real-time Memory Report at c_bands before calling an iterative solver
           336 MiB given to the printing process from OS
             0 MiB allocation reported by mallinfo(arena+hblkhd)
        212672 MiB available memory on the node where the printing process lives
------------------
     ethr =  8.16E-04,  avg # of iterations =  1.0

     total cpu time spent up to now is       30.0 secs

     total energy              =   -1559.18582321 Ry
     estimated scf accuracy    <       1.83888444 Ry

     iteration #  7     ecut=    30.00 Ry     beta= 0.70
     Davidson diagonalization with overlap

---- Real-time Memory Report at c_bands before calling an iterative solver
           336 MiB given to the printing process from OS
             0 MiB allocation reported by mallinfo(arena+hblkhd)
        212673 MiB available memory on the node where the printing process lives
------------------
     ethr =  8.16E-04,  avg # of iterations =  1.0

     total cpu time spent up to now is       33.4 secs

     total energy              =   -1558.95262574 Ry
     estimated scf accuracy    <      22.40812711 Ry

     iteration #  8     ecut=    30.00 Ry     beta= 0.70
     Davidson diagonalization with overlap

---- Real-time Memory Report at c_bands before calling an iterative solver
           336 MiB given to the printing process from OS
             0 MiB allocation reported by mallinfo(arena+hblkhd)
        212673 MiB available memory on the node where the printing process lives
------------------
     ethr =  8.16E-04,  avg # of iterations =  1.0

     total cpu time spent up to now is       36.9 secs

     total energy              =   -1559.24802632 Ry
     estimated scf accuracy    <       1.41631900 Ry

     iteration #  9     ecut=    30.00 Ry     beta= 0.70
     Davidson diagonalization with overlap

---- Real-time Memory Report at c_bands before calling an iterative solver
           336 MiB given to the printing process from OS
             0 MiB allocation reported by mallinfo(arena+hblkhd)
        212677 MiB available memory on the node where the printing process lives
------------------
     ethr =  8.16E-04,  avg # of iterations =  1.0

     total cpu time spent up to now is       40.3 secs

     total energy              =   -1559.24598029 Ry
     estimated scf accuracy    <       0.49963302 Ry

     iteration # 10     ecut=    30.00 Ry     beta= 0.70
     Davidson diagonalization with overlap

---- Real-time Memory Report at c_bands before calling an iterative solver
           336 MiB given to the printing process from OS
             0 MiB allocation reported by mallinfo(arena+hblkhd)
        212677 MiB available memory on the node where the printing process lives
------------------
     ethr =  3.47E-04,  avg # of iterations =  1.0

     total cpu time spent up to now is       43.7 secs

     total energy              =   -1559.24822943 Ry
     estimated scf accuracy    <       0.03446657 Ry

     iteration # 11     ecut=    30.00 Ry     beta= 0.70
     Davidson diagonalization with overlap

---- Real-time Memory Report at c_bands before calling an iterative solver
           336 MiB given to the printing process from OS
             0 MiB allocation reported by mallinfo(arena+hblkhd)
        212677 MiB available memory on the node where the printing process lives
------------------
     ethr =  2.39E-05,  avg # of iterations =  2.5

     total cpu time spent up to now is       48.0 secs

     total energy              =   -1559.24893452 Ry
     estimated scf accuracy    <       0.05813443 Ry

     iteration # 12     ecut=    30.00 Ry     beta= 0.70
     Davidson diagonalization with overlap

---- Real-time Memory Report at c_bands before calling an iterative solver
           336 MiB given to the printing process from OS
             0 MiB allocation reported by mallinfo(arena+hblkhd)
        212676 MiB available memory on the node where the printing process lives
------------------
     ethr =  2.39E-05,  avg # of iterations =  1.0

     total cpu time spent up to now is       51.5 secs

     total energy              =   -1559.24968914 Ry
     estimated scf accuracy    <       0.04154866 Ry

     iteration # 13     ecut=    30.00 Ry     beta= 0.70
     Davidson diagonalization with overlap

---- Real-time Memory Report at c_bands before calling an iterative solver
           336 MiB given to the printing process from OS
             0 MiB allocation reported by mallinfo(arena+hblkhd)
        212686 MiB available memory on the node where the printing process lives
------------------
     ethr =  2.39E-05,  avg # of iterations =  1.0

     total cpu time spent up to now is       54.9 secs

     total energy              =   -1559.24940115 Ry
     estimated scf accuracy    <       0.03641715 Ry

     iteration # 14     ecut=    30.00 Ry     beta= 0.70
     Davidson diagonalization with overlap

---- Real-time Memory Report at c_bands before calling an iterative solver
           336 MiB given to the printing process from OS
             0 MiB allocation reported by mallinfo(arena+hblkhd)
        212686 MiB available memory on the node where the printing process lives
------------------
     ethr =  2.39E-05,  avg # of iterations =  1.1

     total cpu time spent up to now is       58.4 secs

     total energy              =   -1559.24974499 Ry
     estimated scf accuracy    <       0.03829401 Ry

     iteration # 15     ecut=    30.00 Ry     beta= 0.70
     Davidson diagonalization with overlap

---- Real-time Memory Report at c_bands before calling an iterative solver
           336 MiB given to the printing process from OS
             0 MiB allocation reported by mallinfo(arena+hblkhd)
        212687 MiB available memory on the node where the printing process lives
------------------
     ethr =  2.39E-05,  avg # of iterations =  1.0

     total cpu time spent up to now is       61.9 secs

     total energy              =   -1559.24979848 Ry
     estimated scf accuracy    <       0.01836578 Ry

     iteration # 16     ecut=    30.00 Ry     beta= 0.70
     Davidson diagonalization with overlap

---- Real-time Memory Report at c_bands before calling an iterative solver
           336 MiB given to the printing process from OS
             0 MiB allocation reported by mallinfo(arena+hblkhd)
        212688 MiB available memory on the node where the printing process lives
------------------
     ethr =  1.28E-05,  avg # of iterations =  1.1

     total cpu time spent up to now is       65.4 secs

     total energy              =   -1559.24977814 Ry
     estimated scf accuracy    <       0.01741975 Ry

     iteration # 17     ecut=    30.00 Ry     beta= 0.70
     Davidson diagonalization with overlap

---- Real-time Memory Report at c_bands before calling an iterative solver
           336 MiB given to the printing process from OS
             0 MiB allocation reported by mallinfo(arena+hblkhd)
        212688 MiB available memory on the node where the printing process lives
------------------
     ethr =  1.21E-05,  avg # of iterations =  1.0

     total cpu time spent up to now is       68.8 secs

     total energy              =   -1559.24973984 Ry
     estimated scf accuracy    <       0.01323169 Ry

     iteration # 18     ecut=    30.00 Ry     beta= 0.70
     Davidson diagonalization with overlap

---- Real-time Memory Report at c_bands before calling an iterative solver
           336 MiB given to the printing process from OS
             0 MiB allocation reported by mallinfo(arena+hblkhd)
        212688 MiB available memory on the node where the printing process lives
------------------
     ethr =  9.19E-06,  avg # of iterations =  1.1

     total cpu time spent up to now is       72.4 secs

     total energy              =   -1559.24980949 Ry
     estimated scf accuracy    <       0.00969225 Ry

     iteration # 19     ecut=    30.00 Ry     beta= 0.70
     Davidson diagonalization with overlap

---- Real-time Memory Report at c_bands before calling an iterative solver
           336 MiB given to the printing process from OS
             0 MiB allocation reported by mallinfo(arena+hblkhd)
        212685 MiB available memory on the node where the printing process lives
------------------
     ethr =  6.73E-06,  avg # of iterations =  1.1

     total cpu time spent up to now is       75.9 secs

     total energy              =   -1559.24981112 Ry
     estimated scf accuracy    <       0.01019139 Ry

     iteration # 20     ecut=    30.00 Ry     beta= 0.70
     Davidson diagonalization with overlap

---- Real-time Memory Report at c_bands before calling an iterative solver
           336 MiB given to the printing process from OS
             0 MiB allocation reported by mallinfo(arena+hblkhd)
        212686 MiB available memory on the node where the printing process lives
------------------
     ethr =  6.73E-06,  avg # of iterations =  1.1

     total cpu time spent up to now is       79.5 secs

     total energy              =   -1559.24983428 Ry
     estimated scf accuracy    <       0.00746378 Ry

     iteration # 21     ecut=    30.00 Ry     beta= 0.70
     Davidson diagonalization with overlap

---- Real-time Memory Report at c_bands before calling an iterative solver
           336 MiB given to the printing process from OS
             0 MiB allocation reported by mallinfo(arena+hblkhd)
        212686 MiB available memory on the node where the printing process lives
------------------
     ethr =  5.18E-06,  avg # of iterations =  1.1

     total cpu time spent up to now is       83.0 secs

     total energy              =   -1559.24984521 Ry
     estimated scf accuracy    <       0.00298564 Ry

     iteration # 22     ecut=    30.00 Ry     beta= 0.70
     Davidson diagonalization with overlap

---- Real-time Memory Report at c_bands before calling an iterative solver
           336 MiB given to the printing process from OS
             0 MiB allocation reported by mallinfo(arena+hblkhd)
        212687 MiB available memory on the node where the printing process lives
------------------
     c_bands:  1 eigenvalues not converged
     ethr =  2.07E-06,  avg # of iterations =  4.6

     total cpu time spent up to now is       88.1 secs

     total energy              =   -1559.24985190 Ry
     estimated scf accuracy    <       0.00000493 Ry

     iteration # 23     ecut=    30.00 Ry     beta= 0.70
     Davidson diagonalization with overlap

---- Real-time Memory Report at c_bands before calling an iterative solver
           336 MiB given to the printing process from OS
             0 MiB allocation reported by mallinfo(arena+hblkhd)
        212686 MiB available memory on the node where the printing process lives
------------------
     ethr =  3.42E-09,  avg # of iterations =  1.3

     total cpu time spent up to now is       91.7 secs

     total energy              =   -1559.24985019 Ry
     estimated scf accuracy    <       0.00065241 Ry

     iteration # 24     ecut=    30.00 Ry     beta= 0.70
     Davidson diagonalization with overlap

---- Real-time Memory Report at c_bands before calling an iterative solver
           336 MiB given to the printing process from OS
             0 MiB allocation reported by mallinfo(arena+hblkhd)
        212719 MiB available memory on the node where the printing process lives
------------------
     ethr =  3.42E-09,  avg # of iterations =  1.0

     total cpu time spent up to now is       95.2 secs

     total energy              =   -1559.24984381 Ry
     estimated scf accuracy    <       0.00268294 Ry

     iteration # 25     ecut=    30.00 Ry     beta= 0.70
     Davidson diagonalization with overlap

---- Real-time Memory Report at c_bands before calling an iterative solver
           336 MiB given to the printing process from OS
             0 MiB allocation reported by mallinfo(arena+hblkhd)
        212717 MiB available memory on the node where the printing process lives
------------------
     ethr =  3.42E-09,  avg # of iterations =  1.0

     total cpu time spent up to now is       98.6 secs

     total energy              =   -1559.24985146 Ry
     estimated scf accuracy    <       0.00022320 Ry

     iteration # 26     ecut=    30.00 Ry     beta= 0.70
     Davidson diagonalization with overlap

---- Real-time Memory Report at c_bands before calling an iterative solver
           336 MiB given to the printing process from OS
             0 MiB allocation reported by mallinfo(arena+hblkhd)
        212721 MiB available memory on the node where the printing process lives
------------------
     ethr =  3.42E-09,  avg # of iterations =  1.0

     total cpu time spent up to now is      102.0 secs

     total energy              =   -1559.24985038 Ry
     estimated scf accuracy    <       0.00047090 Ry

     iteration # 27     ecut=    30.00 Ry     beta= 0.70
     Davidson diagonalization with overlap

---- Real-time Memory Report at c_bands before calling an iterative solver
           336 MiB given to the printing process from OS
             0 MiB allocation reported by mallinfo(arena+hblkhd)
        212731 MiB available memory on the node where the printing process lives
------------------
     ethr =  3.42E-09,  avg # of iterations =  1.0

     total cpu time spent up to now is      105.5 secs

     total energy              =   -1559.24985148 Ry
     estimated scf accuracy    <       0.00057731 Ry

     iteration # 28     ecut=    30.00 Ry     beta= 0.70
     Davidson diagonalization with overlap

---- Real-time Memory Report at c_bands before calling an iterative solver
           336 MiB given to the printing process from OS
             0 MiB allocation reported by mallinfo(arena+hblkhd)
        212731 MiB available memory on the node where the printing process lives
------------------
     ethr =  3.42E-09,  avg # of iterations =  1.0

     total cpu time spent up to now is      108.9 secs

     total energy              =   -1559.24985124 Ry
     estimated scf accuracy    <       0.00019115 Ry

     iteration # 29     ecut=    30.00 Ry     beta= 0.70
     Davidson diagonalization with overlap

---- Real-time Memory Report at c_bands before calling an iterative solver
           336 MiB given to the printing process from OS
             0 MiB allocation reported by mallinfo(arena+hblkhd)
        212730 MiB available memory on the node where the printing process lives
------------------
     ethr =  3.42E-09,  avg # of iterations =  1.0

     total cpu time spent up to now is      112.4 secs

     total energy              =   -1559.24985077 Ry
     estimated scf accuracy    <       0.00025040 Ry

     iteration # 30     ecut=    30.00 Ry     beta= 0.70
     Davidson diagonalization with overlap

---- Real-time Memory Report at c_bands before calling an iterative solver
           336 MiB given to the printing process from OS
             0 MiB allocation reported by mallinfo(arena+hblkhd)
        212731 MiB available memory on the node where the printing process lives
------------------
     ethr =  3.42E-09,  avg # of iterations =  1.0

     total cpu time spent up to now is      115.8 secs

     total energy              =   -1559.24985257 Ry
     estimated scf accuracy    <       0.00011425 Ry

     iteration # 31     ecut=    30.00 Ry     beta= 0.70
     Davidson diagonalization with overlap

---- Real-time Memory Report at c_bands before calling an iterative solver
           336 MiB given to the printing process from OS
             0 MiB allocation reported by mallinfo(arena+hblkhd)
        212760 MiB available memory on the node where the printing process lives
------------------
     ethr =  3.42E-09,  avg # of iterations =  1.0

     total cpu time spent up to now is      119.2 secs

     total energy              =   -1559.24984957 Ry
     estimated scf accuracy    <       0.00072246 Ry

     iteration # 32     ecut=    30.00 Ry     beta= 0.70
     Davidson diagonalization with overlap

---- Real-time Memory Report at c_bands before calling an iterative solver
           336 MiB given to the printing process from OS
             0 MiB allocation reported by mallinfo(arena+hblkhd)
        212757 MiB available memory on the node where the printing process lives
------------------
     ethr =  3.42E-09,  avg # of iterations =  1.0

     total cpu time spent up to now is      122.6 secs

     total energy              =   -1559.24985141 Ry
     estimated scf accuracy    <       0.00007801 Ry

     iteration # 33     ecut=    30.00 Ry     beta= 0.70
     Davidson diagonalization with overlap

---- Real-time Memory Report at c_bands before calling an iterative solver
           336 MiB given to the printing process from OS
             0 MiB allocation reported by mallinfo(arena+hblkhd)
        212761 MiB available memory on the node where the printing process lives
------------------
     ethr =  3.42E-09,  avg # of iterations =  1.0

     total cpu time spent up to now is      126.1 secs

     total energy              =   -1559.24985241 Ry
     estimated scf accuracy    <       0.00000140 Ry

     iteration # 34     ecut=    30.00 Ry     beta= 0.70
     Davidson diagonalization with overlap

---- Real-time Memory Report at c_bands before calling an iterative solver
           336 MiB given to the printing process from OS
             0 MiB allocation reported by mallinfo(arena+hblkhd)
        212761 MiB available memory on the node where the printing process lives
------------------
     ethr =  9.74E-10,  avg # of iterations =  1.0

     total cpu time spent up to now is      129.5 secs

     total energy              =   -1559.24985217 Ry
     estimated scf accuracy    <       0.00006896 Ry

     iteration # 35     ecut=    30.00 Ry     beta= 0.70
     Davidson diagonalization with overlap

---- Real-time Memory Report at c_bands before calling an iterative solver
           336 MiB given to the printing process from OS
             0 MiB allocation reported by mallinfo(arena+hblkhd)
        212762 MiB available memory on the node where the printing process lives
------------------
     ethr =  9.74E-10,  avg # of iterations =  1.0

     total cpu time spent up to now is      133.0 secs

     total energy              =   -1559.24985256 Ry
     estimated scf accuracy    <       0.00001277 Ry

     iteration # 36     ecut=    30.00 Ry     beta= 0.70
     Davidson diagonalization with overlap

---- Real-time Memory Report at c_bands before calling an iterative solver
           336 MiB given to the printing process from OS
             0 MiB allocation reported by mallinfo(arena+hblkhd)
        212762 MiB available memory on the node where the printing process lives
------------------
     ethr =  9.74E-10,  avg # of iterations =  1.0

     total cpu time spent up to now is      136.4 secs

     total energy              =   -1559.24985239 Ry
     estimated scf accuracy    <       0.00004611 Ry

     iteration # 37     ecut=    30.00 Ry     beta= 0.70
     Davidson diagonalization with overlap

---- Real-time Memory Report at c_bands before calling an iterative solver
           336 MiB given to the printing process from OS
             0 MiB allocation reported by mallinfo(arena+hblkhd)
        212761 MiB available memory on the node where the printing process lives
------------------
     ethr =  9.74E-10,  avg # of iterations =  1.0

     total cpu time spent up to now is      139.8 secs

     total energy              =   -1559.24985188 Ry
     estimated scf accuracy    <       0.00013266 Ry

     iteration # 38     ecut=    30.00 Ry     beta= 0.70
     Davidson diagonalization with overlap

---- Real-time Memory Report at c_bands before calling an iterative solver
           336 MiB given to the printing process from OS
             0 MiB allocation reported by mallinfo(arena+hblkhd)
        212761 MiB available memory on the node where the printing process lives
------------------
     ethr =  9.74E-10,  avg # of iterations =  1.0

     total cpu time spent up to now is      143.3 secs

     total energy              =   -1559.24985175 Ry
     estimated scf accuracy    <       0.00011203 Ry

     iteration # 39     ecut=    30.00 Ry     beta= 0.70
     Davidson diagonalization with overlap

---- Real-time Memory Report at c_bands before calling an iterative solver
           336 MiB given to the printing process from OS
             0 MiB allocation reported by mallinfo(arena+hblkhd)
        212761 MiB available memory on the node where the printing process lives
------------------
     ethr =  9.74E-10,  avg # of iterations =  1.0

     total cpu time spent up to now is      146.7 secs

     total energy              =   -1559.24985169 Ry
     estimated scf accuracy    <       0.00011668 Ry

     iteration # 40     ecut=    30.00 Ry     beta= 0.70
     Davidson diagonalization with overlap

---- Real-time Memory Report at c_bands before calling an iterative solver
           336 MiB given to the printing process from OS
             0 MiB allocation reported by mallinfo(arena+hblkhd)
        212758 MiB available memory on the node where the printing process lives
------------------
     ethr =  9.74E-10,  avg # of iterations =  1.0

     total cpu time spent up to now is      150.2 secs

     total energy              =   -1559.24985150 Ry
     estimated scf accuracy    <       0.00015084 Ry

     iteration # 41     ecut=    30.00 Ry     beta= 0.70
     Davidson diagonalization with overlap

---- Real-time Memory Report at c_bands before calling an iterative solver
           336 MiB given to the printing process from OS
             0 MiB allocation reported by mallinfo(arena+hblkhd)
        212760 MiB available memory on the node where the printing process lives
------------------
     ethr =  9.74E-10,  avg # of iterations =  1.0

     total cpu time spent up to now is      153.6 secs

     total energy              =   -1559.24985103 Ry
     estimated scf accuracy    <       0.00023006 Ry

     iteration # 42     ecut=    30.00 Ry     beta= 0.70
     Davidson diagonalization with overlap

---- Real-time Memory Report at c_bands before calling an iterative solver
           336 MiB given to the printing process from OS
             0 MiB allocation reported by mallinfo(arena+hblkhd)
        212761 MiB available memory on the node where the printing process lives
------------------
     ethr =  9.74E-10,  avg # of iterations =  1.0

     total cpu time spent up to now is      157.1 secs

     total energy              =   -1559.24985069 Ry
     estimated scf accuracy    <       0.00026130 Ry

     iteration # 43     ecut=    30.00 Ry     beta= 0.70
     Davidson diagonalization with overlap

---- Real-time Memory Report at c_bands before calling an iterative solver
           336 MiB given to the printing process from OS
             0 MiB allocation reported by mallinfo(arena+hblkhd)
        212781 MiB available memory on the node where the printing process lives
------------------
     ethr =  9.74E-10,  avg # of iterations =  1.0

     total cpu time spent up to now is      160.5 secs

     total energy              =   -1559.24985080 Ry
     estimated scf accuracy    <       0.00022004 Ry

     iteration # 44     ecut=    30.00 Ry     beta= 0.70
     Davidson diagonalization with overlap

---- Real-time Memory Report at c_bands before calling an iterative solver
           336 MiB given to the printing process from OS
             0 MiB allocation reported by mallinfo(arena+hblkhd)
        212814 MiB available memory on the node where the printing process lives
------------------
     ethr =  9.74E-10,  avg # of iterations =  1.0

     total cpu time spent up to now is      163.9 secs

     total energy              =   -1559.24985072 Ry
     estimated scf accuracy    <       0.00024474 Ry

     iteration # 45     ecut=    30.00 Ry     beta= 0.70
     Davidson diagonalization with overlap

---- Real-time Memory Report at c_bands before calling an iterative solver
           336 MiB given to the printing process from OS
             0 MiB allocation reported by mallinfo(arena+hblkhd)
        212814 MiB available memory on the node where the printing process lives
------------------
     ethr =  9.74E-10,  avg # of iterations =  1.0

     total cpu time spent up to now is      167.4 secs

     total energy              =   -1559.24985022 Ry
     estimated scf accuracy    <       0.00032316 Ry

     iteration # 46     ecut=    30.00 Ry     beta= 0.70
     Davidson diagonalization with overlap

---- Real-time Memory Report at c_bands before calling an iterative solver
           336 MiB given to the printing process from OS
             0 MiB allocation reported by mallinfo(arena+hblkhd)
        212812 MiB available memory on the node where the printing process lives
------------------
     ethr =  9.74E-10,  avg # of iterations =  1.0

     total cpu time spent up to now is      170.8 secs

     total energy              =   -1559.24985186 Ry
     estimated scf accuracy    <       0.00003690 Ry

     iteration # 47     ecut=    30.00 Ry     beta= 0.70
     Davidson diagonalization with overlap

---- Real-time Memory Report at c_bands before calling an iterative solver
           336 MiB given to the printing process from OS
             0 MiB allocation reported by mallinfo(arena+hblkhd)
        212812 MiB available memory on the node where the printing process lives
------------------
     ethr =  9.74E-10,  avg # of iterations =  1.0

     total cpu time spent up to now is      174.3 secs

     total energy              =   -1559.24985177 Ry
     estimated scf accuracy    <       0.00009323 Ry

     iteration # 48     ecut=    30.00 Ry     beta= 0.70
     Davidson diagonalization with overlap

---- Real-time Memory Report at c_bands before calling an iterative solver
           336 MiB given to the printing process from OS
             0 MiB allocation reported by mallinfo(arena+hblkhd)
        212812 MiB available memory on the node where the printing process lives
------------------
     ethr =  9.74E-10,  avg # of iterations =  1.0

     total cpu time spent up to now is      177.7 secs

     total energy              =   -1559.24985175 Ry
     estimated scf accuracy    <       0.00033578 Ry

     iteration # 49     ecut=    30.00 Ry     beta= 0.70
     Davidson diagonalization with overlap

---- Real-time Memory Report at c_bands before calling an iterative solver
           336 MiB given to the printing process from OS
             0 MiB allocation reported by mallinfo(arena+hblkhd)
        212822 MiB available memory on the node where the printing process lives
------------------
     ethr =  9.74E-10,  avg # of iterations =  1.0

     total cpu time spent up to now is      181.1 secs

     total energy              =   -1559.24985141 Ry
     estimated scf accuracy    <       0.00018769 Ry

     iteration # 50     ecut=    30.00 Ry     beta= 0.70
     Davidson diagonalization with overlap

---- Real-time Memory Report at c_bands before calling an iterative solver
           336 MiB given to the printing process from OS
             0 MiB allocation reported by mallinfo(arena+hblkhd)
        212822 MiB available memory on the node where the printing process lives
------------------
     ethr =  9.74E-10,  avg # of iterations =  1.0

     total cpu time spent up to now is      184.6 secs

     total energy              =   -1559.24985170 Ry
     estimated scf accuracy    <       0.00009332 Ry

     iteration # 51     ecut=    30.00 Ry     beta= 0.70
     Davidson diagonalization with overlap

---- Real-time Memory Report at c_bands before calling an iterative solver
           336 MiB given to the printing process from OS
             0 MiB allocation reported by mallinfo(arena+hblkhd)
        212823 MiB available memory on the node where the printing process lives
------------------
     ethr =  9.74E-10,  avg # of iterations =  1.0

     total cpu time spent up to now is      188.0 secs

     total energy              =   -1559.24985236 Ry
     estimated scf accuracy    <       0.00000635 Ry

     iteration # 52     ecut=    30.00 Ry     beta= 0.70
     Davidson diagonalization with overlap

---- Real-time Memory Report at c_bands before calling an iterative solver
           336 MiB given to the printing process from OS
             0 MiB allocation reported by mallinfo(arena+hblkhd)
        212823 MiB available memory on the node where the printing process lives
------------------
     ethr =  9.74E-10,  avg # of iterations =  1.0

     total cpu time spent up to now is      191.5 secs

     total energy              =   -1559.24985248 Ry
     estimated scf accuracy    <       0.00000609 Ry

     iteration # 53     ecut=    30.00 Ry     beta= 0.70
     Davidson diagonalization with overlap

---- Real-time Memory Report at c_bands before calling an iterative solver
           336 MiB given to the printing process from OS
             0 MiB allocation reported by mallinfo(arena+hblkhd)
        212831 MiB available memory on the node where the printing process lives
------------------
     ethr =  9.74E-10,  avg # of iterations =  1.0

     total cpu time spent up to now is      194.9 secs

     total energy              =   -1559.24985250 Ry
     estimated scf accuracy    <       0.00000649 Ry

     iteration # 54     ecut=    30.00 Ry     beta= 0.70
     Davidson diagonalization with overlap

---- Real-time Memory Report at c_bands before calling an iterative solver
           336 MiB given to the printing process from OS
             0 MiB allocation reported by mallinfo(arena+hblkhd)
        212836 MiB available memory on the node where the printing process lives
------------------
     ethr =  9.74E-10,  avg # of iterations =  1.0

     total cpu time spent up to now is      198.4 secs

     total energy              =   -1559.24985252 Ry
     estimated scf accuracy    <       0.00000454 Ry

     iteration # 55     ecut=    30.00 Ry     beta= 0.70
     Davidson diagonalization with overlap

---- Real-time Memory Report at c_bands before calling an iterative solver
           336 MiB given to the printing process from OS
             0 MiB allocation reported by mallinfo(arena+hblkhd)
        212837 MiB available memory on the node where the printing process lives
------------------
     ethr =  9.74E-10,  avg # of iterations =  1.0

     total cpu time spent up to now is      201.8 secs

     total energy              =   -1559.24985254 Ry
     estimated scf accuracy    <       0.00000180 Ry

     iteration # 56     ecut=    30.00 Ry     beta= 0.70
     Davidson diagonalization with overlap

---- Real-time Memory Report at c_bands before calling an iterative solver
           336 MiB given to the printing process from OS
             0 MiB allocation reported by mallinfo(arena+hblkhd)
        212837 MiB available memory on the node where the printing process lives
------------------
     ethr =  9.74E-10,  avg # of iterations =  1.0

     total cpu time spent up to now is      205.2 secs

     End of self-consistent calculation

          k = 0.0000 0.0000 0.0000 (  3405 PWs)   bands (ev):

   -70.6926 -70.6895 -70.6829 -70.6829 -42.5770 -42.5669 -42.5549 -42.5548
   -39.5678 -39.5584 -39.5387 -39.5381 -39.5298 -39.5294 -39.4409 -39.4358
   -39.2343 -39.2091 -39.2082 -39.2065 -14.6488 -14.6484 -14.6133 -14.5265
   -14.4955 -14.4935 -14.4618 -14.4469 -14.4435 -14.4333 -14.4332 -14.4242
   -10.4711  -9.8152  -9.4630  -9.4556  -9.4064  -9.4062  -9.3509  -9.3126
     2.5069   2.5970   2.9607   2.9661   3.3611   3.5397   3.5482   4.0274
     4.1211   4.3315   4.5624   4.5691   4.5745   4.5889   4.6875   5.0977
     5.1125   5.2611   5.2649   5.7519   5.8149   6.1764   6.3366   6.3647
     8.2028   8.2584   8.2642   8.2724   8.4502   8.9053   8.9414   8.9991
     8.9996   9.2079   9.2100   9.2281   9.7155   9.7351   9.7417  10.0476
    11.1203  11.1265  11.4859  11.5283  11.8396  15.2398  15.2878  16.0232
    16.0256  16.8877  17.6371  18.0281  18.0336  18.1480  18.4968  18.5043
    18.5553  19.3280  19.3943  20.8938  20.9374  21.4092  21.4284  21.5958
    22.6942  22.7124  23.0098  23.0140  23.6738  24.0514  25.1681  25.1901
    25.2060  25.8234  25.8536  25.9446  25.9645  26.0037  26.4398  26.4528
    26.6820  27.3322  27.4386  28.4686  29.4496  29.7190  29.8186  29.8331
    30.0377  30.1365  30.2352  30.2525  30.2535  30.6603  32.1072  32.3728
    32.9537  32.9780  33.0148  33.0402  33.0671  33.8220  34.2698  34.2861
    35.0902  35.1274  35.7389  35.7482  35.8906  36.0090  36.0720  36.1523
    36.2108  36.3984  36.6608  37.2501  37.3147  38.0404  38.1742  39.4497
    39.5129  39.6246  39.7508  40.4785  40.9213  40.9369  41.0373  41.2706
    41.3173  41.7367  41.7407  41.9408  41.9761  42.4753  42.5049  42.5193
    42.7825  42.7887  43.5009  43.9729  44.0265  44.0438  44.0737  44.1689
    44.3857  44.5446  44.6973  44.7037  44.7792  45.3976  45.8819  45.9463
    46.2055  46.2523  47.0874  47.1454  47.5483  47.8997  47.9361  47.9510
    48.6870  48.9428  49.2580  49.2736  49.3600  49.3864  49.6191  50.2377
    50.2381  50.5790  50.6096  51.3696  51.4078  51.4846  51.5204  52.0240
    52.0276  52.0785  52.2018  52.9974  53.0846  53.1402  53.2162  53.3457
    53.8187  54.1163  54.1204  54.1242  54.1404  55.3132  55.9684  55.9689
    55.9871  55.9979  56.1480  56.2236  56.2572  56.6077  56.6243  56.6536
    57.2198  57.2497  57.4478  57.5047  57.5879  57.6383  57.6703  57.6964
    58.3031  58.3756  58.7824  58.8929  58.8977  59.3372  59.4070  59.5007

     occupation numbers 
     1.0000   1.0000   1.0000   1.0000   1.0000   1.0000   1.0000   1.0000
     1.0000   1.0000   1.0000   1.0000   1.0000   1.0000   1.0000   1.0000
     1.0000   1.0000   1.0000   1.0000   1.0000   1.0000   1.0000   1.0000
     1.0000   1.0000   1.0000   1.0000   1.0000   1.0000   1.0000   1.0000
     1.0000   1.0000   1.0000   1.0000   1.0000   1.0000   1.0000   1.0000
     1.0000   1.0000   1.0000   1.0000   1.0000   1.0000   1.0000   1.0000
     1.0000   1.0000   1.0000   1.0000   1.0000   1.0000   1.0000   1.0000
     1.0000   1.0000   1.0000   1.0000   1.0000   1.0000   1.0000   1.0000
     1.0000   1.0000   1.0000   1.0000   1.0000   1.0000   1.0000   1.0000
     0.0000   0.0000   0.0000   0.0000   0.0000   0.0000   0.0000   0.0000
     0.0000   0.0000   0.0000   0.0000   0.0000   0.0000   0.0000   0.0000
     0.0000   0.0000   0.0000   0.0000   0.0000   0.0000   0.0000   0.0000
     0.0000   0.0000   0.0000   0.0000   0.0000   0.0000   0.0000   0.0000
     0.0000   0.0000   0.0000   0.0000   0.0000   0.0000   0.0000   0.0000
     0.0000   0.0000   0.0000   0.0000   0.0000   0.0000   0.0000   0.0000
     0.0000   0.0000   0.0000   0.0000   0.0000   0.0000   0.0000   0.0000
     0.0000   0.0000   0.0000   0.0000   0.0000   0.0000   0.0000   0.0000
     0.0000   0.0000   0.0000   0.0000   0.0000   0.0000   0.0000   0.0000
     0.0000   0.0000   0.0000   0.0000   0.0000   0.0000   0.0000   0.0000
     0.0000   0.0000   0.0000   0.0000   0.0000   0.0000   0.0000   0.0000
     0.0000   0.0000   0.0000   0.0000   0.0000   0.0000   0.0000   0.0000
     0.0000   0.0000   0.0000   0.0000   0.0000   0.0000   0.0000   0.0000
     0.0000   0.0000   0.0000   0.0000   0.0000   0.0000   0.0000   0.0000
     0.0000   0.0000   0.0000   0.0000   0.0000   0.0000   0.0000   0.0000
     0.0000   0.0000   0.0000   0.0000   0.0000   0.0000   0.0000   0.0000
     0.0000   0.0000   0.0000   0.0000   0.0000   0.0000   0.0000   0.0000
     0.0000   0.0000   0.0000   0.0000   0.0000   0.0000   0.0000   0.0000
     0.0000   0.0000   0.0000   0.0000   0.0000   0.0000   0.0000   0.0000
     0.0000   0.0000   0.0000   0.0000   0.0000   0.0000   0.0000   0.0000
     0.0000   0.0000   0.0000   0.0000   0.0000   0.0000   0.0000   0.0000
     0.0000   0.0000   0.0000   0.0000   0.0000   0.0000   0.0000   0.0000
     0.0000   0.0000   0.0000   0.0000   0.0000   0.0000   0.0000   0.0000

          k = 0.0000 0.0000 0.3547 (  3403 PWs)   bands (ev):

   -70.6920 -70.6890 -70.6832 -70.6832 -42.5765 -42.5664 -42.5553 -42.5551
   -39.5622 -39.5530 -39.5446 -39.5439 -39.5289 -39.5287 -39.4395 -39.4350
   -39.2309 -39.2106 -39.2092 -39.2030 -14.6485 -14.6481 -14.6132 -14.5310
   -14.4965 -14.4946 -14.4589 -14.4456 -14.4429 -14.4361 -14.4361 -14.4240
   -10.3450  -9.7819  -9.4597  -9.4519  -9.4506  -9.4130  -9.4108  -9.3845
     2.6824   2.9269   2.9338   3.0592   3.4326   3.7371   3.7470   4.0561
     4.1145   4.3791   4.4010   4.4076   4.4106   4.6830   4.7009   4.9421
     4.9598   5.2283   5.2301   5.3510   5.6808   5.8368   6.2893   6.3091
     8.2655   8.2954   8.3022   8.3479   8.4567   8.9083   8.9563   8.9850
     8.9853   9.2209   9.2252   9.2399   9.6277   9.6516   9.8370   9.9943
    11.2236  11.2258  11.5010  11.5225  12.8375  14.7038  15.7897  16.1627
    16.1646  16.7623  17.4592  17.4754  17.7513  17.7910  18.7270  18.7366
    19.3998  19.4335  19.6557  20.1418  20.2069  21.2579  21.5353  21.5739
    21.8427  22.6879  22.7509  22.7822  23.2702  24.5039  24.7707  24.8122
    25.4164  26.2719  26.7151  26.9312  27.0177  27.0378  27.0558  27.1770
    27.4063  27.5607  27.5804  28.5252  28.9643  29.0753  29.0854  29.3216
    29.3591  29.4058  29.9947  30.6780  30.6796  30.7327  31.3917  31.3988
    31.7962  31.8109  32.7906  32.7958  32.9376  33.9046  34.8417  35.2414
    35.2526  35.2758  35.3586  35.6461  35.6551  35.7365  36.0640  36.1084
    36.8101  36.8211  37.1594  37.1613  38.2688  38.4184  38.5488  39.3560
    39.4127  39.4325  39.4569  39.8708  39.9054  40.5311  40.5800  40.8336
    41.2421  41.2441  41.4962  42.1531  42.2063  42.2327  42.4389  43.1462
    43.4743  43.5643  43.6843  43.7266  44.3633  44.4197  44.6270  44.6335
    45.1931  45.1990  45.3392  45.7127  45.7338  46.0257  46.7028  46.7936
    46.8037  46.8574  47.0747  47.1194  47.1409  47.1811  47.3321  47.5976
    48.1899  48.3144  48.6714  48.6845  48.6874  49.4289  49.6973  49.7277
    49.9762  50.1019  50.1071  50.6003  50.9042  51.4299  51.5878  51.6609
    52.3933  52.5999  52.8162  52.8337  52.8689  52.8942  53.6020  53.6125
    53.6423  53.9470  54.4679  54.4892  54.4946  54.7071  54.7377  54.9961
    55.1904  55.3728  55.3962  55.4385  56.0560  56.5334  56.5759  56.7286
    56.7666  56.9800  57.0511  57.2890  57.4631  57.5487  57.5492  58.2774
    58.3248  58.5321  58.7358  59.0402  59.1148  59.1511  59.1925  59.9481

     occupation numbers 
     1.0000   1.0000   1.0000   1.0000   1.0000   1.0000   1.0000   1.0000
     1.0000   1.0000   1.0000   1.0000   1.0000   1.0000   1.0000   1.0000
     1.0000   1.0000   1.0000   1.0000   1.0000   1.0000   1.0000   1.0000
     1.0000   1.0000   1.0000   1.0000   1.0000   1.0000   1.0000   1.0000
     1.0000   1.0000   1.0000   1.0000   1.0000   1.0000   1.0000   1.0000
     1.0000   1.0000   1.0000   1.0000   1.0000   1.0000   1.0000   1.0000
     1.0000   1.0000   1.0000   1.0000   1.0000   1.0000   1.0000   1.0000
     1.0000   1.0000   1.0000   1.0000   1.0000   1.0000   1.0000   1.0000
     1.0000   1.0000   1.0000   1.0000   1.0000   1.0000   1.0000   1.0000
     0.0000   0.0000   0.0000   0.0000   0.0000   0.0000   0.0000   0.0000
     0.0000   0.0000   0.0000   0.0000   0.0000   0.0000   0.0000   0.0000
     0.0000   0.0000   0.0000   0.0000   0.0000   0.0000   0.0000   0.0000
     0.0000   0.0000   0.0000   0.0000   0.0000   0.0000   0.0000   0.0000
     0.0000   0.0000   0.0000   0.0000   0.0000   0.0000   0.0000   0.0000
     0.0000   0.0000   0.0000   0.0000   0.0000   0.0000   0.0000   0.0000
     0.0000   0.0000   0.0000   0.0000   0.0000   0.0000   0.0000   0.0000
     0.0000   0.0000   0.0000   0.0000   0.0000   0.0000   0.0000   0.0000
     0.0000   0.0000   0.0000   0.0000   0.0000   0.0000   0.0000   0.0000
     0.0000   0.0000   0.0000   0.0000   0.0000   0.0000   0.0000   0.0000
     0.0000   0.0000   0.0000   0.0000   0.0000   0.0000   0.0000   0.0000
     0.0000   0.0000   0.0000   0.0000   0.0000   0.0000   0.0000   0.0000
     0.0000   0.0000   0.0000   0.0000   0.0000   0.0000   0.0000   0.0000
     0.0000   0.0000   0.0000   0.0000   0.0000   0.0000   0.0000   0.0000
     0.0000   0.0000   0.0000   0.0000   0.0000   0.0000   0.0000   0.0000
     0.0000   0.0000   0.0000   0.0000   0.0000   0.0000   0.0000   0.0000
     0.0000   0.0000   0.0000   0.0000   0.0000   0.0000   0.0000   0.0000
     0.0000   0.0000   0.0000   0.0000   0.0000   0.0000   0.0000   0.0000
     0.0000   0.0000   0.0000   0.0000   0.0000   0.0000   0.0000   0.0000
     0.0000   0.0000   0.0000   0.0000   0.0000   0.0000   0.0000   0.0000
     0.0000   0.0000   0.0000   0.0000   0.0000   0.0000   0.0000   0.0000
     0.0000   0.0000   0.0000   0.0000   0.0000   0.0000   0.0000   0.0000
     0.0000   0.0000   0.0000   0.0000   0.0000   0.0000   0.0000   0.0000

          k = 0.0000 0.3284-0.1773 (  3394 PWs)   bands (ev):

   -70.6901 -70.6874 -70.6857 -70.6841 -42.5718 -42.5631 -42.5617 -42.5566
   -39.5610 -39.5528 -39.5486 -39.5460 -39.5060 -39.5012 -39.4601 -39.4543
   -39.2270 -39.2173 -39.2055 -39.2045 -14.5982 -14.5917 -14.5902 -14.5426
   -14.5103 -14.4943 -14.4796 -14.4790 -14.4518 -14.4512 -14.4471 -14.4354
   -10.2399  -9.7715  -9.6828  -9.4658  -9.4227  -9.3965  -9.3737  -9.3665
     2.9061   3.0407   3.3852   3.3971   3.4180   3.4962   3.5912   3.8244
     3.8617   4.0557   4.2856   4.4270   4.5354   4.7067   4.9487   4.9879
     5.0983   5.1044   5.1814   5.2544   5.7644   5.7865   5.8823   6.1828
     8.4473   8.4667   8.5583   8.6808   8.7020   8.9625   9.0026   9.0193
     9.0748   9.0786   9.1553   9.1591   9.4833   9.6406   9.8277   9.9461
    10.7777  11.0114  11.0605  11.1379  13.0104  14.8952  15.8953  16.0993
    16.7879  16.8647  17.0580  17.2531  17.8793  18.0841  19.0025  19.1239
    19.4614  19.7185  20.1855  20.3388  20.8806  20.9160  21.0587  22.3257
    22.6134  22.6457  23.2071  23.3313  23.5461  23.7678  23.8023  24.6994
    24.7206  24.7250  25.4922  25.7075  25.7432  26.1020  26.8044  27.2073
    27.3028  27.9601  28.0653  28.2345  28.3745  28.5979  29.3508  29.3928
    29.6147  29.8648  30.1470  30.3786  31.4289  31.8286  31.8657  32.2965
    32.7561  32.8727  33.3691  33.3917  33.4903  34.0667  34.2615  34.5946
    34.7669  35.2891  35.5893  35.6518  35.9894  36.0763  36.3866  36.6198
    36.7678  36.9060  37.2571  37.3472  37.3751  38.0023  38.4927  38.9691
    39.1750  39.2681  40.0466  40.2233  40.4139  40.4323  40.8633  41.0629
    41.0902  41.3254  41.6323  42.0077  42.0408  42.0784  42.3795  42.5347
    42.6943  43.2215  43.3406  43.5794  43.9166  44.0267  44.1474  44.2216
    44.4915  44.9461  45.3469  45.6511  45.8051  45.8790  45.9794  46.2813
    46.4458  46.7169  47.0717  47.1185  47.4204  47.4552  48.2044  48.2535
    48.4337  48.4434  48.6568  49.0814  49.0920  49.3423  49.4076  50.1439
    50.2417  50.3535  50.7477  50.9299  51.1093  51.3036  51.5294  51.6356
    52.1417  52.1884  52.2033  52.2417  52.6137  52.7682  53.0002  53.2422
    53.4580  53.5633  53.9093  53.9431  54.6303  54.6597  54.7083  55.1137
    55.5110  55.5985  55.7222  56.1730  56.4860  56.5251  56.6807  56.8794
    56.9046  57.4184  57.6218  57.8894  58.0003  58.1496  58.3768  58.6471
    58.8141  58.9388  58.9644  59.2339  59.2363  59.3532  59.5057  59.5945

     occupation numbers 
     1.0000   1.0000   1.0000   1.0000   1.0000   1.0000   1.0000   1.0000
     1.0000   1.0000   1.0000   1.0000   1.0000   1.0000   1.0000   1.0000
     1.0000   1.0000   1.0000   1.0000   1.0000   1.0000   1.0000   1.0000
     1.0000   1.0000   1.0000   1.0000   1.0000   1.0000   1.0000   1.0000
     1.0000   1.0000   1.0000   1.0000   1.0000   1.0000   1.0000   1.0000
     1.0000   1.0000   1.0000   1.0000   1.0000   1.0000   1.0000   1.0000
     1.0000   1.0000   1.0000   1.0000   1.0000   1.0000   1.0000   1.0000
     1.0000   1.0000   1.0000   1.0000   1.0000   1.0000   1.0000   1.0000
     1.0000   1.0000   1.0000   1.0000   1.0000   1.0000   1.0000   1.0000
     0.0000   0.0000   0.0000   0.0000   0.0000   0.0000   0.0000   0.0000
     0.0000   0.0000   0.0000   0.0000   0.0000   0.0000   0.0000   0.0000
     0.0000   0.0000   0.0000   0.0000   0.0000   0.0000   0.0000   0.0000
     0.0000   0.0000   0.0000   0.0000   0.0000   0.0000   0.0000   0.0000
     0.0000   0.0000   0.0000   0.0000   0.0000   0.0000   0.0000   0.0000
     0.0000   0.0000   0.0000   0.0000   0.0000   0.0000   0.0000   0.0000
     0.0000   0.0000   0.0000   0.0000   0.0000   0.0000   0.0000   0.0000
     0.0000   0.0000   0.0000   0.0000   0.0000   0.0000   0.0000   0.0000
     0.0000   0.0000   0.0000   0.0000   0.0000   0.0000   0.0000   0.0000
     0.0000   0.0000   0.0000   0.0000   0.0000   0.0000   0.0000   0.0000
     0.0000   0.0000   0.0000   0.0000   0.0000   0.0000   0.0000   0.0000
     0.0000   0.0000   0.0000   0.0000   0.0000   0.0000   0.0000   0.0000
     0.0000   0.0000   0.0000   0.0000   0.0000   0.0000   0.0000   0.0000
     0.0000   0.0000   0.0000   0.0000   0.0000   0.0000   0.0000   0.0000
     0.0000   0.0000   0.0000   0.0000   0.0000   0.0000   0.0000   0.0000
     0.0000   0.0000   0.0000   0.0000   0.0000   0.0000   0.0000   0.0000
     0.0000   0.0000   0.0000   0.0000   0.0000   0.0000   0.0000   0.0000
     0.0000   0.0000   0.0000   0.0000   0.0000   0.0000   0.0000   0.0000
     0.0000   0.0000   0.0000   0.0000   0.0000   0.0000   0.0000   0.0000
     0.0000   0.0000   0.0000   0.0000   0.0000   0.0000   0.0000   0.0000
     0.0000   0.0000   0.0000   0.0000   0.0000   0.0000   0.0000   0.0000
     0.0000   0.0000   0.0000   0.0000   0.0000   0.0000   0.0000   0.0000
     0.0000   0.0000   0.0000   0.0000   0.0000   0.0000   0.0000   0.0000

          k = 0.0000 0.3284 0.1774 (  3394 PWs)   bands (ev):

   -70.6901 -70.6874 -70.6857 -70.6841 -42.5718 -42.5631 -42.5617 -42.5566
   -39.5610 -39.5528 -39.5487 -39.5460 -39.5060 -39.5012 -39.4601 -39.4543
   -39.2270 -39.2173 -39.2055 -39.2045 -14.5982 -14.5917 -14.5902 -14.5426
   -14.5104 -14.4943 -14.4796 -14.4790 -14.4518 -14.4512 -14.4471 -14.4354
   -10.2398  -9.7714  -9.6828  -9.4658  -9.4229  -9.3965  -9.3738  -9.3666
     2.9062   3.0409   3.3851   3.3970   3.4181   3.4961   3.5912   3.8243
     3.8618   4.0557   4.2858   4.4271   4.5354   4.7067   4.9486   4.9879
     5.0980   5.1046   5.1816   5.2544   5.7644   5.7863   5.8823   6.1827
     8.4473   8.4667   8.5583   8.6809   8.7021   8.9624   9.0026   9.0193
     9.0748   9.0785   9.1553   9.1591   9.4833   9.6405   9.8276   9.9460
    10.7774  11.0111  11.0604  11.1379  13.0106  14.8953  15.8949  16.0994
    16.7873  16.8659  17.0581  17.2519  17.8796  18.0841  19.0035  19.1255
    19.4614  19.7180  20.1850  20.3386  20.8796  20.9158  21.0589  22.3239
    22.6142  22.6459  23.2082  23.3314  23.5471  23.7658  23.8045  24.6996
    24.7177  24.7229  25.4888  25.7052  25.7449  26.1035  26.8074  27.2115
    27.3032  27.9601  28.0676  28.2373  28.3718  28.5976  29.3535  29.3896
    29.6145  29.8663  30.1470  30.3773  31.4317  31.8268  31.8644  32.2972
    32.7549  32.8753  33.3679  33.3910  33.4891  34.0682  34.2627  34.5963
    34.7645  35.2886  35.5866  35.6495  35.9855  36.0747  36.3826  36.6223
    36.7667  36.9052  37.2559  37.3450  37.3789  38.0043  38.4938  38.9667
    39.1726  39.2697  40.0490  40.2244  40.4158  40.4323  40.8604  41.0656
    41.0912  41.3263  41.6344  42.0108  42.0374  42.0785  42.3803  42.5319
    42.7003  43.2197  43.3403  43.5809  43.9138  44.0256  44.1474  44.2242
    44.4864  44.9436  45.3472  45.6534  45.8081  45.8782  45.9784  46.2829
    46.4425  46.7175  47.0763  47.1232  47.4237  47.4520  48.2045  48.2522
    48.4344  48.4422  48.6626  49.0851  49.0926  49.3401  49.4141  50.1424
    50.2426  50.3491  50.7441  50.9288  51.1117  51.3068  51.5263  51.6359
    52.1373  52.1874  52.2004  52.2418  52.6095  52.7639  53.0003  53.2446
    53.4541  53.5652  53.9091  53.9456  54.6319  54.6618  54.7062  55.1146
    55.5123  55.6006  55.7209  56.1682  56.4855  56.5238  56.6830  56.8815
    56.9044  57.4187  57.6182  57.8867  57.9995  58.1508  58.3802  58.6450
    58.8163  58.9382  58.9607  59.2330  59.2358  59.3598  59.5059  59.6015

     occupation numbers 
     1.0000   1.0000   1.0000   1.0000   1.0000   1.0000   1.0000   1.0000
     1.0000   1.0000   1.0000   1.0000   1.0000   1.0000   1.0000   1.0000
     1.0000   1.0000   1.0000   1.0000   1.0000   1.0000   1.0000   1.0000
     1.0000   1.0000   1.0000   1.0000   1.0000   1.0000   1.0000   1.0000
     1.0000   1.0000   1.0000   1.0000   1.0000   1.0000   1.0000   1.0000
     1.0000   1.0000   1.0000   1.0000   1.0000   1.0000   1.0000   1.0000
     1.0000   1.0000   1.0000   1.0000   1.0000   1.0000   1.0000   1.0000
     1.0000   1.0000   1.0000   1.0000   1.0000   1.0000   1.0000   1.0000
     1.0000   1.0000   1.0000   1.0000   1.0000   1.0000   1.0000   1.0000
     0.0000   0.0000   0.0000   0.0000   0.0000   0.0000   0.0000   0.0000
     0.0000   0.0000   0.0000   0.0000   0.0000   0.0000   0.0000   0.0000
     0.0000   0.0000   0.0000   0.0000   0.0000   0.0000   0.0000   0.0000
     0.0000   0.0000   0.0000   0.0000   0.0000   0.0000   0.0000   0.0000
     0.0000   0.0000   0.0000   0.0000   0.0000   0.0000   0.0000   0.0000
     0.0000   0.0000   0.0000   0.0000   0.0000   0.0000   0.0000   0.0000
     0.0000   0.0000   0.0000   0.0000   0.0000   0.0000   0.0000   0.0000
     0.0000   0.0000   0.0000   0.0000   0.0000   0.0000   0.0000   0.0000
     0.0000   0.0000   0.0000   0.0000   0.0000   0.0000   0.0000   0.0000
     0.0000   0.0000   0.0000   0.0000   0.0000   0.0000   0.0000   0.0000
     0.0000   0.0000   0.0000   0.0000   0.0000   0.0000   0.0000   0.0000
     0.0000   0.0000   0.0000   0.0000   0.0000   0.0000   0.0000   0.0000
     0.0000   0.0000   0.0000   0.0000   0.0000   0.0000   0.0000   0.0000
     0.0000   0.0000   0.0000   0.0000   0.0000   0.0000   0.0000   0.0000
     0.0000   0.0000   0.0000   0.0000   0.0000   0.0000   0.0000   0.0000
     0.0000   0.0000   0.0000   0.0000   0.0000   0.0000   0.0000   0.0000
     0.0000   0.0000   0.0000   0.0000   0.0000   0.0000   0.0000   0.0000
     0.0000   0.0000   0.0000   0.0000   0.0000   0.0000   0.0000   0.0000
     0.0000   0.0000   0.0000   0.0000   0.0000   0.0000   0.0000   0.0000
     0.0000   0.0000   0.0000   0.0000   0.0000   0.0000   0.0000   0.0000
     0.0000   0.0000   0.0000   0.0000   0.0000   0.0000   0.0000   0.0000
     0.0000   0.0000   0.0000   0.0000   0.0000   0.0000   0.0000   0.0000
     0.0000   0.0000   0.0000   0.0000   0.0000   0.0000   0.0000   0.0000

          k = 0.0000 0.3284-0.5319 (  3390 PWs)   bands (ev):

   -70.6896 -70.6876 -70.6854 -70.6844 -42.5713 -42.5632 -42.5613 -42.5570
   -39.5599 -39.5538 -39.5465 -39.5419 -39.5091 -39.4992 -39.4633 -39.4526
   -39.2292 -39.2171 -39.2043 -39.2030 -14.5999 -14.5929 -14.5895 -14.5430
   -14.5129 -14.4960 -14.4774 -14.4773 -14.4521 -14.4483 -14.4466 -14.4378
   -10.1307  -9.8133  -9.6633  -9.4823  -9.4595  -9.4045  -9.3940  -9.3811
     3.0818   3.3524   3.4272   3.5285   3.5385   3.5794   3.6541   3.7299
     3.7305   3.8529   4.1882   4.2551   4.4369   4.5764   4.9493   4.9634
     5.1335   5.2148   5.2879   5.3234   5.5750   5.6224   5.8106   5.9920
     8.4830   8.4953   8.5449   8.6430   8.7518   8.9916   9.0523   9.0867
     9.0948   9.1060   9.1124   9.1243   9.3740   9.7086   9.7800   9.9275
    10.8452  11.0651  11.0894  11.1357  14.1765  14.4587  14.9655  16.4430
    16.8613  17.1728  17.2590  17.4648  17.8293  18.1325  18.3092  18.4130
    19.2380  20.3178  20.5490  20.7268  20.8755  20.8793  21.3041  21.4410
    21.9444  22.7453  22.8542  23.0538  23.8517  24.1351  24.1642  24.2150
    24.2472  25.0128  25.8623  25.9680  26.0474  26.7298  26.9787  27.2045
    27.7486  28.1184  28.3724  28.4770  28.6243  28.8027  29.0864  29.1254
    29.7783  29.7941  30.2022  30.3696  30.9651  31.0557  31.1839  31.8672
    31.9283  32.0289  33.1158  33.5302  33.5908  34.0148  34.0795  34.4329
    34.4348  35.5989  35.7232  35.8293  36.5480  36.5640  36.7345  36.9550
    37.2189  37.2680  37.6508  38.0573  38.0888  38.1582  38.5610  38.7568
    39.2280  39.4118  39.4750  39.8545  39.9885  40.1435  40.2158  40.3424
    40.6805  41.6887  41.8119  41.8254  41.8432  42.0373  42.2084  42.2525
    42.9338  43.1834  43.2655  43.4740  43.6053  44.2380  44.4814  44.5173
    44.7948  44.9719  45.3359  45.5890  45.6050  45.6224  45.6652  46.6862
    46.8409  46.9046  47.0305  47.2585  47.5703  48.2596  48.2663  48.6004
    48.9752  49.2567  49.2812  49.3898  49.3955  49.8640  49.9225  49.9356
    50.1833  50.4244  50.4420  50.8018  51.0809  51.2788  51.3780  51.3884
    51.5290  51.5588  51.5892  52.5563  52.5755  53.2883  53.3687  53.4047
    53.5282  53.6296  54.2464  54.2614  54.2871  54.4157  54.7041  54.8540
    55.1151  55.1377  55.3475  55.5755  55.6633  56.1311  56.2893  56.3902
    56.4618  56.4660  57.1452  57.5467  57.7012  57.8398  57.9229  58.0222
    58.0391  58.3777  58.5646  58.9485  59.0569  59.1583  59.3777  59.4908

     occupation numbers 
     1.0000   1.0000   1.0000   1.0000   1.0000   1.0000   1.0000   1.0000
     1.0000   1.0000   1.0000   1.0000   1.0000   1.0000   1.0000   1.0000
     1.0000   1.0000   1.0000   1.0000   1.0000   1.0000   1.0000   1.0000
     1.0000   1.0000   1.0000   1.0000   1.0000   1.0000   1.0000   1.0000
     1.0000   1.0000   1.0000   1.0000   1.0000   1.0000   1.0000   1.0000
     1.0000   1.0000   1.0000   1.0000   1.0000   1.0000   1.0000   1.0000
     1.0000   1.0000   1.0000   1.0000   1.0000   1.0000   1.0000   1.0000
     1.0000   1.0000   1.0000   1.0000   1.0000   1.0000   1.0000   1.0000
     1.0000   1.0000   1.0000   1.0000   1.0000   1.0000   1.0000   1.0000
     0.0000   0.0000   0.0000   0.0000   0.0000   0.0000   0.0000   0.0000
     0.0000   0.0000   0.0000   0.0000   0.0000   0.0000   0.0000   0.0000
     0.0000   0.0000   0.0000   0.0000   0.0000   0.0000   0.0000   0.0000
     0.0000   0.0000   0.0000   0.0000   0.0000   0.0000   0.0000   0.0000
     0.0000   0.0000   0.0000   0.0000   0.0000   0.0000   0.0000   0.0000
     0.0000   0.0000   0.0000   0.0000   0.0000   0.0000   0.0000   0.0000
     0.0000   0.0000   0.0000   0.0000   0.0000   0.0000   0.0000   0.0000
     0.0000   0.0000   0.0000   0.0000   0.0000   0.0000   0.0000   0.0000
     0.0000   0.0000   0.0000   0.0000   0.0000   0.0000   0.0000   0.0000
     0.0000   0.0000   0.0000   0.0000   0.0000   0.0000   0.0000   0.0000
     0.0000   0.0000   0.0000   0.0000   0.0000   0.0000   0.0000   0.0000
     0.0000   0.0000   0.0000   0.0000   0.0000   0.0000   0.0000   0.0000
     0.0000   0.0000   0.0000   0.0000   0.0000   0.0000   0.0000   0.0000
     0.0000   0.0000   0.0000   0.0000   0.0000   0.0000   0.0000   0.0000
     0.0000   0.0000   0.0000   0.0000   0.0000   0.0000   0.0000   0.0000
     0.0000   0.0000   0.0000   0.0000   0.0000   0.0000   0.0000   0.0000
     0.0000   0.0000   0.0000   0.0000   0.0000   0.0000   0.0000   0.0000
     0.0000   0.0000   0.0000   0.0000   0.0000   0.0000   0.0000   0.0000
     0.0000   0.0000   0.0000   0.0000   0.0000   0.0000   0.0000   0.0000
     0.0000   0.0000   0.0000   0.0000   0.0000   0.0000   0.0000   0.0000
     0.0000   0.0000   0.0000   0.0000   0.0000   0.0000   0.0000   0.0000
     0.0000   0.0000   0.0000   0.0000   0.0000   0.0000   0.0000   0.0000
     0.0000   0.0000   0.0000   0.0000   0.0000   0.0000   0.0000   0.0000

          k = 0.3333 0.0000 0.1421 (  3384 PWs)   bands (ev):

   -70.6912 -70.6898 -70.6830 -70.6830 -42.5738 -42.5690 -42.5550 -42.5550
   -39.5595 -39.5534 -39.5466 -39.5462 -39.5238 -39.5235 -39.4400 -39.4346
   -39.2237 -39.2099 -39.2090 -39.2084 -14.6583 -14.6581 -14.5704 -14.5098
   -14.4866 -14.4836 -14.4828 -14.4779 -14.4391 -14.4357 -14.4357 -14.4280
   -10.2822  -9.9346  -9.4548  -9.4508  -9.4125  -9.4121  -9.3959  -9.3556
     2.6020   2.6067   2.9437   2.9542   3.5203   3.7833   3.7838   3.9383
     4.0746   4.1135   4.5117   4.5208   4.5231   4.7159   4.7196   5.0058
     5.0132   5.3303   5.5999   5.6083   5.8680   5.8954   6.1387   6.1604
     8.1269   8.1275   8.3698   8.4170   8.6075   8.8257   8.9156   8.9166
     9.1378   9.1431   9.1919   9.2214   9.6093   9.8580   9.9437   9.9544
    11.2375  11.2378  11.4950  11.5041  12.7932  14.4612  15.3233  15.3323
    16.0354  17.1321  17.7198  17.7268  17.9766  18.0352  18.4647  18.4696
    19.3657  19.4024  19.6696  20.1990  20.2339  20.2934  21.0446  21.7423
    22.5756  22.5843  23.4381  23.4492  23.9627  24.7298  25.3455  25.3467
    25.3715  25.9518  25.9554  26.5390  26.6641  26.7682  26.9757  27.1218
    27.1230  27.1657  27.6041  27.6208  28.7950  28.8343  29.5164  29.5325
    29.5509  29.6232  29.8552  29.9663  31.4557  32.0843  32.1759  32.2368
    32.4183  32.5756  32.9354  33.4329  33.4502  34.1350  34.1422  34.2110
    34.6712  34.9275  34.9339  35.2093  35.6311  35.6847  35.7748  35.9037
    37.2096  37.2284  37.3930  37.8593  37.8795  37.9106  38.1477  38.1664
    38.4912  39.8357  39.8360  39.8557  39.9825  40.2341  40.2428  40.3728
    41.6389  41.6480  41.8206  41.9841  42.1994  42.2474  42.2726  42.7691
    42.9589  42.9703  43.1522  43.9433  44.0742  44.1077  44.1928  44.2650
    44.9546  44.9808  44.9899  45.0318  45.3281  45.6408  45.6736  46.7026
    47.0136  47.0211  47.1644  47.9402  47.9815  48.1006  48.1090  48.6458
    48.8264  48.9189  48.9211  48.9533  49.4571  49.4789  49.9109  50.0044
    50.0144  50.1438  50.4411  50.5347  50.5633  50.6788  50.7009  50.8877
    51.6350  51.9294  51.9905  52.8979  52.9157  53.0128  53.4932  53.5452
    53.6152  53.9937  54.0394  54.2032  54.4485  55.0842  55.2239  55.3280
    55.3489  55.7815  55.8130  55.8809  56.3651  56.6145  56.6242  56.9757
    57.0314  57.4378  57.6119  57.6459  58.2210  58.2362  58.4614  58.5697
    58.6158  58.6467  58.7965  58.8855  59.1748  59.2203  59.5602  59.5904

     occupation numbers 
     1.0000   1.0000   1.0000   1.0000   1.0000   1.0000   1.0000   1.0000
     1.0000   1.0000   1.0000   1.0000   1.0000   1.0000   1.0000   1.0000
     1.0000   1.0000   1.0000   1.0000   1.0000   1.0000   1.0000   1.0000
     1.0000   1.0000   1.0000   1.0000   1.0000   1.0000   1.0000   1.0000
     1.0000   1.0000   1.0000   1.0000   1.0000   1.0000   1.0000   1.0000
     1.0000   1.0000   1.0000   1.0000   1.0000   1.0000   1.0000   1.0000
     1.0000   1.0000   1.0000   1.0000   1.0000   1.0000   1.0000   1.0000
     1.0000   1.0000   1.0000   1.0000   1.0000   1.0000   1.0000   1.0000
     1.0000   1.0000   1.0000   1.0000   1.0000   1.0000   1.0000   1.0000
     0.0000   0.0000   0.0000   0.0000   0.0000   0.0000   0.0000   0.0000
     0.0000   0.0000   0.0000   0.0000   0.0000   0.0000   0.0000   0.0000
     0.0000   0.0000   0.0000   0.0000   0.0000   0.0000   0.0000   0.0000
     0.0000   0.0000   0.0000   0.0000   0.0000   0.0000   0.0000   0.0000
     0.0000   0.0000   0.0000   0.0000   0.0000   0.0000   0.0000   0.0000
     0.0000   0.0000   0.0000   0.0000   0.0000   0.0000   0.0000   0.0000
     0.0000   0.0000   0.0000   0.0000   0.0000   0.0000   0.0000   0.0000
     0.0000   0.0000   0.0000   0.0000   0.0000   0.0000   0.0000   0.0000
     0.0000   0.0000   0.0000   0.0000   0.0000   0.0000   0.0000   0.0000
     0.0000   0.0000   0.0000   0.0000   0.0000   0.0000   0.0000   0.0000
     0.0000   0.0000   0.0000   0.0000   0.0000   0.0000   0.0000   0.0000
     0.0000   0.0000   0.0000   0.0000   0.0000   0.0000   0.0000   0.0000
     0.0000   0.0000   0.0000   0.0000   0.0000   0.0000   0.0000   0.0000
     0.0000   0.0000   0.0000   0.0000   0.0000   0.0000   0.0000   0.0000
     0.0000   0.0000   0.0000   0.0000   0.0000   0.0000   0.0000   0.0000
     0.0000   0.0000   0.0000   0.0000   0.0000   0.0000   0.0000   0.0000
     0.0000   0.0000   0.0000   0.0000   0.0000   0.0000   0.0000   0.0000
     0.0000   0.0000   0.0000   0.0000   0.0000   0.0000   0.0000   0.0000
     0.0000   0.0000   0.0000   0.0000   0.0000   0.0000   0.0000   0.0000
     0.0000   0.0000   0.0000   0.0000   0.0000   0.0000   0.0000   0.0000
     0.0000   0.0000   0.0000   0.0000   0.0000   0.0000   0.0000   0.0000
     0.0000   0.0000   0.0000   0.0000   0.0000   0.0000   0.0000   0.0000
     0.0000   0.0000   0.0000   0.0000   0.0000   0.0000   0.0000   0.0000

          k = 0.3333 0.0000 0.4968 (  3375 PWs)   bands (ev):

   -70.6912 -70.6893 -70.6831 -70.6830 -42.5738 -42.5684 -42.5551 -42.5550
   -39.5560 -39.5531 -39.5457 -39.5453 -39.5248 -39.5245 -39.4344 -39.4335
   -39.2208 -39.2105 -39.2095 -39.2089 -14.6602 -14.6599 -14.5707 -14.5163
   -14.4859 -14.4833 -14.4825 -14.4733 -14.4355 -14.4346 -14.4345 -14.4278
   -10.1844  -9.9801  -9.4615  -9.4497  -9.4492  -9.4177  -9.4151  -9.3462
     2.6723   2.6800   2.9241   3.2628   3.6877   3.8216   3.8870   3.8884
     4.0877   4.1051   4.2953   4.4481   4.4568   4.6929   4.6983   4.8956
     4.9025   5.4718   5.5192   5.5246   5.6163   5.9638   5.9773   6.1399
     8.1813   8.1815   8.4022   8.4062   8.6082   8.8317   8.9104   8.9111
     9.1445   9.1492   9.2208   9.2679   9.5352   9.7472   9.9022   9.9151
    11.2613  11.2618  11.4897  11.5165  14.0448  14.4193  14.8246  15.7725
    15.7934  17.1738  17.5087  17.5121  17.9410  18.1373  18.1703  18.1950
    19.2936  19.3343  20.0373  20.5323  20.5615  20.6849  20.8718  22.3841
    22.5822  22.5834  22.7380  23.5050  23.5400  24.3026  24.6571  24.6948
    25.4525  25.7942  26.2746  26.2960  26.2984  26.6088  26.8612  27.1283
    27.2126  27.2302  27.8080  28.3427  28.6422  28.6690  29.2022  29.7696
    29.7919  30.4691  30.8036  30.9944  31.5759  31.9662  31.9821  32.4751
    32.5455  32.5849  32.6114  32.6940  33.1224  33.8957  34.1214  34.1912
    34.4315  34.8317  35.2301  35.2734  35.2989  36.0853  36.6584  36.6963
    36.9068  37.0420  37.3109  37.9162  37.9339  38.0965  38.4022  38.6217
    38.6412  38.6740  39.1018  39.6151  39.8994  40.0001  40.0207  40.2983
    40.3262  41.1017  41.1201  41.4946  42.2530  42.2689  42.5185  42.8128
    43.0159  43.4610  43.4639  43.5976  43.7616  44.0155  44.0253  44.4486
    44.4621  44.8954  44.8969  45.3616  45.3741  46.1975  46.9482  46.9696
    46.9883  47.8079  47.8163  48.0798  48.2062  48.2093  48.5608  48.6311
    48.8563  48.9183  48.9557  49.1982  49.3851  49.5311  49.9550  49.9610
    49.9992  50.5107  50.5235  50.5814  50.6259  51.1043  51.4705  51.4833
    51.4943  51.8150  52.4648  52.4984  52.5056  53.1830  53.1972  53.2135
    53.7512  54.0788  54.2179  54.2461  54.7591  55.1876  55.3896  55.4185
    55.6235  55.6926  55.6977  55.7868  56.4286  56.4868  56.7975  57.0525
    57.0672  57.5409  57.5483  57.6006  57.6575  57.6664  57.7926  57.8020
    58.0405  58.2838  58.5783  59.0388  59.0517  59.0734  59.8533  59.8587

     occupation numbers 
     1.0000   1.0000   1.0000   1.0000   1.0000   1.0000   1.0000   1.0000
     1.0000   1.0000   1.0000   1.0000   1.0000   1.0000   1.0000   1.0000
     1.0000   1.0000   1.0000   1.0000   1.0000   1.0000   1.0000   1.0000
     1.0000   1.0000   1.0000   1.0000   1.0000   1.0000   1.0000   1.0000
     1.0000   1.0000   1.0000   1.0000   1.0000   1.0000   1.0000   1.0000
     1.0000   1.0000   1.0000   1.0000   1.0000   1.0000   1.0000   1.0000
     1.0000   1.0000   1.0000   1.0000   1.0000   1.0000   1.0000   1.0000
     1.0000   1.0000   1.0000   1.0000   1.0000   1.0000   1.0000   1.0000
     1.0000   1.0000   1.0000   1.0000   1.0000   1.0000   1.0000   1.0000
     0.0000   0.0000   0.0000   0.0000   0.0000   0.0000   0.0000   0.0000
     0.0000   0.0000   0.0000   0.0000   0.0000   0.0000   0.0000   0.0000
     0.0000   0.0000   0.0000   0.0000   0.0000   0.0000   0.0000   0.0000
     0.0000   0.0000   0.0000   0.0000   0.0000   0.0000   0.0000   0.0000
     0.0000   0.0000   0.0000   0.0000   0.0000   0.0000   0.0000   0.0000
     0.0000   0.0000   0.0000   0.0000   0.0000   0.0000   0.0000   0.0000
     0.0000   0.0000   0.0000   0.0000   0.0000   0.0000   0.0000   0.0000
     0.0000   0.0000   0.0000   0.0000   0.0000   0.0000   0.0000   0.0000
     0.0000   0.0000   0.0000   0.0000   0.0000   0.0000   0.0000   0.0000
[...]
     0.0000   0.0000   0.0000   0.0000   0.0000   0.0000   0.0000   0.0000
     0.0000   0.0000   0.0000   0.0000   0.0000   0.0000   0.0000   0.0000
     0.0000   0.0000   0.0000   0.0000   0.0000   0.0000   0.0000   0.0000
     0.0000   0.0000   0.0000   0.0000   0.0000   0.0000   0.0000   0.0000
     0.0000   0.0000   0.0000   0.0000   0.0000   0.0000   0.0000   0.0000
     0.0000   0.0000   0.0000   0.0000   0.0000   0.0000   0.0000   0.0000
     0.0000   0.0000   0.0000   0.0000   0.0000   0.0000   0.0000   0.0000
     0.0000   0.0000   0.0000   0.0000   0.0000   0.0000   0.0000   0.0000
     0.0000   0.0000   0.0000   0.0000   0.0000   0.0000   0.0000   0.0000

          k = 0.3333-0.3284 0.3194 (  3373 PWs)   bands (ev):

   -70.6890 -70.6877 -70.6851 -70.6848 -42.5691 -42.5648 -42.5602 -42.5582
   -39.5547 -39.5501 -39.5482 -39.5439 -39.5070 -39.5007 -39.4564 -39.4537
   -39.2189 -39.2161 -39.2092 -39.2075 -14.6136 -14.6036 -14.5631 -14.5075
   -14.5066 -14.4935 -14.4830 -14.4748 -14.4630 -14.4596 -14.4525 -14.4445
   -10.0626  -9.8277  -9.7065  -9.5461  -9.4154  -9.4052  -9.3994  -9.3718
     3.0441   3.2373   3.2785   3.4564   3.5554   3.5770   3.5940   3.6358
     3.8789   4.1618   4.2062   4.2591   4.4855   4.5627   4.6540   4.9988
     5.1233   5.1778   5.4178   5.5705   5.6071   5.7015   5.9276   6.0362
     8.3274   8.4718   8.5046   8.7798   8.8691   8.8863   8.9633   8.9838
     9.0703   9.1021   9.1151   9.1650   9.5179   9.7896   9.8370   9.8459
    10.9608  11.0552  11.0846  11.1053  14.2218  14.4699  14.9307  15.6633
    15.8519  17.5872  17.6359  17.7196  18.0406  18.2005  18.2415  18.7892
    19.8679  20.1279  20.1920  20.4165  20.4700  20.5329  20.7370  21.6595
    21.8980  22.8517  23.3107  23.5424  24.0673  24.1390  24.5389  24.7377
    24.9196  25.1715  25.3867  25.6464  26.1140  26.2515  26.3326  27.0806
    27.4883  27.5624  28.1316  28.2406  28.3699  28.6735  28.9041  29.4639
    29.7661  30.2318  30.6375  31.3014  31.3115  31.7892  32.1840  32.4959
    32.7001  32.7408  33.1818  33.3689  33.3812  33.6683  33.8813  34.4406
    34.5574  34.9129  35.0056  35.5073  35.5818  36.2975  36.4238  36.6200
    36.7820  37.0581  37.2539  37.9436  38.0650  38.1966  38.8160  38.9366
    39.1626  39.2018  39.4532  40.3433  40.3495  40.6061  40.6279  41.0003
    41.2164  41.4242  41.8354  41.9158  42.0141  42.3645  42.4009  42.6635
    42.8023  43.1739  43.4100  43.4301  43.5485  43.9389  44.1642  44.2289
    44.4517  44.7480  44.7945  44.8542  44.8751  45.0401  45.5311  45.7698
    46.1693  46.4322  46.5799  46.9096  46.9447  47.4708  47.6425  47.7576
    47.7853  48.3808  48.4526  48.9858  49.2607  49.6751  49.9163  50.2288
    50.5042  50.6601  50.7333  50.7853  51.1161  51.3322  51.4560  51.9526
    52.1244  52.4988  52.6572  53.2303  53.3709  53.5156  53.8410  53.8546
    53.9504  54.3016  54.4335  54.6110  54.6489  54.7572  54.8114  55.2139
    55.4517  55.8678  56.0543  56.5723  56.6378  56.6608  56.8616  56.9006
    57.2647  57.5070  57.7838  57.8985  58.0924  58.4428  58.5667  58.6263
    58.7124  58.7368  58.9406  59.3018  59.4313  59.8455  59.9017  60.1046

     occupation numbers 
     1.0000   1.0000   1.0000   1.0000   1.0000   1.0000   1.0000   1.0000
     1.0000   1.0000   1.0000   1.0000   1.0000   1.0000   1.0000   1.0000
     1.0000   1.0000   1.0000   1.0000   1.0000   1.0000   1.0000   1.0000
     1.0000   1.0000   1.0000   1.0000   1.0000   1.0000   1.0000   1.0000
     1.0000   1.0000   1.0000   1.0000   1.0000   1.0000   1.0000   1.0000
     1.0000   1.0000   1.0000   1.0000   1.0000   1.0000   1.0000   1.0000
     1.0000   1.0000   1.0000   1.0000   1.0000   1.0000   1.0000   1.0000
     1.0000   1.0000   1.0000   1.0000   1.0000   1.0000   1.0000   1.0000
     1.0000   1.0000   1.0000   1.0000   1.0000   1.0000   1.0000   1.0000
     0.0000   0.0000   0.0000   0.0000   0.0000   0.0000   0.0000   0.0000
     0.0000   0.0000   0.0000   0.0000   0.0000   0.0000   0.0000   0.0000
     0.0000   0.0000   0.0000   0.0000   0.0000   0.0000   0.0000   0.0000
     0.0000   0.0000   0.0000   0.0000   0.0000   0.0000   0.0000   0.0000
     0.0000   0.0000   0.0000   0.0000   0.0000   0.0000   0.0000   0.0000
     0.0000   0.0000   0.0000   0.0000   0.0000   0.0000   0.0000   0.0000
     0.0000   0.0000   0.0000   0.0000   0.0000   0.0000   0.0000   0.0000
     0.0000   0.0000   0.0000   0.0000   0.0000   0.0000   0.0000   0.0000
     0.0000   0.0000   0.0000   0.0000   0.0000   0.0000   0.0000   0.0000
     0.0000   0.0000   0.0000   0.0000   0.0000   0.0000   0.0000   0.0000
     0.0000   0.0000   0.0000   0.0000   0.0000   0.0000   0.0000   0.0000
     0.0000   0.0000   0.0000   0.0000   0.0000   0.0000   0.0000   0.0000
     0.0000   0.0000   0.0000   0.0000   0.0000   0.0000   0.0000   0.0000
     0.0000   0.0000   0.0000   0.0000   0.0000   0.0000   0.0000   0.0000
     0.0000   0.0000   0.0000   0.0000   0.0000   0.0000   0.0000   0.0000
     0.0000   0.0000   0.0000   0.0000   0.0000   0.0000   0.0000   0.0000
     0.0000   0.0000   0.0000   0.0000   0.0000   0.0000   0.0000   0.0000
     0.0000   0.0000   0.0000   0.0000   0.0000   0.0000   0.0000   0.0000
     0.0000   0.0000   0.0000   0.0000   0.0000   0.0000   0.0000   0.0000
     0.0000   0.0000   0.0000   0.0000   0.0000   0.0000   0.0000   0.0000
     0.0000   0.0000   0.0000   0.0000   0.0000   0.0000   0.0000   0.0000
     0.0000   0.0000   0.0000   0.0000   0.0000   0.0000   0.0000   0.0000
     0.0000   0.0000   0.0000   0.0000   0.0000   0.0000   0.0000   0.0000

          k = 0.3333-0.3284 0.6740 (  3392 PWs)   bands (ev):

   -70.6891 -70.6882 -70.6853 -70.6846 -42.5693 -42.5653 -42.5604 -42.5579
   -39.5591 -39.5513 -39.5485 -39.5468 -39.5042 -39.5021 -39.4607 -39.4555
   -39.2215 -39.2152 -39.2078 -39.2076 -14.6119 -14.6045 -14.5643 -14.5093
   -14.5069 -14.4926 -14.4855 -14.4745 -14.4649 -14.4594 -14.4545 -14.4443
   -10.0598  -9.8447  -9.7351  -9.5693  -9.4168  -9.3774  -9.3762  -9.3533
     3.0908   3.1957   3.2186   3.3760   3.5772   3.5855   3.6614   3.8441
     4.0370   4.0922   4.1761   4.1860   4.3062   4.5913   4.6007   5.0366
     5.0977   5.1569   5.4118   5.5292   5.5625   5.6927   5.9520   6.0262
     8.3572   8.4934   8.4998   8.7763   8.8382   8.8481   8.9691   8.9879
     9.1171   9.1334   9.1370   9.1539   9.5310   9.7067   9.7109   9.8423
    10.9417  10.9673  11.0833  11.1557  13.9941  14.9709  15.0646  16.0128
    16.3278  16.8332  17.1032  17.3333  17.9377  18.2574  18.3761  18.8770
    19.8452  20.1626  20.4177  20.8034  21.0064  21.1400  21.1474  21.4688
    22.0922  22.5134  23.1523  23.5598  23.6378  23.9807  24.0910  24.1437
    24.6414  24.8832  25.0211  25.5745  25.6205  26.3001  26.6691  27.0905
    27.4987  27.5404  27.8396  27.9077  28.4590  28.5197  29.6234  29.7001
    30.1680  30.4563  30.7943  30.8993  31.7295  31.9086  31.9184  32.0987
    32.1668  32.3659  33.8131  34.1961  34.3755  34.6115  34.7836  35.1578
    35.1613  35.3945  35.4632  35.4816  35.7419  36.2190  36.3275  36.4597
    36.6974  37.1290  37.1788  37.2406  37.5798  38.2347  38.5388  38.6110
    38.9381  39.0449  39.2921  39.4945  39.5982  39.8288  39.8366  40.2300
    40.5233  41.0779  41.2887  41.6293  41.6916  41.8804  41.9718  42.4093
    42.8629  43.2684  43.2939  43.5468  43.5583  43.8087  43.8130  44.2784
    44.3613  44.7556  44.7593  44.8414  45.4072  45.6381  45.7996  46.3342
    46.3930  46.5109  46.6706  47.0510  47.6521  48.0550  48.1734  48.5918
    48.7283  48.7384  49.1957  49.4610  49.5348  49.6242  49.7167  50.4311
    50.7401  51.1138  51.2383  51.3482  51.3943  51.4451  51.6043  52.2819
    52.2852  52.6704  52.8360  52.8945  53.0513  53.1246  53.4946  53.6277
    53.8987  54.0754  54.1768  54.9230  54.9921  55.1240  55.1714  55.2390
    55.4615  55.5833  55.8633  55.9211  56.0594  56.6402  56.6922  56.9958
    57.1070  57.1515  57.1631  57.3785  57.4480  57.8387  58.0205  58.1860
    58.7347  58.8333  58.9040  59.0807  59.2193  59.4305  59.5043  60.0276

     occupation numbers 
     1.0000   1.0000   1.0000   1.0000   1.0000   1.0000   1.0000   1.0000
     1.0000   1.0000   1.0000   1.0000   1.0000   1.0000   1.0000   1.0000
     1.0000   1.0000   1.0000   1.0000   1.0000   1.0000   1.0000   1.0000
     1.0000   1.0000   1.0000   1.0000   1.0000   1.0000   1.0000   1.0000
     1.0000   1.0000   1.0000   1.0000   1.0000   1.0000   1.0000   1.0000
     1.0000   1.0000   1.0000   1.0000   1.0000   1.0000   1.0000   1.0000
     1.0000   1.0000   1.0000   1.0000   1.0000   1.0000   1.0000   1.0000
     1.0000   1.0000   1.0000   1.0000   1.0000   1.0000   1.0000   1.0000
     1.0000   1.0000   1.0000   1.0000   1.0000   1.0000   1.0000   1.0000
     0.0000   0.0000   0.0000   0.0000   0.0000   0.0000   0.0000   0.0000
     0.0000   0.0000   0.0000   0.0000   0.0000   0.0000   0.0000   0.0000
     0.0000   0.0000   0.0000   0.0000   0.0000   0.0000   0.0000   0.0000
     0.0000   0.0000   0.0000   0.0000   0.0000   0.0000   0.0000   0.0000
     0.0000   0.0000   0.0000   0.0000   0.0000   0.0000   0.0000   0.0000
     0.0000   0.0000   0.0000   0.0000   0.0000   0.0000   0.0000   0.0000
     0.0000   0.0000   0.0000   0.0000   0.0000   0.0000   0.0000   0.0000
     0.0000   0.0000   0.0000   0.0000   0.0000   0.0000   0.0000   0.0000
     0.0000   0.0000   0.0000   0.0000   0.0000   0.0000   0.0000   0.0000
     0.0000   0.0000   0.0000   0.0000   0.0000   0.0000   0.0000   0.0000
     0.0000   0.0000   0.0000   0.0000   0.0000   0.0000   0.0000   0.0000
     0.0000   0.0000   0.0000   0.0000   0.0000   0.0000   0.0000   0.0000
     0.0000   0.0000   0.0000   0.0000   0.0000   0.0000   0.0000   0.0000
     0.0000   0.0000   0.0000   0.0000   0.0000   0.0000   0.0000   0.0000
     0.0000   0.0000   0.0000   0.0000   0.0000   0.0000   0.0000   0.0000
     0.0000   0.0000   0.0000   0.0000   0.0000   0.0000   0.0000   0.0000
     0.0000   0.0000   0.0000   0.0000   0.0000   0.0000   0.0000   0.0000
     0.0000   0.0000   0.0000   0.0000   0.0000   0.0000   0.0000   0.0000
     0.0000   0.0000   0.0000   0.0000   0.0000   0.0000   0.0000   0.0000
     0.0000   0.0000   0.0000   0.0000   0.0000   0.0000   0.0000   0.0000
     0.0000   0.0000   0.0000   0.0000   0.0000   0.0000   0.0000   0.0000
     0.0000   0.0000   0.0000   0.0000   0.0000   0.0000   0.0000   0.0000
     0.0000   0.0000   0.0000   0.0000   0.0000   0.0000   0.0000   0.0000

          k = 0.3333-0.3284-0.0353 (  3381 PWs)   bands (ev):

   -70.6893 -70.6880 -70.6851 -70.6845 -42.5695 -42.5651 -42.5603 -42.5578
   -39.5585 -39.5532 -39.5480 -39.5462 -39.5045 -39.5020 -39.4572 -39.4567
   -39.2219 -39.2134 -39.2077 -39.2050 -14.6127 -14.6043 -14.5620 -14.5077
   -14.5070 -14.4904 -14.4833 -14.4737 -14.4675 -14.4617 -14.4552 -14.4417
   -10.1360  -9.8137  -9.6962  -9.5608  -9.4144  -9.3897  -9.3820  -9.3362
     3.0846   3.1117   3.1280   3.1969   3.4993   3.5592   3.6758   3.8252
     3.9921   4.1844   4.1888   4.3874   4.4315   4.6361   4.8111   4.9369
     5.0748   5.0868   5.4301   5.4418   5.6029   5.7701   5.9495   6.2410
     8.2864   8.5179   8.5358   8.7525   8.8237   8.8361   8.9719   8.9953
     9.1022   9.1114   9.1150   9.1517   9.6287   9.6817   9.7451   9.8885
    10.8572  11.0596  11.0859  11.1075  13.2784  15.2704  15.3521  15.5762
    16.5987  16.7871  16.8263  17.5756  17.9349  18.3772  18.8639  19.1571
    19.4308  20.0638  20.0857  20.5726  20.6663  20.8224  21.6723  21.7525
    21.8893  22.3751  23.1979  23.7568  23.9044  23.9259  24.2701  24.5296
    24.6103  24.8003  24.8992  25.9818  26.1242  26.7544  26.8813  26.9356
    26.9474  27.2818  27.2923  27.5257  28.5281  28.8584  29.3193  29.5852
    30.0377  30.5399  30.6410  31.2355  31.3439  31.8540  31.9048  32.1062
    33.1267  33.4755  33.5125  33.6196  33.9432  34.3948  34.3979  34.6031
    34.7347  35.0932  35.4948  35.5007  35.7527  36.4585  36.4883  36.7310
    36.8277  36.8331  37.1082  37.2806  37.4726  37.8259  37.9991  38.5393
    38.8188  39.0366  39.6933  39.7424  39.8353  40.1489  40.3983  40.9743
    40.9761  41.2408  41.8860  42.0128  42.2510  42.3872  42.4139  42.6755
    42.7729  42.8157  42.9874  43.2907  43.4864  43.7527  43.8386  44.0940
    44.3094  44.4931  44.9548  45.1240  45.5852  45.6371  45.8410  45.9112
    46.1843  46.2305  46.8805  47.1977  47.5034  47.7105  48.0198  48.0991
    48.2392  48.3267  48.3820  48.5520  49.0347  49.3766  49.3839  50.2394
    50.5252  50.7588  50.7725  50.8673  51.0725  51.4417  51.5620  52.4532
    52.4893  52.5490  53.2093  53.2424  53.3297  53.5989  53.6387  53.8027
    54.4188  54.5819  54.6000  54.8986  54.8995  55.1346  55.2663  55.5880
    55.6593  56.0267  56.0420  56.0782  56.3021  56.6823  56.7566  56.7774
    56.9699  57.2222  57.2399  57.5303  57.6764  57.9802  58.1210  58.3816
    58.6367  58.7792  58.9781  59.0185  59.4212  59.8546  59.8907  59.9182

     occupation numbers 
     1.0000   1.0000   1.0000   1.0000   1.0000   1.0000   1.0000   1.0000
     1.0000   1.0000   1.0000   1.0000   1.0000   1.0000   1.0000   1.0000
     1.0000   1.0000   1.0000   1.0000   1.0000   1.0000   1.0000   1.0000
     1.0000   1.0000   1.0000   1.0000   1.0000   1.0000   1.0000   1.0000
     1.0000   1.0000   1.0000   1.0000   1.0000   1.0000   1.0000   1.0000
     1.0000   1.0000   1.0000   1.0000   1.0000   1.0000   1.0000   1.0000
     1.0000   1.0000   1.0000   1.0000   1.0000   1.0000   1.0000   1.0000
     1.0000   1.0000   1.0000   1.0000   1.0000   1.0000   1.0000   1.0000
     1.0000   1.0000   1.0000   1.0000   1.0000   1.0000   1.0000   1.0000
     0.0000   0.0000   0.0000   0.0000   0.0000   0.0000   0.0000   0.0000
     0.0000   0.0000   0.0000   0.0000   0.0000   0.0000   0.0000   0.0000
     0.0000   0.0000   0.0000   0.0000   0.0000   0.0000   0.0000   0.0000
     0.0000   0.0000   0.0000   0.0000   0.0000   0.0000   0.0000   0.0000
     0.0000   0.0000   0.0000   0.0000   0.0000   0.0000   0.0000   0.0000
     0.0000   0.0000   0.0000   0.0000   0.0000   0.0000   0.0000   0.0000
     0.0000   0.0000   0.0000   0.0000   0.0000   0.0000   0.0000   0.0000
     0.0000   0.0000   0.0000   0.0000   0.0000   0.0000   0.0000   0.0000
     0.0000   0.0000   0.0000   0.0000   0.0000   0.0000   0.0000   0.0000
     0.0000   0.0000   0.0000   0.0000   0.0000   0.0000   0.0000   0.0000
     0.0000   0.0000   0.0000   0.0000   0.0000   0.0000   0.0000   0.0000
     0.0000   0.0000   0.0000   0.0000   0.0000   0.0000   0.0000   0.0000
     0.0000   0.0000   0.0000   0.0000   0.0000   0.0000   0.0000   0.0000
     0.0000   0.0000   0.0000   0.0000   0.0000   0.0000   0.0000   0.0000
     0.0000   0.0000   0.0000   0.0000   0.0000   0.0000   0.0000   0.0000
     0.0000   0.0000   0.0000   0.0000   0.0000   0.0000   0.0000   0.0000
     0.0000   0.0000   0.0000   0.0000   0.0000   0.0000   0.0000   0.0000
     0.0000   0.0000   0.0000   0.0000   0.0000   0.0000   0.0000   0.0000
     0.0000   0.0000   0.0000   0.0000   0.0000   0.0000   0.0000   0.0000
     0.0000   0.0000   0.0000   0.0000   0.0000   0.0000   0.0000   0.0000
     0.0000   0.0000   0.0000   0.0000   0.0000   0.0000   0.0000   0.0000
     0.0000   0.0000   0.0000   0.0000   0.0000   0.0000   0.0000   0.0000
     0.0000   0.0000   0.0000   0.0000   0.0000   0.0000   0.0000   0.0000

     highest occupied, lowest unoccupied level (ev):     9.0867    8.9853

!    total energy              =   -1559.24985202 Ry
     estimated scf accuracy    <       0.00000057 Ry

     The total energy is the sum of the following terms:
     one-electron contribution =    -844.12926954 Ry
     hartree contribution      =     484.79968116 Ry
     xc contribution           =    -222.31001520 Ry
     ewald contribution        =    -901.40086486 Ry
     one-center paw contrib.   =     -76.20938357 Ry
      -> PAW hartree energy AE =       0.00000000 Ry
      -> PAW hartree energy PS =       0.00000000 Ry
      -> PAW xc energy AE      =       0.00000000 Ry
      -> PAW xc energy PS      =       0.00000000 Ry
      -> total E_H with PAW    =     484.79968116 Ry
      -> total E_XC with PAW   =    -222.31001520 Ry

     convergence has been achieved in  56 iterations

     Writing all to output data dir bands_nm/myprefix.save/
 
     init_run     :      6.03s CPU      1.57s WALL (       1 calls)
     electrons    :    789.28s CPU    203.52s WALL (       1 calls)

     Called by init_run:
     wfcinit      :      3.92s CPU      1.00s WALL (       1 calls)
     wfcinit:atom :      0.01s CPU      0.00s WALL (       7 calls)
     wfcinit:wfcr :      3.78s CPU      0.97s WALL (       7 calls)
     potinit      :      0.64s CPU      0.17s WALL (       1 calls)
     hinit0       :      1.27s CPU      0.34s WALL (       1 calls)

     Called by electrons:
     c_bands      :    710.34s CPU    182.72s WALL (      56 calls)
     sum_band     :     67.77s CPU     17.77s WALL (      56 calls)
     v_of_rho     :      1.95s CPU      0.51s WALL (      57 calls)
     v_h          :      0.14s CPU      0.04s WALL (      57 calls)
     v_xc         :      1.81s CPU      0.47s WALL (      57 calls)
     newd         :      3.96s CPU      1.13s WALL (      57 calls)
     PAW_pot      :      4.04s CPU      1.05s WALL (      57 calls)
     mix_rho      :      0.68s CPU      0.18s WALL (      56 calls)

     Called by c_bands:
     init_us_2    :      0.95s CPU      0.30s WALL (     791 calls)
     init_us_2:cp :      0.94s CPU      0.30s WALL (     791 calls)
     cegterg      :    697.13s CPU    178.53s WALL (     392 calls)

     Called by sum_band:
     sum_band:wei :      0.01s CPU      0.00s WALL (      56 calls)
     sum_band:loo :     63.65s CPU     16.31s WALL (      56 calls)
     sum_band:buf :      1.20s CPU      0.26s WALL (     392 calls)
     sum_band:ini :      0.39s CPU      0.12s WALL (     392 calls)
     sum_band:cal :     13.25s CPU      3.33s WALL (     392 calls)
     sum_band:bec :      0.47s CPU      0.18s WALL (     392 calls)
     addusdens    :      3.32s CPU      1.26s WALL (      56 calls)
     addusd:skk   :      0.02s CPU      0.01s WALL (     168 calls)
     addusd:dgemm :      0.58s CPU      0.57s WALL (     168 calls)
     addusd:qvan2 :      2.14s CPU      0.57s WALL (     168 calls)

     Called by *egterg:
     cdiaghg      :    251.63s CPU     65.57s WALL (     871 calls)
     cegterg:over :     76.95s CPU     19.39s WALL (     479 calls)
     cegterg:upda :     38.03s CPU      9.58s WALL (     479 calls)
     cegterg:last :     45.64s CPU     11.49s WALL (     435 calls)
     cdiaghg:chol :     16.59s CPU      4.36s WALL (     871 calls)
     cdiaghg:inve :      5.58s CPU      1.45s WALL (     871 calls)
     cdiaghg:para :     58.44s CPU     15.51s WALL (    1742 calls)
     h_psi        :    231.36s CPU     59.08s WALL (     878 calls)
     s_psi        :     26.29s CPU      6.55s WALL (     878 calls)
     g_psi        :      0.21s CPU      0.09s WALL (     479 calls)

     Called by h_psi:
     h_psi:calbec :     27.29s CPU      6.88s WALL (     878 calls)
     vloc_psi     :    177.40s CPU     45.39s WALL (     878 calls)
     add_vuspsi   :     25.81s CPU      6.60s WALL (     878 calls)

     General routines
     calbec       :     40.53s CPU     10.21s WALL (    1270 calls)
     fft          :      1.66s CPU      0.47s WALL (     739 calls)
     ffts         :      0.11s CPU      0.03s WALL (     113 calls)
     fftw         :    215.05s CPU     48.09s WALL (  513040 calls)
     interpolate  :      0.17s CPU      0.04s WALL (      57 calls)
 
     Parallel routines

     PAW routines
     PAW_pot      :      4.04s CPU      1.05s WALL (      57 calls)
 
     PWSCF        :  13m16.75s CPU   3m25.76s WALL

 
   This run was terminated on:  22:36: 9  15Jul2023            

=------------------------------------------------------------------------------=
   JOB DONE.
=------------------------------------------------------------------------------=
