
     Program PWSCF v.7.1 starts on 15Jul2023 at 18:23:22 

     This program is part of the open-source Quantum ESPRESSO suite
     for quantum simulation of materials; please cite
         "P. Giannozzi et al., J. Phys.:Condens. Matter 21 395502 (2009);
         "P. Giannozzi et al., J. Phys.:Condens. Matter 29 465901 (2017);
         "P. Giannozzi et al., J. Chem. Phys. 152 154105 (2020);
          URL http://www.quantum-espresso.org", 
     in publications or presentations arising from this work. More details at
     http://www.quantum-espresso.org/quote

     Parallel version (MPI & OpenMP), running on      32 processor cores
     Number of MPI processes:                 8
     Threads/MPI process:                     4

     MPI processes distributed on     1 nodes
     233099 MiB available memory on the printing compute node when the environment starts
 
     Reading input from espresso_22848.pwi
Warning: card &CELL ignored
Warning: card / ignored

     Current dimensions of program PWSCF are:
     Max number of different atomic species (ntypx) = 10
     Max number of k-points (npk) =  40000
     Max angular momentum in pseudopotentials (lmaxx) =  4
     file O.pbe-n-kjpaw_psl.0.1.UPF: wavefunction(s)  2P renormalized
     Message from routine setup:
     using ibrav=0 with symmetry is DISCOURAGED, use correct ibrav instead
 
     K-points division:     npool     =       2
     R & G space division:  proc/nbgrp/npool/nimage =       4
     Subspace diagonalization in iterative solution of the eigenvalue problem:
     one sub-group per band group will be used
     scalapack distributed-memory algorithm (size of sub-group:  2*  2 procs)

 
     Parallelization info
     --------------------
     sticks:   dense  smooth     PW     G-vecs:    dense   smooth      PW
     Min         520     259     74                22454     7928    1206
     Max         521     260     75                22457     7930    1207
     Sum        2083    1039    297                89825    31715    4825
 
     Using Slab Decomposition
 


     bravais-lattice index     =            0
     lattice parameter (alat)  =      10.7198  a.u.
     unit-cell volume          =    1429.6085 (a.u.)^3
     number of atoms/cell      =           18
     number of atomic types    =            3
     number of electrons       =       184.00
     number of Kohn-Sham states=          256
     kinetic-energy cutoff     =      30.0000  Ry
     charge density cutoff     =     240.0000  Ry
     scf convergence threshold =      1.0E-06
     mixing beta               =       0.7000
     number of iterations used =            8  plain     mixing
     Exchange-correlation=  SLA  PW   PBX  PBC
                           (   1   4   3   4   0   0   0)

     celldm(1)=  10.719825  celldm(2)=   0.000000  celldm(3)=   0.000000
     celldm(4)=   0.000000  celldm(5)=   0.000000  celldm(6)=   0.000000

     crystal axes: (cart. coord. in units of alat)
               a(1) = (   1.000000   0.000000   0.000000 )  
               a(2) = (   0.337938   0.947888   0.000000 )  
               a(3) = (   0.419463   0.287974   1.224326 )  

     reciprocal axes: (cart. coord. in units 2 pi/alat)
               b(1) = (  1.000000 -0.356516 -0.258751 )  
               b(2) = (  0.000000  1.054977 -0.248142 )  
               b(3) = (  0.000000  0.000000  0.816776 )  


     PseudoPot. # 1 for Co read from file:
     /lustre07/scratch/pragov/crystal_structure_design/utils/SSSP/Co_pbe_v1.2.uspp.F.UPF
     MD5 check sum: 5f91765df6ddd3222702df6e7b74a16d
     Pseudo is Ultrasoft + core correction, Zval = 17.0
     Generated by new atomic code, or converted to UPF format
     Using radial grid of  863 points,  6 beta functions with: 
                l(1) =   0
                l(2) =   0
                l(3) =   1
                l(4) =   1
                l(5) =   2
                l(6) =   2
     Q(r) pseudized with  8 coefficients,  rinner =    1.200   1.200   1.200
                                                       1.200   1.200

     PseudoPot. # 2 for O  read from file:
     /lustre07/scratch/pragov/crystal_structure_design/utils/SSSP/O.pbe-n-kjpaw_psl.0.1.UPF
     MD5 check sum: 0234752ac141de4415c5fc33072bef88
     Pseudo is Projector augmented-wave + core cor, Zval =  6.0
     Generated using "atomic" code by A. Dal Corso  v.5.0.99 svn rev. 10869
     Shape of augmentation charge: BESSEL
     Using radial grid of 1095 points,  4 beta functions with: 
                l(1) =   0
                l(2) =   0
                l(3) =   1
                l(4) =   1
     Q(r) pseudized with 0 coefficients 


     PseudoPot. # 3 for F  read from file:
     /lustre07/scratch/pragov/crystal_structure_design/utils/SSSP/f_pbe_v1.4.uspp.F.UPF
     MD5 check sum: 4c38b6a325caf53ec0e86aed9459de46
     Pseudo is Ultrasoft, Zval =  7.0
     Generated by new atomic code, or converted to UPF format
     Using radial grid of  799 points,  4 beta functions with: 
                l(1) =   0
                l(2) =   0
                l(3) =   1
                l(4) =   1
     Q(r) pseudized with  8 coefficients,  rinner =    0.950   0.950   0.950


     atomic species   valence    mass     pseudopotential
        Co            17.00    58.93319     Co( 1.00)
        O              6.00    15.99900     O ( 1.00)
        F              7.00    18.99840     F ( 1.00)

      2 Sym. Ops., with inversion, found


                                    s                        frac. trans.

      isym =  1     identity                                     

 cryst.   s( 1) = (     1          0          0      )
                  (     0          1          0      )
                  (     0          0          1      )

 cart.    s( 1) = (  1.0000000  0.0000000  0.0000000 )
                  (  0.0000000  1.0000000  0.0000000 )
                  (  0.0000000  0.0000000  1.0000000 )


      isym =  2     inversion                                    

 cryst.   s( 2) = (    -1          0          0      )
                  (     0         -1          0      )
                  (     0          0         -1      )

 cart.    s( 2) = ( -1.0000000 -0.0000000 -0.0000000 )
                  (  0.0000000 -1.0000000 -0.0000000 )
                  (  0.0000000  0.0000000 -1.0000000 )


   Cartesian axes

     site n.     atom                  positions (alat units)
         1           Co  tau(   1) = (   0.0000000   0.0000000   0.0000000  )
         2           Co  tau(   2) = (   0.2097317   0.1439871   0.6121628  )
         3           Co  tau(   3) = (   0.5395382   0.3356414   0.2044110  )
         4           Co  tau(   4) = (   0.7216080   0.4996927   0.8245539  )
         5           Co  tau(   5) = (   1.0357930   0.7361698   0.3997717  )
         6           Co  tau(   6) = (   1.2178628   0.9002211   1.0199147  )
         7           O   tau(   7) = (   0.7310989   0.0764420   0.1940323  )
         8           O   tau(   8) = (   1.0263021   1.1594205   1.0302933  )
         9           F   tau(   9) = (   1.0071588   0.4355110   0.6093456  )
        10           F   tau(  10) = (   0.3340433   0.6366720   0.2023810  )
        11           F   tau(  11) = (   0.2313244   0.1590713   0.2502705  )
        12           F   tau(  12) = (   1.2483886   0.8805966   0.6575718  )
        13           F   tau(  13) = (   0.9428386   0.6628844   1.0642977  )
        14           F   tau(  14) = (   0.5090124   0.3552659   0.5667538  )
        15           F   tau(  15) = (   1.5260767   1.0767912   0.9740551  )
        16           F   tau(  16) = (   0.8145625   0.5729781   0.1600279  )
        17           F   tau(  17) = (   0.7502422   0.8003514   0.6149800  )
        18           F   tau(  18) = (   1.4233577   0.5991905   1.0219446  )

   Crystallographic axes

     site n.     atom                  positions (cryst. coord.)
         1           Co  tau(   1) = (  0.0000000  0.0000000  0.0000000  )
         2           Co  tau(   2) = (  0.0000000 -0.0000000  0.5000000  )
         3           Co  tau(   3) = (  0.3669850  0.3033710  0.1669580  )
         4           Co  tau(   4) = (  0.3301050  0.3225580  0.6734760  )
         5           Co  tau(   5) = (  0.6698950  0.6774420  0.3265240  )
         6           Co  tau(   6) = (  0.6330150  0.6966290  0.8330420  )
         7           O   tau(   7) = (  0.6536400  0.0324970  0.1584810  )
         8           O   tau(   8) = (  0.3463600  0.9675030  0.8415190  )
         9           F   tau(   9) = (  0.6942230  0.3082500  0.4976990  )
        10           F   tau(  10) = (  0.0546930  0.6214550  0.1653000  )
        11           F   tau(  11) = (  0.1098550  0.1057140  0.2044150  )
        12           F   tau(  12) = (  0.7642940  0.7658380  0.5370890  )
        13           F   tau(  13) = (  0.4311210  0.4352310  0.8692930  )
        14           F   tau(  14) = (  0.2357060  0.2341620  0.4629110  )
        15           F   tau(  15) = (  0.8901450  0.8942860  0.7955850  )
        16           F   tau(  16) = (  0.5688790  0.5647690  0.1307070  )
        17           F   tau(  17) = (  0.3057770  0.6917500  0.5023010  )
        18           F   tau(  18) = (  0.9453070  0.3785450  0.8347000  )

     number of k points=    14
                       cart. coord. in units 2pi/alat
        k(    1) = (   0.0000000   0.0000000   0.0000000), wk =   0.0740741
        k(    2) = (   0.0000000   0.0000000   0.2722587), wk =   0.1481481
        k(    3) = (   0.0000000   0.3516589  -0.0827139), wk =   0.1481481
        k(    4) = (   0.0000000   0.3516589   0.1895448), wk =   0.1481481
        k(    5) = (   0.0000000   0.3516589  -0.3549726), wk =   0.1481481
        k(    6) = (   0.3333333  -0.1188388  -0.0862505), wk =   0.1481481
        k(    7) = (   0.3333333  -0.1188388   0.1860083), wk =   0.1481481
        k(    8) = (   0.3333333  -0.1188388  -0.3585092), wk =   0.1481481
        k(    9) = (   0.3333333   0.2328202  -0.1689643), wk =   0.1481481
        k(   10) = (   0.3333333   0.2328202   0.1032944), wk =   0.1481481
        k(   11) = (   0.3333333   0.2328202  -0.4412231), wk =   0.1481481
        k(   12) = (   0.3333333  -0.4704977  -0.0035366), wk =   0.1481481
        k(   13) = (   0.3333333  -0.4704977   0.2687221), wk =   0.1481481
        k(   14) = (   0.3333333  -0.4704977  -0.2757953), wk =   0.1481481

                       cryst. coord.
        k(    1) = (   0.0000000   0.0000000   0.0000000), wk =   0.0740741
        k(    2) = (   0.0000000   0.0000000   0.3333333), wk =   0.1481481
        k(    3) = (   0.0000000   0.3333333   0.0000000), wk =   0.1481481
        k(    4) = (   0.0000000   0.3333333   0.3333333), wk =   0.1481481
        k(    5) = (   0.0000000   0.3333333  -0.3333333), wk =   0.1481481
        k(    6) = (   0.3333333   0.0000000   0.0000000), wk =   0.1481481
        k(    7) = (   0.3333333   0.0000000   0.3333333), wk =   0.1481481
        k(    8) = (   0.3333333   0.0000000  -0.3333333), wk =   0.1481481
        k(    9) = (   0.3333333   0.3333333   0.0000000), wk =   0.1481481
        k(   10) = (   0.3333333   0.3333333   0.3333333), wk =   0.1481481
        k(   11) = (   0.3333333   0.3333333  -0.3333333), wk =   0.1481481
        k(   12) = (   0.3333333  -0.3333333   0.0000000), wk =   0.1481481
        k(   13) = (   0.3333333  -0.3333333   0.3333333), wk =   0.1481481
        k(   14) = (   0.3333333  -0.3333333  -0.3333333), wk =   0.1481481

     Dense  grid:    89825 G-vectors     FFT dimensions: (  54,  54,  72)

     Smooth grid:    31715 G-vectors     FFT dimensions: (  40,  40,  50)

     Dynamical RAM for                 wfc:       3.87 MB

     Dynamical RAM for     wfc (w. buffer):      30.97 MB

     Dynamical RAM for           str. fact:       1.03 MB

     Dynamical RAM for           local pot:       0.00 MB

     Dynamical RAM for          nlocal pot:       3.08 MB

     Dynamical RAM for                qrad:       3.73 MB

     Dynamical RAM for          rho,v,vnew:       2.23 MB

     Dynamical RAM for               rhoin:       0.74 MB

     Dynamical RAM for            rho*nmix:       5.48 MB

     Dynamical RAM for           G-vectors:       1.35 MB

     Dynamical RAM for          h,s,v(r/c):       3.00 MB

     Dynamical RAM for          <psi|beta>:       0.80 MB

     Dynamical RAM for                 psi:       7.74 MB

     Dynamical RAM for                hpsi:       7.74 MB

     Dynamical RAM for                spsi:       7.74 MB

     Dynamical RAM for      wfcinit/wfcrot:       9.24 MB

     Dynamical RAM for           addusdens:      33.75 MB

     Estimated static dynamical RAM per process >      46.50 MB

     Estimated max dynamical RAM per process >      85.74 MB

     Estimated total dynamical RAM >     663.98 MB

     Check: negative core charge=   -0.000018

     Initial potential from superposition of free atoms

     starting charge     178.0000, renormalised to     184.0000
     Starting wfcs are  126 randomized atomic wfcs +  130 random wfcs
     Checking if some PAW data can be deallocated... 
       PAW data deallocated on    7 nodes for type:  2

     total cpu time spent up to now is        1.8 secs

     Self-consistent Calculation

     iteration #  1     ecut=    30.00 Ry     beta= 0.70
     Davidson diagonalization with overlap

---- Real-time Memory Report at c_bands before calling an iterative solver
           257 MiB given to the printing process from OS
             0 MiB allocation reported by mallinfo(arena+hblkhd)
        232405 MiB available memory on the node where the printing process lives
------------------
     ethr =  1.00E-02,  avg # of iterations =  6.0

     total cpu time spent up to now is       12.3 secs

     total energy              =   -2344.29497738 Ry
     estimated scf accuracy    <      22.88513073 Ry

     iteration #  2     ecut=    30.00 Ry     beta= 0.70
     Davidson diagonalization with overlap

---- Real-time Memory Report at c_bands before calling an iterative solver
           344 MiB given to the printing process from OS
             0 MiB allocation reported by mallinfo(arena+hblkhd)
        231962 MiB available memory on the node where the printing process lives
------------------
     ethr =  1.00E-02,  avg # of iterations =  2.0

     total cpu time spent up to now is       17.3 secs

     total energy              =   -2345.59812248 Ry
     estimated scf accuracy    <     154.77784081 Ry

     iteration #  3     ecut=    30.00 Ry     beta= 0.70
     Davidson diagonalization with overlap

---- Real-time Memory Report at c_bands before calling an iterative solver
           344 MiB given to the printing process from OS
             0 MiB allocation reported by mallinfo(arena+hblkhd)
        231936 MiB available memory on the node where the printing process lives
------------------
     ethr =  1.00E-02,  avg # of iterations =  2.0

     total cpu time spent up to now is       21.9 secs

     total energy              =   -2357.14758171 Ry
     estimated scf accuracy    <      26.71810132 Ry

     iteration #  4     ecut=    30.00 Ry     beta= 0.70
     Davidson diagonalization with overlap

---- Real-time Memory Report at c_bands before calling an iterative solver
           361 MiB given to the printing process from OS
             0 MiB allocation reported by mallinfo(arena+hblkhd)
        231782 MiB available memory on the node where the printing process lives
------------------
     ethr =  1.00E-02,  avg # of iterations =  1.0

     total cpu time spent up to now is       25.7 secs

     total energy              =   -2357.51529086 Ry
     estimated scf accuracy    <      89.68462078 Ry

     iteration #  5     ecut=    30.00 Ry     beta= 0.70
     Davidson diagonalization with overlap

---- Real-time Memory Report at c_bands before calling an iterative solver
           361 MiB given to the printing process from OS
             0 MiB allocation reported by mallinfo(arena+hblkhd)
        231787 MiB available memory on the node where the printing process lives
------------------
     ethr =  1.00E-02,  avg # of iterations =  1.0

     total cpu time spent up to now is       29.5 secs

     total energy              =   -2358.86256180 Ry
     estimated scf accuracy    <      37.03952615 Ry

     iteration #  6     ecut=    30.00 Ry     beta= 0.70
     Davidson diagonalization with overlap

---- Real-time Memory Report at c_bands before calling an iterative solver
           361 MiB given to the printing process from OS
             0 MiB allocation reported by mallinfo(arena+hblkhd)
        231781 MiB available memory on the node where the printing process lives
------------------
     ethr =  1.00E-02,  avg # of iterations =  1.0

     total cpu time spent up to now is       33.3 secs

     total energy              =   -2358.97683733 Ry
     estimated scf accuracy    <      50.17429167 Ry

     iteration #  7     ecut=    30.00 Ry     beta= 0.70
     Davidson diagonalization with overlap

---- Real-time Memory Report at c_bands before calling an iterative solver
           361 MiB given to the printing process from OS
             0 MiB allocation reported by mallinfo(arena+hblkhd)
        231782 MiB available memory on the node where the printing process lives
------------------
     ethr =  1.00E-02,  avg # of iterations =  1.0

     total cpu time spent up to now is       37.0 secs

     total energy              =   -2359.62101538 Ry
     estimated scf accuracy    <       2.54585198 Ry

     iteration #  8     ecut=    30.00 Ry     beta= 0.70
     Davidson diagonalization with overlap

---- Real-time Memory Report at c_bands before calling an iterative solver
           361 MiB given to the printing process from OS
             0 MiB allocation reported by mallinfo(arena+hblkhd)
        231784 MiB available memory on the node where the printing process lives
------------------
     ethr =  1.38E-03,  avg # of iterations =  1.0

     total cpu time spent up to now is       40.8 secs

     total energy              =   -2359.97706564 Ry
     estimated scf accuracy    <      18.74014204 Ry

     iteration #  9     ecut=    30.00 Ry     beta= 0.70
     Davidson diagonalization with overlap

---- Real-time Memory Report at c_bands before calling an iterative solver
           361 MiB given to the printing process from OS
             0 MiB allocation reported by mallinfo(arena+hblkhd)
        231789 MiB available memory on the node where the printing process lives
------------------
     ethr =  1.38E-03,  avg # of iterations =  1.0

     total cpu time spent up to now is       44.6 secs

     total energy              =   -2359.95032260 Ry
     estimated scf accuracy    <      15.82489834 Ry

     iteration # 10     ecut=    30.00 Ry     beta= 0.70
     Davidson diagonalization with overlap

---- Real-time Memory Report at c_bands before calling an iterative solver
           361 MiB given to the printing process from OS
             0 MiB allocation reported by mallinfo(arena+hblkhd)
        231784 MiB available memory on the node where the printing process lives
------------------
     ethr =  1.38E-03,  avg # of iterations =  1.0

     total cpu time spent up to now is       48.4 secs

     total energy              =   -2359.52682846 Ry
     estimated scf accuracy    <      12.42978601 Ry

     iteration # 11     ecut=    30.00 Ry     beta= 0.70
     Davidson diagonalization with overlap

---- Real-time Memory Report at c_bands before calling an iterative solver
           361 MiB given to the printing process from OS
             0 MiB allocation reported by mallinfo(arena+hblkhd)
        231785 MiB available memory on the node where the printing process lives
------------------
     ethr =  1.38E-03,  avg # of iterations =  1.0

     total cpu time spent up to now is       52.1 secs

     total energy              =   -2359.73312504 Ry
     estimated scf accuracy    <       0.81184596 Ry

     iteration # 12     ecut=    30.00 Ry     beta= 0.70
     Davidson diagonalization with overlap

---- Real-time Memory Report at c_bands before calling an iterative solver
           361 MiB given to the printing process from OS
             0 MiB allocation reported by mallinfo(arena+hblkhd)
        231783 MiB available memory on the node where the printing process lives
------------------
     ethr =  4.41E-04,  avg # of iterations =  1.0

     total cpu time spent up to now is       55.9 secs

     total energy              =   -2359.75577764 Ry
     estimated scf accuracy    <       0.21143713 Ry

     iteration # 13     ecut=    30.00 Ry     beta= 0.70
     Davidson diagonalization with overlap

---- Real-time Memory Report at c_bands before calling an iterative solver
           361 MiB given to the printing process from OS
             0 MiB allocation reported by mallinfo(arena+hblkhd)
        231785 MiB available memory on the node where the printing process lives
------------------
     ethr =  1.15E-04,  avg # of iterations =  1.5

     total cpu time spent up to now is       60.0 secs

     total energy              =   -2359.77072762 Ry
     estimated scf accuracy    <       0.03862248 Ry

     iteration # 14     ecut=    30.00 Ry     beta= 0.70
     Davidson diagonalization with overlap

---- Real-time Memory Report at c_bands before calling an iterative solver
           361 MiB given to the printing process from OS
             0 MiB allocation reported by mallinfo(arena+hblkhd)
        231785 MiB available memory on the node where the printing process lives
------------------
     ethr =  2.10E-05,  avg # of iterations =  1.6

     total cpu time spent up to now is       64.3 secs

     total energy              =   -2359.76974014 Ry
     estimated scf accuracy    <       0.03842070 Ry

     iteration # 15     ecut=    30.00 Ry     beta= 0.70
     Davidson diagonalization with overlap

---- Real-time Memory Report at c_bands before calling an iterative solver
           361 MiB given to the printing process from OS
             0 MiB allocation reported by mallinfo(arena+hblkhd)
        231760 MiB available memory on the node where the printing process lives
------------------
     ethr =  2.09E-05,  avg # of iterations =  1.1

     total cpu time spent up to now is       68.2 secs

     total energy              =   -2359.75269951 Ry
     estimated scf accuracy    <       1.36292107 Ry

     iteration # 16     ecut=    30.00 Ry     beta= 0.70
     Davidson diagonalization with overlap

---- Real-time Memory Report at c_bands before calling an iterative solver
           361 MiB given to the printing process from OS
             0 MiB allocation reported by mallinfo(arena+hblkhd)
        231760 MiB available memory on the node where the printing process lives
------------------
     ethr =  2.09E-05,  avg # of iterations =  1.0

     total cpu time spent up to now is       71.9 secs

     total energy              =   -2359.77071600 Ry
     estimated scf accuracy    <       0.09482875 Ry

     iteration # 17     ecut=    30.00 Ry     beta= 0.70
     Davidson diagonalization with overlap

---- Real-time Memory Report at c_bands before calling an iterative solver
           361 MiB given to the printing process from OS
             0 MiB allocation reported by mallinfo(arena+hblkhd)
        231755 MiB available memory on the node where the printing process lives
------------------
     ethr =  2.09E-05,  avg # of iterations =  1.0

     total cpu time spent up to now is       75.7 secs

     total energy              =   -2359.77150437 Ry
     estimated scf accuracy    <       0.03759368 Ry

     iteration # 18     ecut=    30.00 Ry     beta= 0.70
     Davidson diagonalization with overlap

---- Real-time Memory Report at c_bands before calling an iterative solver
           361 MiB given to the printing process from OS
             0 MiB allocation reported by mallinfo(arena+hblkhd)
        231756 MiB available memory on the node where the printing process lives
------------------
     ethr =  2.04E-05,  avg # of iterations =  1.0

     total cpu time spent up to now is       79.5 secs

     total energy              =   -2359.77012051 Ry
     estimated scf accuracy    <       0.06983862 Ry

     iteration # 19     ecut=    30.00 Ry     beta= 0.70
     Davidson diagonalization with overlap

---- Real-time Memory Report at c_bands before calling an iterative solver
           361 MiB given to the printing process from OS
             0 MiB allocation reported by mallinfo(arena+hblkhd)
        231756 MiB available memory on the node where the printing process lives
------------------
     ethr =  2.04E-05,  avg # of iterations =  1.0

     total cpu time spent up to now is       83.3 secs

     total energy              =   -2359.77255446 Ry
     estimated scf accuracy    <       0.01443702 Ry

     iteration # 20     ecut=    30.00 Ry     beta= 0.70
     Davidson diagonalization with overlap

---- Real-time Memory Report at c_bands before calling an iterative solver
           361 MiB given to the printing process from OS
             0 MiB allocation reported by mallinfo(arena+hblkhd)
        231751 MiB available memory on the node where the printing process lives
------------------
     ethr =  7.85E-06,  avg # of iterations =  1.1

     total cpu time spent up to now is       87.2 secs

     total energy              =   -2359.77248202 Ry
     estimated scf accuracy    <       0.01844205 Ry

     iteration # 21     ecut=    30.00 Ry     beta= 0.70
     Davidson diagonalization with overlap

---- Real-time Memory Report at c_bands before calling an iterative solver
           361 MiB given to the printing process from OS
             0 MiB allocation reported by mallinfo(arena+hblkhd)
        231750 MiB available memory on the node where the printing process lives
------------------
     ethr =  7.85E-06,  avg # of iterations =  1.0

     total cpu time spent up to now is       91.0 secs

     total energy              =   -2359.77291730 Ry
     estimated scf accuracy    <       0.00529665 Ry

     iteration # 22     ecut=    30.00 Ry     beta= 0.70
     Davidson diagonalization with overlap

---- Real-time Memory Report at c_bands before calling an iterative solver
           361 MiB given to the printing process from OS
             0 MiB allocation reported by mallinfo(arena+hblkhd)
        231751 MiB available memory on the node where the printing process lives
------------------
     ethr =  2.88E-06,  avg # of iterations =  2.6

     total cpu time spent up to now is       95.5 secs

     total energy              =   -2359.77297503 Ry
     estimated scf accuracy    <       0.00161900 Ry

     iteration # 23     ecut=    30.00 Ry     beta= 0.70
     Davidson diagonalization with overlap

---- Real-time Memory Report at c_bands before calling an iterative solver
           361 MiB given to the printing process from OS
             0 MiB allocation reported by mallinfo(arena+hblkhd)
        231751 MiB available memory on the node where the printing process lives
------------------
     ethr =  8.80E-07,  avg # of iterations =  1.0

     total cpu time spent up to now is       99.3 secs

     total energy              =   -2359.77298226 Ry
     estimated scf accuracy    <       0.00048318 Ry

     iteration # 24     ecut=    30.00 Ry     beta= 0.70
     Davidson diagonalization with overlap

---- Real-time Memory Report at c_bands before calling an iterative solver
           361 MiB given to the printing process from OS
             0 MiB allocation reported by mallinfo(arena+hblkhd)
        231753 MiB available memory on the node where the printing process lives
------------------
     ethr =  2.63E-07,  avg # of iterations =  1.0

     total cpu time spent up to now is      103.1 secs

     total energy              =   -2359.77300896 Ry
     estimated scf accuracy    <       0.00002380 Ry

     iteration # 25     ecut=    30.00 Ry     beta= 0.70
     Davidson diagonalization with overlap

---- Real-time Memory Report at c_bands before calling an iterative solver
           361 MiB given to the printing process from OS
             0 MiB allocation reported by mallinfo(arena+hblkhd)
        231753 MiB available memory on the node where the printing process lives
------------------
     ethr =  1.29E-08,  avg # of iterations =  1.0

     total cpu time spent up to now is      106.9 secs

     total energy              =   -2359.77300516 Ry
     estimated scf accuracy    <       0.00018173 Ry

     iteration # 26     ecut=    30.00 Ry     beta= 0.70
     Davidson diagonalization with overlap

---- Real-time Memory Report at c_bands before calling an iterative solver
           361 MiB given to the printing process from OS
             0 MiB allocation reported by mallinfo(arena+hblkhd)
        231753 MiB available memory on the node where the printing process lives
------------------
     ethr =  1.29E-08,  avg # of iterations =  1.0

     total cpu time spent up to now is      110.6 secs

     total energy              =   -2359.77300878 Ry
     estimated scf accuracy    <       0.00007321 Ry

     iteration # 27     ecut=    30.00 Ry     beta= 0.70
     Davidson diagonalization with overlap

---- Real-time Memory Report at c_bands before calling an iterative solver
           361 MiB given to the printing process from OS
             0 MiB allocation reported by mallinfo(arena+hblkhd)
        231752 MiB available memory on the node where the printing process lives
------------------
     ethr =  1.29E-08,  avg # of iterations =  1.0

     total cpu time spent up to now is      114.4 secs

     total energy              =   -2359.77301106 Ry
     estimated scf accuracy    <       0.00000341 Ry

     iteration # 28     ecut=    30.00 Ry     beta= 0.70
     Davidson diagonalization with overlap

---- Real-time Memory Report at c_bands before calling an iterative solver
           361 MiB given to the printing process from OS
             0 MiB allocation reported by mallinfo(arena+hblkhd)
        231749 MiB available memory on the node where the printing process lives
------------------
     ethr =  1.86E-09,  avg # of iterations =  1.0

     total cpu time spent up to now is      118.1 secs

     End of self-consistent calculation

          k = 0.0000 0.0000 0.0000 (  3967 PWs)   bands (ev):

   -88.3161 -88.3157 -88.2559 -88.0901 -88.0808 -88.0806 -51.8680 -51.7808
   -51.7788 -51.5070 -51.5046 -51.5043 -51.4995 -51.4512 -51.4340 -51.4333
   -51.3989 -51.3654 -51.2966 -51.2958 -51.2809 -51.2287 -51.2281 -51.2211
   -17.3820 -16.9793 -16.9219 -16.9031 -16.8520 -16.7528 -16.7521 -16.6973
   -16.5494 -16.5078 -11.6254 -11.4867  -0.9112  -0.3646  -0.1247  -0.0259
     0.1035   0.3549   0.4598   0.4713   0.5634   0.7567   0.8597   0.9975
     1.0887   1.0949   1.1558   1.3067   1.3171   1.3682   1.4039   1.4680
     1.6713   1.7260   2.0643   2.1152   2.3800   2.3974   2.4781   2.5272
     2.5378   2.7971   2.8582   2.9344   3.1455   3.2366   3.8086   3.8745
     5.6905   5.7784   5.7967   5.8134   5.9146   5.9159   5.9812   5.9891
     6.0473   6.0563   6.1019   6.1023   6.1241   6.2583   6.2719   6.3692
     6.4884   6.5772   6.6795   6.6864   7.0172   7.1770   7.2489   7.2708
     7.4001   7.4452   7.4787   7.7082   8.0434   8.2444  10.0129  13.9203
    13.9219  15.1699  15.2405  15.2485  15.4371  16.4629  16.6354  16.6551
    16.8395  17.0098  17.4112  18.0008  18.3948  18.8654  18.9598  19.2382
    19.5880  19.5899  20.0857  20.4072  20.5233  20.6821  21.1945  21.3204
    21.5358  22.1536  22.2977  22.4226  23.4333  23.4375  23.9670  24.1208
    24.4094  24.9499  25.0096  25.5580  27.2213  27.3386  27.6807  27.7980
    27.8240  28.1210  28.5347  28.6658  28.7963  29.0328  29.3814  29.5075
    29.6129  29.6250  29.8272  29.8464  30.4265  30.7101  30.8099  30.8724
    31.2622  31.5347  31.5584  31.8731  32.0167  32.4542  32.7627  32.8187
    33.1135  33.4147  34.2376  34.4352  34.6573  34.8039  35.1885  35.2869
    35.5629  35.6068  36.0253  36.0554  36.1316  36.5814  36.7010  37.0472
    37.1037  37.6766  37.8590  37.9294  37.9679  39.1318  39.1360  39.4222
    39.5856  39.9788  40.2505  40.2562  40.3958  40.5037  40.5331  40.8463
    40.9446  41.1601  41.5507  41.6524  41.9538  42.1638  42.5631  42.7199
    42.7394  42.9186  42.9475  43.1747  43.2048  43.2681  43.4786  43.5340
    43.5753  43.6420  43.9085  43.9492  44.0423  44.3391  44.6910  44.7160
    44.9500  45.3987  45.4220  45.7963  45.9654  46.1806  46.4435  46.7650
    47.1338  47.7055  47.8301  48.0236  48.3588  48.4153  48.5675  48.7238
    48.7347  48.9209  49.1572  49.2624  49.3726  49.7134  49.9167  50.0090
    50.1530  50.2464  50.4678  50.6064  50.6627  50.7428  50.8148  51.4939

     occupation numbers 
     1.0000   1.0000   1.0000   1.0000   1.0000   1.0000   1.0000   1.0000
     1.0000   1.0000   1.0000   1.0000   1.0000   1.0000   1.0000   1.0000
     1.0000   1.0000   1.0000   1.0000   1.0000   1.0000   1.0000   1.0000
     1.0000   1.0000   1.0000   1.0000   1.0000   1.0000   1.0000   1.0000
     1.0000   1.0000   1.0000   1.0000   1.0000   1.0000   1.0000   1.0000
     1.0000   1.0000   1.0000   1.0000   1.0000   1.0000   1.0000   1.0000
     1.0000   1.0000   1.0000   1.0000   1.0000   1.0000   1.0000   1.0000
     1.0000   1.0000   1.0000   1.0000   1.0000   1.0000   1.0000   1.0000
     1.0000   1.0000   1.0000   1.0000   1.0000   1.0000   1.0000   1.0000
     1.0000   1.0000   1.0000   1.0000   1.0000   1.0000   1.0000   1.0000
     1.0000   1.0000   1.0000   1.0000   1.0000   1.0000   1.0000   1.0000
     1.0000   1.0000   1.0000   1.0000   0.0000   0.0000   0.0000   0.0000
     0.0000   0.0000   0.0000   0.0000   0.0000   0.0000   0.0000   0.0000
     0.0000   0.0000   0.0000   0.0000   0.0000   0.0000   0.0000   0.0000
     0.0000   0.0000   0.0000   0.0000   0.0000   0.0000   0.0000   0.0000
     0.0000   0.0000   0.0000   0.0000   0.0000   0.0000   0.0000   0.0000
     0.0000   0.0000   0.0000   0.0000   0.0000   0.0000   0.0000   0.0000
     0.0000   0.0000   0.0000   0.0000   0.0000   0.0000   0.0000   0.0000
     0.0000   0.0000   0.0000   0.0000   0.0000   0.0000   0.0000   0.0000
     0.0000   0.0000   0.0000   0.0000   0.0000   0.0000   0.0000   0.0000
     0.0000   0.0000   0.0000   0.0000   0.0000   0.0000   0.0000   0.0000
     0.0000   0.0000   0.0000   0.0000   0.0000   0.0000   0.0000   0.0000
     0.0000   0.0000   0.0000   0.0000   0.0000   0.0000   0.0000   0.0000
     0.0000   0.0000   0.0000   0.0000   0.0000   0.0000   0.0000   0.0000
     0.0000   0.0000   0.0000   0.0000   0.0000   0.0000   0.0000   0.0000
     0.0000   0.0000   0.0000   0.0000   0.0000   0.0000   0.0000   0.0000
     0.0000   0.0000   0.0000   0.0000   0.0000   0.0000   0.0000   0.0000
     0.0000   0.0000   0.0000   0.0000   0.0000   0.0000   0.0000   0.0000
     0.0000   0.0000   0.0000   0.0000   0.0000   0.0000   0.0000   0.0000
     0.0000   0.0000   0.0000   0.0000   0.0000   0.0000   0.0000   0.0000
     0.0000   0.0000   0.0000   0.0000   0.0000   0.0000   0.0000   0.0000
     0.0000   0.0000   0.0000   0.0000   0.0000   0.0000   0.0000   0.0000

          k = 0.0000 0.0000 0.2723 (  3981 PWs)   bands (ev):

   -88.3162 -88.3159 -88.2560 -88.0903 -88.0809 -88.0807 -51.8695 -51.7814
   -51.7795 -51.5108 -51.5061 -51.5043 -51.5016 -51.4533 -51.4347 -51.4329
   -51.3994 -51.3653 -51.2966 -51.2956 -51.2819 -51.2295 -51.2284 -51.2209
   -17.3571 -17.0333 -16.9116 -16.9038 -16.8591 -16.7487 -16.7398 -16.6965
   -16.5419 -16.5076 -11.6274 -11.4839  -0.7850  -0.4071  -0.3009  -0.1729
     0.2588   0.3511   0.4212   0.4449   0.8250   0.8658   0.9537   0.9611
     1.0109   1.1353   1.1547   1.2323   1.2824   1.3536   1.4246   1.5126
     1.5371   1.7725   1.8562   2.0809   2.3193   2.4373   2.4868   2.5884
     2.6012   2.6889   2.9041   2.9783   3.0574   3.2374   3.7761   3.8875
     5.7162   5.7995   5.8302   5.8819   5.8930   5.9141   5.9751   6.0090
     6.0724   6.0859   6.1047   6.1132   6.1285   6.2138   6.2497   6.3046
     6.5833   6.6594   6.8082   6.8168   6.9855   7.1006   7.1398   7.2401
     7.2679   7.3879   7.5118   7.7940   7.9318   8.1213  10.6196  12.1823
    14.9857  15.1051  15.3178  15.4266  15.7492  16.2275  16.3330  16.9200
    17.0350  17.2434  17.8149  18.1081  18.2753  18.2844  18.4805  18.8382
    18.9098  19.6641  19.7649  20.1725  20.7233  21.2241  21.4300  21.7430
    22.2463  22.5001  22.6278  22.8657  23.2917  23.3320  24.0386  24.4291
    24.5761  24.7237  25.2479  25.9740  26.5292  26.6393  26.7234  27.3466
    27.4861  27.7351  27.9916  28.0427  28.2090  28.7246  28.8186  28.8749
    29.0541  29.2455  30.0846  30.3630  30.5363  30.6756  31.5266  31.7438
    31.9296  32.0546  32.3027  32.4353  32.6088  32.8618  33.1752  33.6940
    33.8853  34.3090  34.4799  34.6098  34.7770  34.8544  34.9697  35.2567
    35.4658  35.7971  35.9012  36.1585  36.3420  36.4998  36.5272  36.6955
    36.8207  37.0087  37.9895  38.2167  38.3690  38.6572  38.7278  38.9464
    39.2853  39.3304  39.5292  39.8358  39.9179  40.3602  40.5398  40.7910
    41.0251  41.2290  41.2804  41.3616  41.4468  41.7111  41.9672  42.3720
    42.3880  42.5017  42.6131  43.0141  43.0206  43.2474  43.3847  43.6069
    43.9663  44.0903  44.2137  44.2531  44.4604  44.6437  44.7237  45.1579
    45.2058  45.3770  45.6592  45.8391  45.9520  46.1189  46.2780  46.5525
    46.8802  47.0872  47.4931  47.7631  47.9022  48.2238  48.4263  48.5933
    48.7765  49.2726  49.4263  49.5657  49.7209  49.9102  50.1726  50.2064
    50.4057  50.6061  50.8043  50.9013  51.1119  51.1972  51.3530  51.4608

     occupation numbers 
     1.0000   1.0000   1.0000   1.0000   1.0000   1.0000   1.0000   1.0000
     1.0000   1.0000   1.0000   1.0000   1.0000   1.0000   1.0000   1.0000
     1.0000   1.0000   1.0000   1.0000   1.0000   1.0000   1.0000   1.0000
     1.0000   1.0000   1.0000   1.0000   1.0000   1.0000   1.0000   1.0000
     1.0000   1.0000   1.0000   1.0000   1.0000   1.0000   1.0000   1.0000
     1.0000   1.0000   1.0000   1.0000   1.0000   1.0000   1.0000   1.0000
     1.0000   1.0000   1.0000   1.0000   1.0000   1.0000   1.0000   1.0000
     1.0000   1.0000   1.0000   1.0000   1.0000   1.0000   1.0000   1.0000
     1.0000   1.0000   1.0000   1.0000   1.0000   1.0000   1.0000   1.0000
     1.0000   1.0000   1.0000   1.0000   1.0000   1.0000   1.0000   1.0000
     1.0000   1.0000   1.0000   1.0000   1.0000   1.0000   1.0000   1.0000
     1.0000   1.0000   1.0000   1.0000   0.0000   0.0000   0.0000   0.0000
     0.0000   0.0000   0.0000   0.0000   0.0000   0.0000   0.0000   0.0000
     0.0000   0.0000   0.0000   0.0000   0.0000   0.0000   0.0000   0.0000
     0.0000   0.0000   0.0000   0.0000   0.0000   0.0000   0.0000   0.0000
     0.0000   0.0000   0.0000   0.0000   0.0000   0.0000   0.0000   0.0000
     0.0000   0.0000   0.0000   0.0000   0.0000   0.0000   0.0000   0.0000
     0.0000   0.0000   0.0000   0.0000   0.0000   0.0000   0.0000   0.0000
     0.0000   0.0000   0.0000   0.0000   0.0000   0.0000   0.0000   0.0000
     0.0000   0.0000   0.0000   0.0000   0.0000   0.0000   0.0000   0.0000
     0.0000   0.0000   0.0000   0.0000   0.0000   0.0000   0.0000   0.0000
     0.0000   0.0000   0.0000   0.0000   0.0000   0.0000   0.0000   0.0000
     0.0000   0.0000   0.0000   0.0000   0.0000   0.0000   0.0000   0.0000
     0.0000   0.0000   0.0000   0.0000   0.0000   0.0000   0.0000   0.0000
     0.0000   0.0000   0.0000   0.0000   0.0000   0.0000   0.0000   0.0000
     0.0000   0.0000   0.0000   0.0000   0.0000   0.0000   0.0000   0.0000
     0.0000   0.0000   0.0000   0.0000   0.0000   0.0000   0.0000   0.0000
     0.0000   0.0000   0.0000   0.0000   0.0000   0.0000   0.0000   0.0000
     0.0000   0.0000   0.0000   0.0000   0.0000   0.0000   0.0000   0.0000
     0.0000   0.0000   0.0000   0.0000   0.0000   0.0000   0.0000   0.0000
     0.0000   0.0000   0.0000   0.0000   0.0000   0.0000   0.0000   0.0000
     0.0000   0.0000   0.0000   0.0000   0.0000   0.0000   0.0000   0.0000

          k = 0.0000 0.3517-0.0827 (  3973 PWs)   bands (ev):

   -88.3161 -88.3159 -88.2559 -88.0902 -88.0809 -88.0806 -51.8685 -51.7808
   -51.7794 -51.5094 -51.5057 -51.5027 -51.5002 -51.4529 -51.4345 -51.4342
   -51.3990 -51.3655 -51.2965 -51.2954 -51.2816 -51.2291 -51.2280 -51.2206
   -17.2961 -17.0478 -16.9756 -16.8709 -16.8331 -16.7531 -16.7409 -16.7076
   -16.5780 -16.5004 -11.6410 -11.4926  -0.5869  -0.1797  -0.0990   0.0827
     0.1270   0.4006   0.4497   0.6234   0.6982   0.8367   0.9013   0.9816
     1.0317   1.0973   1.2039   1.2479   1.2890   1.4662   1.4792   1.5536
     1.6333   1.6636   1.9020   1.9714   2.1174   2.1942   2.3473   2.4315
     2.5400   2.6109   2.6527   2.7803   2.9912   3.1042   3.6490   3.8772
     5.7007   5.8057   5.8438   5.8776   5.9100   5.9729   5.9804   6.0056
     6.0379   6.0794   6.1193   6.1234   6.1707   6.2809   6.3257   6.4434
     6.5459   6.6023   6.6538   6.7642   6.8721   6.9983   7.1280   7.2849
     7.3235   7.5215   7.5742   7.7910   7.8732   8.3181  11.0919  13.3117
    13.9536  14.6780  15.0691  15.4146  15.8168  16.0362  16.3802  16.6334
    16.8790  17.3251  18.4665  18.8509  18.9774  19.1035  19.2388  19.3757
    19.6667  19.9445  20.2144  20.5822  20.7576  20.7800  20.9799  21.0941
    21.2330  21.5908  21.7708  22.0036  22.3680  22.6168  23.4496  23.8874
    24.4629  24.6632  25.3268  25.7304  25.9996  26.1380  26.5920  26.8502
    28.2549  28.4374  28.5073  28.9142  29.0661  29.1782  29.3519  29.4324
    29.8030  30.0088  30.2926  30.4222  30.5888  30.7088  31.1070  31.2276
    31.4273  31.8405  32.2850  32.3502  32.7846  33.1485  33.3795  33.4210
    33.6431  34.0729  34.1870  34.4580  34.6789  34.8004  34.9417  35.2063
    35.6034  35.7368  36.0051  36.1055  36.2735  36.4722  36.6074  36.8860
    36.9328  36.9710  37.0751  38.0290  38.2721  38.4036  38.7278  39.0799
    39.2539  39.3395  39.8350  39.8882  40.3059  40.6348  40.7463  40.8942
    41.1994  41.2711  41.3692  41.6221  41.7216  42.0370  42.0720  42.3370
    42.4943  42.5824  42.8931  42.9599  43.1400  43.2744  43.3709  43.4568
    43.7428  43.8322  43.9991  44.1880  44.2876  44.4939  44.7861  45.1873
    45.4891  45.6186  45.9033  46.2074  46.2524  46.5217  46.6460  46.9963
    47.1025  47.4095  47.7224  47.8116  47.9601  48.3511  48.4513  48.5883
    48.6878  48.9572  49.2159  49.2261  49.4347  49.6421  49.7825  50.0719
    50.0943  50.3653  50.4551  50.5696  50.6665  50.6933  50.9641  51.3414

     occupation numbers 
     1.0000   1.0000   1.0000   1.0000   1.0000   1.0000   1.0000   1.0000
     1.0000   1.0000   1.0000   1.0000   1.0000   1.0000   1.0000   1.0000
     1.0000   1.0000   1.0000   1.0000   1.0000   1.0000   1.0000   1.0000
     1.0000   1.0000   1.0000   1.0000   1.0000   1.0000   1.0000   1.0000
     1.0000   1.0000   1.0000   1.0000   1.0000   1.0000   1.0000   1.0000
     1.0000   1.0000   1.0000   1.0000   1.0000   1.0000   1.0000   1.0000
     1.0000   1.0000   1.0000   1.0000   1.0000   1.0000   1.0000   1.0000
     1.0000   1.0000   1.0000   1.0000   1.0000   1.0000   1.0000   1.0000
     1.0000   1.0000   1.0000   1.0000   1.0000   1.0000   1.0000   1.0000
     1.0000   1.0000   1.0000   1.0000   1.0000   1.0000   1.0000   1.0000
     1.0000   1.0000   1.0000   1.0000   1.0000   1.0000   1.0000   1.0000
     1.0000   1.0000   1.0000   1.0000   0.0000   0.0000   0.0000   0.0000
     0.0000   0.0000   0.0000   0.0000   0.0000   0.0000   0.0000   0.0000
     0.0000   0.0000   0.0000   0.0000   0.0000   0.0000   0.0000   0.0000
     0.0000   0.0000   0.0000   0.0000   0.0000   0.0000   0.0000   0.0000
     0.0000   0.0000   0.0000   0.0000   0.0000   0.0000   0.0000   0.0000
     0.0000   0.0000   0.0000   0.0000   0.0000   0.0000   0.0000   0.0000
     0.0000   0.0000   0.0000   0.0000   0.0000   0.0000   0.0000   0.0000
     0.0000   0.0000   0.0000   0.0000   0.0000   0.0000   0.0000   0.0000
     0.0000   0.0000   0.0000   0.0000   0.0000   0.0000   0.0000   0.0000
     0.0000   0.0000   0.0000   0.0000   0.0000   0.0000   0.0000   0.0000
     0.0000   0.0000   0.0000   0.0000   0.0000   0.0000   0.0000   0.0000
     0.0000   0.0000   0.0000   0.0000   0.0000   0.0000   0.0000   0.0000
     0.0000   0.0000   0.0000   0.0000   0.0000   0.0000   0.0000   0.0000
     0.0000   0.0000   0.0000   0.0000   0.0000   0.0000   0.0000   0.0000
     0.0000   0.0000   0.0000   0.0000   0.0000   0.0000   0.0000   0.0000
     0.0000   0.0000   0.0000   0.0000   0.0000   0.0000   0.0000   0.0000
     0.0000   0.0000   0.0000   0.0000   0.0000   0.0000   0.0000   0.0000
     0.0000   0.0000   0.0000   0.0000   0.0000   0.0000   0.0000   0.0000
     0.0000   0.0000   0.0000   0.0000   0.0000   0.0000   0.0000   0.0000
     0.0000   0.0000   0.0000   0.0000   0.0000   0.0000   0.0000   0.0000
     0.0000   0.0000   0.0000   0.0000   0.0000   0.0000   0.0000   0.0000

          k = 0.0000 0.3517 0.1895 (  3975 PWs)   bands (ev):

   -88.3160 -88.3159 -88.2559 -88.0902 -88.0808 -88.0807 -51.8693 -51.7815
   -51.7800 -51.5084 -51.5059 -51.5021 -51.5011 -51.4524 -51.4340 -51.4330
   -51.3999 -51.3648 -51.2960 -51.2950 -51.2813 -51.2301 -51.2288 -51.2203
   -17.2824 -17.0551 -16.9463 -16.9207 -16.8424 -16.7576 -16.7359 -16.6958
   -16.5628 -16.5054 -11.6425 -11.4908  -0.4961  -0.2516  -0.0874   0.0788
     0.2757   0.4124   0.5059   0.5543   0.6206   0.7107   0.9431   0.9581
     1.0577   1.1123   1.1613   1.1880   1.3623   1.3837   1.4601   1.5424
     1.6536   1.7631   1.8793   1.9599   2.1187   2.1760   2.3409   2.4272
     2.4937   2.5831   2.6627   2.7840   3.0023   3.1232   3.6107   3.9179
     5.7153   5.8369   5.8495   5.8985   5.9399   5.9739   5.9934   6.0265
     6.0630   6.0987   6.1150   6.1347   6.1677   6.2299   6.3031   6.4214
     6.5912   6.6824   6.8249   6.8586   6.8932   6.9027   7.0434   7.1666
     7.3396   7.4619   7.5845   7.7530   7.8864   8.2672  11.2333  13.3859
    13.5143  14.1118  15.2525  15.5257  15.9299  16.1665  16.7790  16.9929
    17.1726  17.7528  17.8972  18.5103  18.7373  18.8365  18.9868  19.2347
    19.3391  19.8833  20.0202  20.1525  20.6281  20.7516  21.0398  21.5205
    21.5965  21.9714  22.1483  22.7410  22.9965  23.2212  23.3445  23.8441
    24.2783  24.4710  24.6597  25.2784  25.8923  26.3669  26.7854  27.1995
    27.5182  27.6284  27.8606  28.6780  29.0419  29.0944  29.2959  29.8942
    29.9682  30.2230  30.2785  30.3231  30.6896  30.8913  30.9392  31.4032
    31.5193  31.7542  32.1047  32.4200  32.4910  32.7500  32.8062  32.9874
    33.9203  34.2112  34.4514  34.7283  35.0001  35.1122  35.2658  35.4165
    35.5841  35.6350  36.2043  36.2663  36.6059  37.0096  37.2847  37.3787
    37.4722  37.4774  38.2691  38.3387  38.3705  38.5571  38.7753  38.8866
    39.2754  39.4734  39.5159  39.6259  39.8470  40.2424  40.5106  40.5666
    40.7741  40.8675  41.0257  41.4677  41.5255  41.7905  41.9572  42.1778
    42.4315  42.4796  42.8494  42.9189  43.2330  43.2502  43.3527  43.5033
    43.5496  43.7050  43.7173  43.8652  43.9930  44.3978  44.5079  44.7346
    45.0870  45.2050  45.5631  45.7224  46.0194  46.0583  46.2879  46.4989
    46.7424  47.5224  47.8240  47.8933  48.0250  48.1650  48.3351  48.5225
    48.6533  48.9752  49.3297  49.4183  49.5430  49.7915  50.0534  50.3220
    50.3739  50.4300  50.5480  50.9845  51.0270  51.1691  51.4267  51.5123

     occupation numbers 
     1.0000   1.0000   1.0000   1.0000   1.0000   1.0000   1.0000   1.0000
     1.0000   1.0000   1.0000   1.0000   1.0000   1.0000   1.0000   1.0000
     1.0000   1.0000   1.0000   1.0000   1.0000   1.0000   1.0000   1.0000
     1.0000   1.0000   1.0000   1.0000   1.0000   1.0000   1.0000   1.0000
     1.0000   1.0000   1.0000   1.0000   1.0000   1.0000   1.0000   1.0000
     1.0000   1.0000   1.0000   1.0000   1.0000   1.0000   1.0000   1.0000
     1.0000   1.0000   1.0000   1.0000   1.0000   1.0000   1.0000   1.0000
     1.0000   1.0000   1.0000   1.0000   1.0000   1.0000   1.0000   1.0000
     1.0000   1.0000   1.0000   1.0000   1.0000   1.0000   1.0000   1.0000
     1.0000   1.0000   1.0000   1.0000   1.0000   1.0000   1.0000   1.0000
     1.0000   1.0000   1.0000   1.0000   1.0000   1.0000   1.0000   1.0000
     1.0000   1.0000   1.0000   1.0000   0.0000   0.0000   0.0000   0.0000
     0.0000   0.0000   0.0000   0.0000   0.0000   0.0000   0.0000   0.0000
     0.0000   0.0000   0.0000   0.0000   0.0000   0.0000   0.0000   0.0000
     0.0000   0.0000   0.0000   0.0000   0.0000   0.0000   0.0000   0.0000
     0.0000   0.0000   0.0000   0.0000   0.0000   0.0000   0.0000   0.0000
     0.0000   0.0000   0.0000   0.0000   0.0000   0.0000   0.0000   0.0000
     0.0000   0.0000   0.0000   0.0000   0.0000   0.0000   0.0000   0.0000
     0.0000   0.0000   0.0000   0.0000   0.0000   0.0000   0.0000   0.0000
     0.0000   0.0000   0.0000   0.0000   0.0000   0.0000   0.0000   0.0000
     0.0000   0.0000   0.0000   0.0000   0.0000   0.0000   0.0000   0.0000
     0.0000   0.0000   0.0000   0.0000   0.0000   0.0000   0.0000   0.0000
     0.0000   0.0000   0.0000   0.0000   0.0000   0.0000   0.0000   0.0000
     0.0000   0.0000   0.0000   0.0000   0.0000   0.0000   0.0000   0.0000
     0.0000   0.0000   0.0000   0.0000   0.0000   0.0000   0.0000   0.0000
     0.0000   0.0000   0.0000   0.0000   0.0000   0.0000   0.0000   0.0000
     0.0000   0.0000   0.0000   0.0000   0.0000   0.0000   0.0000   0.0000
     0.0000   0.0000   0.0000   0.0000   0.0000   0.0000   0.0000   0.0000
     0.0000   0.0000   0.0000   0.0000   0.0000   0.0000   0.0000   0.0000
     0.0000   0.0000   0.0000   0.0000   0.0000   0.0000   0.0000   0.0000
     0.0000   0.0000   0.0000   0.0000   0.0000   0.0000   0.0000   0.0000
     0.0000   0.0000   0.0000   0.0000   0.0000   0.0000   0.0000   0.0000

          k = 0.0000 0.3517-0.3550 (  3965 PWs)   bands (ev):

   -88.3160 -88.3158 -88.2558 -88.0901 -88.0808 -88.0805 -51.8687 -51.7797
   -51.7791 -51.5091 -51.5056 -51.5036 -51.4996 -51.4526 -51.4337 -51.4327
   -51.3984 -51.3644 -51.2960 -51.2942 -51.2807 -51.2290 -51.2270 -51.2197
   -17.2703 -17.0634 -16.9905 -16.8697 -16.8512 -16.7656 -16.7351 -16.6919
   -16.5615 -16.5046 -11.6427 -11.4901  -0.4496  -0.2084  -0.1596  -0.0308
     0.0931   0.4571   0.4971   0.6134   0.7663   0.8501   0.9065   1.0114
     1.0395   1.1964   1.2471   1.2771   1.3215   1.4075   1.4405   1.4917
     1.6063   1.7152   1.7682   1.8632   1.9954   2.2187   2.3022   2.4462
     2.5408   2.5895   2.7124   2.8006   2.9961   3.1391   3.6235   3.9318
     5.7079   5.8198   5.8584   5.8930   5.9490   5.9594   6.0071   6.0200
     6.0542   6.1011   6.1091   6.1196   6.2167   6.2511   6.3006   6.4241
     6.6107   6.6783   6.7107   6.8721   6.9053   7.0264   7.1677   7.1887
     7.3036   7.3993   7.4843   7.7771   7.8019   8.2997  11.8179  12.4453
    13.1722  14.9734  15.3602  15.6185  16.2033  16.4036  16.5068  16.7138
    16.7436  17.5081  18.0518  18.4284  18.5112  18.7808  19.2415  19.2833
    19.4843  19.7877  19.9584  20.3395  20.7075  20.8064  21.4854  21.6167
    21.7969  22.0940  22.2069  22.5530  22.7269  22.9677  23.2544  23.6295
    24.0270  24.3604  25.2562  25.5069  25.8620  26.1771  26.2098  26.9065
    27.5866  28.1406  28.4168  28.5584  28.7518  28.8780  29.1449  29.2436
    29.3186  29.9342  30.1271  30.6815  30.9733  31.2332  31.2762  31.4529
    31.6273  31.9298  32.4954  32.5808  32.7074  33.1161  33.6532  33.9717
    34.1477  34.3564  34.5869  34.7615  34.8130  34.9337  35.1116  35.1940
    35.2792  35.8401  36.0480  36.1401  36.3849  36.4498  36.6178  36.8743
    37.0330  37.1972  37.4663  38.2296  38.3483  38.4980  38.5442  38.8040
    38.9166  39.1394  39.2882  39.9885  40.2305  40.5995  40.9716  41.0940
    41.1786  41.3076  41.4009  41.6204  41.6913  41.7409  41.9344  42.0676
    42.1072  42.3864  42.5123  42.7568  42.8946  43.0637  43.1854  43.3701
    43.4533  43.5598  43.9104  44.0177  44.1328  44.3327  44.9461  45.0244
    45.2479  45.4538  45.6943  45.7769  45.9688  46.4500  46.6258  46.7538
    46.9449  47.1975  47.3235  47.7313  47.9610  48.0511  48.3800  48.5451
    48.8550  48.9964  49.0841  49.3531  49.5848  49.8171  49.9792  50.1571
    50.2133  50.3429  50.4249  50.8820  51.1674  51.2088  51.4278  51.5871

     occupation numbers 
     1.0000   1.0000   1.0000   1.0000   1.0000   1.0000   1.0000   1.0000
     1.0000   1.0000   1.0000   1.0000   1.0000   1.0000   1.0000   1.0000
     1.0000   1.0000   1.0000   1.0000   1.0000   1.0000   1.0000   1.0000
     1.0000   1.0000   1.0000   1.0000   1.0000   1.0000   1.0000   1.0000
     1.0000   1.0000   1.0000   1.0000   1.0000   1.0000   1.0000   1.0000
     1.0000   1.0000   1.0000   1.0000   1.0000   1.0000   1.0000   1.0000
     1.0000   1.0000   1.0000   1.0000   1.0000   1.0000   1.0000   1.0000
     1.0000   1.0000   1.0000   1.0000   1.0000   1.0000   1.0000   1.0000
     1.0000   1.0000   1.0000   1.0000   1.0000   1.0000   1.0000   1.0000
     1.0000   1.0000   1.0000   1.0000   1.0000   1.0000   1.0000   1.0000
     1.0000   1.0000   1.0000   1.0000   1.0000   1.0000   1.0000   1.0000
     1.0000   1.0000   1.0000   1.0000   0.0000   0.0000   0.0000   0.0000
     0.0000   0.0000   0.0000   0.0000   0.0000   0.0000   0.0000   0.0000
     0.0000   0.0000   0.0000   0.0000   0.0000   0.0000   0.0000   0.0000
     0.0000   0.0000   0.0000   0.0000   0.0000   0.0000   0.0000   0.0000
     0.0000   0.0000   0.0000   0.0000   0.0000   0.0000   0.0000   0.0000
     0.0000   0.0000   0.0000   0.0000   0.0000   0.0000   0.0000   0.0000
     0.0000   0.0000   0.0000   0.0000   0.0000   0.0000   0.0000   0.0000
     0.0000   0.0000   0.0000   0.0000   0.0000   0.0000   0.0000   0.0000
     0.0000   0.0000   0.0000   0.0000   0.0000   0.0000   0.0000   0.0000
     0.0000   0.0000   0.0000   0.0000   0.0000   0.0000   0.0000   0.0000
     0.0000   0.0000   0.0000   0.0000   0.0000   0.0000   0.0000   0.0000
     0.0000   0.0000   0.0000   0.0000   0.0000   0.0000   0.0000   0.0000
     0.0000   0.0000   0.0000   0.0000   0.0000   0.0000   0.0000   0.0000
     0.0000   0.0000   0.0000   0.0000   0.0000   0.0000   0.0000   0.0000
     0.0000   0.0000   0.0000   0.0000   0.0000   0.0000   0.0000   0.0000
     0.0000   0.0000   0.0000   0.0000   0.0000   0.0000   0.0000   0.0000
     0.0000   0.0000   0.0000   0.0000   0.0000   0.0000   0.0000   0.0000
     0.0000   0.0000   0.0000   0.0000   0.0000   0.0000   0.0000   0.0000
     0.0000   0.0000   0.0000   0.0000   0.0000   0.0000   0.0000   0.0000
     0.0000   0.0000   0.0000   0.0000   0.0000   0.0000   0.0000   0.0000
     0.0000   0.0000   0.0000   0.0000   0.0000   0.0000   0.0000   0.0000

          k = 0.3333-0.1188-0.0863 (  3971 PWs)   bands (ev):

   -88.3160 -88.3159 -88.2559 -88.0902 -88.0809 -88.0806 -51.8690 -51.7808
   -51.7803 -51.5090 -51.5045 -51.5023 -51.4997 -51.4518 -51.4340 -51.4337
   -51.3997 -51.3651 -51.2962 -51.2953 -51.2810 -51.2299 -51.2286 -51.2204
   -17.2883 -17.0605 -16.9583 -16.8892 -16.8322 -16.7542 -16.7398 -16.7059
   -16.5540 -16.5217 -11.6257 -11.5087  -0.5767  -0.1708  -0.1229   0.0792
     0.1133   0.4523   0.4982   0.6082   0.6859   0.7842   0.8819   0.9731
     1.0199   1.1656   1.2116   1.2608   1.3379   1.4290   1.4982   1.5196
     1.5671   1.7264   1.9096   1.9712   1.9935   2.2729   2.3283   2.4703
     2.4896   2.6314   2.7159   2.8369   2.9368   3.0642   3.5840   3.9056
     5.7352   5.7938   5.8615   5.8741   5.8946   5.9630   5.9935   6.0080
     6.0346   6.0877   6.1049   6.1157   6.1736   6.2982   6.3117   6.3744
     6.5377   6.6432   6.6977   6.7480   6.9334   6.9951   7.1211   7.2739
     7.3074   7.4866   7.5677   7.8681   8.0149   8.1076  11.1287  13.3673
    13.9333  14.7052  15.0849  15.3944  15.6917  15.9927  16.4113  16.7071
    16.8747  17.2198  18.6848  18.8254  19.0031  19.0797  19.2460  19.3165
    19.7157  19.9556  20.1238  20.4844  20.6588  20.7223  21.0005  21.1724
    21.2011  21.5002  21.7919  22.4137  22.4981  22.7545  23.3537  23.8235
    24.4532  24.6114  25.3367  25.6551  26.0529  26.2078  26.6134  26.7794
    28.2990  28.3536  28.5112  28.7855  28.9862  29.0773  29.2144  29.5594
    29.7965  29.9720  30.1539  30.5417  30.5703  30.6779  30.7430  31.4279
    31.4535  31.8231  32.2112  32.4789  32.6858  33.1927  33.4312  33.5312
    33.6172  33.8794  34.3020  34.3606  34.7087  34.7684  34.9344  35.2486
    35.6962  35.8880  35.9775  36.0713  36.3166  36.5047  36.6205  36.7921
    36.8476  37.0753  37.2746  38.1249  38.4930  38.5184  38.7063  39.1060
    39.2856  39.4295  39.6941  39.8822  40.4988  40.5926  40.9897  41.0242
    41.2180  41.2720  41.4744  41.6803  41.7163  41.9245  42.2709  42.3056
    42.4325  42.4855  42.6738  42.8000  43.1041  43.2200  43.2709  43.3122
    43.6793  43.8334  43.9361  44.1299  44.3721  44.4836  44.8001  45.1671
    45.3935  45.6451  45.8917  46.2528  46.2683  46.3926  46.8311  46.9676
    47.1896  47.3448  47.4431  47.9431  48.1392  48.2392  48.5786  48.5995
    48.7382  48.8781  49.0427  49.2221  49.2981  49.6181  49.7864  49.9829
    50.1326  50.2911  50.3943  50.5740  50.6839  50.8213  51.1927  51.3068

     occupation numbers 
     1.0000   1.0000   1.0000   1.0000   1.0000   1.0000   1.0000   1.0000
     1.0000   1.0000   1.0000   1.0000   1.0000   1.0000   1.0000   1.0000
     1.0000   1.0000   1.0000   1.0000   1.0000   1.0000   1.0000   1.0000
     1.0000   1.0000   1.0000   1.0000   1.0000   1.0000   1.0000   1.0000
     1.0000   1.0000   1.0000   1.0000   1.0000   1.0000   1.0000   1.0000
     1.0000   1.0000   1.0000   1.0000   1.0000   1.0000   1.0000   1.0000
     1.0000   1.0000   1.0000   1.0000   1.0000   1.0000   1.0000   1.0000
     1.0000   1.0000   1.0000   1.0000   1.0000   1.0000   1.0000   1.0000
     1.0000   1.0000   1.0000   1.0000   1.0000   1.0000   1.0000   1.0000
     1.0000   1.0000   1.0000   1.0000   1.0000   1.0000   1.0000   1.0000
     1.0000   1.0000   1.0000   1.0000   1.0000   1.0000   1.0000   1.0000
     1.0000   1.0000   1.0000   1.0000   0.0000   0.0000   0.0000   0.0000
     0.0000   0.0000   0.0000   0.0000   0.0000   0.0000   0.0000   0.0000
     0.0000   0.0000   0.0000   0.0000   0.0000   0.0000   0.0000   0.0000
     0.0000   0.0000   0.0000   0.0000   0.0000   0.0000   0.0000   0.0000
     0.0000   0.0000   0.0000   0.0000   0.0000   0.0000   0.0000   0.0000
     0.0000   0.0000   0.0000   0.0000   0.0000   0.0000   0.0000   0.0000
     0.0000   0.0000   0.0000   0.0000   0.0000   0.0000   0.0000   0.0000
     0.0000   0.0000   0.0000   0.0000   0.0000   0.0000   0.0000   0.0000
     0.0000   0.0000   0.0000   0.0000   0.0000   0.0000   0.0000   0.0000
     0.0000   0.0000   0.0000   0.0000   0.0000   0.0000   0.0000   0.0000
     0.0000   0.0000   0.0000   0.0000   0.0000   0.0000   0.0000   0.0000
     0.0000   0.0000   0.0000   0.0000   0.0000   0.0000   0.0000   0.0000
     0.0000   0.0000   0.0000   0.0000   0.0000   0.0000   0.0000   0.0000
     0.0000   0.0000   0.0000   0.0000   0.0000   0.0000   0.0000   0.0000
     0.0000   0.0000   0.0000   0.0000   0.0000   0.0000   0.0000   0.0000
     0.0000   0.0000   0.0000   0.0000   0.0000   0.0000   0.0000   0.0000
     0.0000   0.0000   0.0000   0.0000   0.0000   0.0000   0.0000   0.0000
     0.0000   0.0000   0.0000   0.0000   0.0000   0.0000   0.0000   0.0000
     0.0000   0.0000   0.0000   0.0000   0.0000   0.0000   0.0000   0.0000
     0.0000   0.0000   0.0000   0.0000   0.0000   0.0000   0.0000   0.0000
     0.0000   0.0000   0.0000   0.0000   0.0000   0.0000   0.0000   0.0000

          k = 0.3333-0.1188 0.1860 (  3975 PWs)   bands (ev):

   -88.3161 -88.3158 -88.2559 -88.0902 -88.0809 -88.0806 -51.8688 -51.7811
   -51.7798 -51.5100 -51.5062 -51.5032 -51.5015 -51.4531 -51.4341 -51.4323
   -51.3994 -51.3646 -51.2956 -51.2953 -51.2823 -51.2296 -51.2281 -51.2202
   -17.2788 -17.0578 -16.9486 -16.9137 -16.8382 -16.7674 -16.7353 -16.6965
   -16.5514 -16.5174 -11.6223 -11.5116  -0.4983  -0.2219  -0.1017   0.0787
     0.3274   0.3924   0.4807   0.5571   0.5839   0.6965   0.9206   0.9811
     1.0711   1.1097   1.1617   1.2367   1.3552   1.4048   1.4599   1.5372
     1.6359   1.7525   1.8634   1.9574   2.1117   2.1910   2.2927   2.3880
     2.5570   2.6607   2.7204   2.8547   2.9247   3.0245   3.6228   3.8681
     5.7441   5.8317   5.8475   5.9053   5.9646   5.9689   6.0020   6.0395
     6.0473   6.0840   6.1109   6.1387   6.1759   6.2177   6.3020   6.4092
     6.5832   6.6575   6.8109   6.8605   6.8944   6.9814   7.0081   7.1745
     7.3377   7.4080   7.6139   7.8483   7.9008   8.1524  11.2226  13.3278
    13.5853  14.2624  15.1910  15.4343  16.0322  16.0905  16.8094  16.9528
    17.1889  17.7219  17.9538  18.4179  18.6337  18.8306  19.0494  19.0891
    19.3516  19.8548  19.9941  20.3700  20.6840  20.7907  21.0318  21.4773
    21.6334  22.0820  22.2489  22.7972  22.9884  23.1986  23.3285  24.0111
    24.1462  24.2465  24.8349  25.2703  25.9344  26.4013  26.7970  27.2406
    27.4510  27.5061  27.7052  28.6112  28.8988  29.1488  29.2541  29.8299
    30.0247  30.1352  30.2653  30.3762  30.6847  30.8016  31.0302  31.4601
    31.5384  31.7001  31.9785  32.3631  32.5619  32.6469  32.8390  32.9370
    33.9831  34.1797  34.4581  34.8059  35.0504  35.2267  35.3320  35.4413
    35.5677  35.7629  36.2384  36.3704  36.6947  36.8939  37.0961  37.4189
    37.4875  37.5423  37.9936  38.4097  38.4256  38.5990  38.7979  39.0316
    39.1235  39.4066  39.6107  39.7992  39.9490  40.1491  40.4839  40.6473
    40.7873  40.9426  41.0232  41.4054  41.5716  41.7384  41.9394  42.1046
    42.4631  42.5385  42.7572  42.9996  43.1175  43.2839  43.3793  43.5355
    43.5659  43.7463  43.7886  43.8488  44.0670  44.1234  44.5655  44.8091
    45.2059  45.3255  45.5155  45.8793  45.9266  46.0431  46.2988  46.5258
    46.8378  47.5917  47.7665  47.8922  47.9937  48.2084  48.4884  48.6183
    48.6806  48.8005  49.2505  49.3139  49.5371  49.8774  50.0669  50.1169
    50.3205  50.3887  50.5509  50.8255  51.0203  51.1191  51.3565  51.6279

     occupation numbers 
     1.0000   1.0000   1.0000   1.0000   1.0000   1.0000   1.0000   1.0000
     1.0000   1.0000   1.0000   1.0000   1.0000   1.0000   1.0000   1.0000
     1.0000   1.0000   1.0000   1.0000   1.0000   1.0000   1.0000   1.0000
     1.0000   1.0000   1.0000   1.0000   1.0000   1.0000   1.0000   1.0000
     1.0000   1.0000   1.0000   1.0000   1.0000   1.0000   1.0000   1.0000
     1.0000   1.0000   1.0000   1.0000   1.0000   1.0000   1.0000   1.0000
     1.0000   1.0000   1.0000   1.0000   1.0000   1.0000   1.0000   1.0000
     1.0000   1.0000   1.0000   1.0000   1.0000   1.0000   1.0000   1.0000
     1.0000   1.0000   1.0000   1.0000   1.0000   1.0000   1.0000   1.0000
     1.0000   1.0000   1.0000   1.0000   1.0000   1.0000   1.0000   1.0000
     1.0000   1.0000   1.0000   1.0000   1.0000   1.0000   1.0000   1.0000
     1.0000   1.0000   1.0000   1.0000   0.0000   0.0000   0.0000   0.0000
     0.0000   0.0000   0.0000   0.0000   0.0000   0.0000   0.0000   0.0000
     0.0000   0.0000   0.0000   0.0000   0.0000   0.0000   0.0000   0.0000
     0.0000   0.0000   0.0000   0.0000   0.0000   0.0000   0.0000   0.0000
     0.0000   0.0000   0.0000   0.0000   0.0000   0.0000   0.0000   0.0000
     0.0000   0.0000   0.0000   0.0000   0.0000   0.0000   0.0000   0.0000
     0.0000   0.0000   0.0000   0.0000   0.0000   0.0000   0.0000   0.0000
     0.0000   0.0000   0.0000   0.0000   0.0000   0.0000   0.0000   0.0000
     0.0000   0.0000   0.0000   0.0000   0.0000   0.0000   0.0000   0.0000
     0.0000   0.0000   0.0000   0.0000   0.0000   0.0000   0.0000   0.0000
     0.0000   0.0000   0.0000   0.0000   0.0000   0.0000   0.0000   0.0000
     0.0000   0.0000   0.0000   0.0000   0.0000   0.0000   0.0000   0.0000
     0.0000   0.0000   0.0000   0.0000   0.0000   0.0000   0.0000   0.0000
     0.0000   0.0000   0.0000   0.0000   0.0000   0.0000   0.0000   0.0000
     0.0000   0.0000   0.0000   0.0000   0.0000   0.0000   0.0000   0.0000
     0.0000   0.0000   0.0000   0.0000   0.0000   0.0000   0.0000   0.0000
     0.0000   0.0000   0.0000   0.0000   0.0000   0.0000   0.0000   0.0000
     0.0000   0.0000   0.0000   0.0000   0.0000   0.0000   0.0000   0.0000
     0.0000   0.0000   0.0000   0.0000   0.0000   0.0000   0.0000   0.0000
     0.0000   0.0000   0.0000   0.0000   0.0000   0.0000   0.0000   0.0000
     0.0000   0.0000   0.0000   0.0000   0.0000   0.0000   0.0000   0.0000

          k = 0.3333-0.1188-0.3585 (  3963 PWs)   bands (ev):

   -88.3159 -88.3158 -88.2558 -88.0901 -88.0809 -88.0804 -51.8677 -51.7800
   -51.7794 -51.5099 -51.5050 -51.5025 -51.5001 -51.4526 -51.4334 -51.4330
   -51.3985 -51.3644 -51.2959 -51.2940 -51.2818 -51.2291 -51.2268 -51.2196
   -17.2652 -17.0585 -16.9980 -16.8740 -16.8527 -16.7647 -16.7323 -16.6913
   -16.5469 -16.5207 -11.6255 -11.5081  -0.4366  -0.2021  -0.1663  -0.0608
     0.1305   0.4446   0.5077   0.5875   0.7651   0.8478   0.9810   0.9939
     1.0521   1.1942   1.2209   1.2744   1.3380   1.3997   1.4456   1.5465
     1.5498   1.6253   1.7913   1.8548   2.0111   2.2359   2.3710   2.4420
     2.4747   2.6362   2.7309   2.8906   2.9090   3.0920   3.6032   3.9154
     5.7143   5.8138   5.8751   5.8974   5.9502   5.9723   6.0059   6.0214
     6.0250   6.0936   6.1126   6.1363   6.2292   6.2540   6.2896   6.3793
     6.6296   6.6840   6.7064   6.8896   6.9478   7.0506   7.1047   7.2116
     7.2795   7.3823   7.4636   7.7943   7.9708   8.1278  11.8419  12.4532
    13.1845  15.1162  15.2825  15.5721  16.2824  16.3490  16.4461  16.6416
    16.7861  17.5175  18.0176  18.3690  18.4900  18.7487  19.1081  19.4258
    19.5295  19.9372  20.0074  20.2124  20.7733  20.8034  21.4542  21.6215
    21.9143  21.9806  22.2500  22.6339  22.6893  22.9576  23.4551  23.5751
    24.0977  24.4469  25.1488  25.4157  25.9114  26.1795  26.2703  26.8246
    27.6622  27.9310  28.3384  28.5126  28.7344  28.8391  29.1083  29.1919
    29.2869  29.9277  30.1839  30.5845  30.9269  31.1204  31.1891  31.4625
    31.6109  31.8460  32.4971  32.6740  32.7534  33.1462  33.5902  33.9547
    34.3195  34.4881  34.5736  34.7255  34.7659  34.9512  35.1126  35.1664
    35.4991  35.7917  36.0334  36.1403  36.3552  36.5378  36.7216  36.9135
    37.1338  37.1735  37.5594  38.0544  38.2738  38.5865  38.7181  38.8354
    38.9912  39.1435  39.4500  40.1462  40.2772  40.6526  40.8267  41.0077
    41.0576  41.3163  41.4381  41.6166  41.6909  41.7135  41.9683  42.0705
    42.1421  42.3499  42.4105  42.7431  42.8392  42.8761  42.9791  43.1420
    43.4382  43.7996  43.9177  44.0384  44.1855  44.3275  45.0497  45.0925
    45.1795  45.5430  45.7489  45.8675  45.9679  46.5101  46.5695  46.7565
    47.0799  47.1578  47.3470  47.8695  47.9402  48.2158  48.4572  48.6888
    48.8444  48.9986  49.0179  49.4038  49.6307  49.7112  49.8063  50.0353
    50.1128  50.2078  50.4535  50.8452  51.1528  51.2237  51.2995  51.3936

     occupation numbers 
     1.0000   1.0000   1.0000   1.0000   1.0000   1.0000   1.0000   1.0000
     1.0000   1.0000   1.0000   1.0000   1.0000   1.0000   1.0000   1.0000
     1.0000   1.0000   1.0000   1.0000   1.0000   1.0000   1.0000   1.0000
     1.0000   1.0000   1.0000   1.0000   1.0000   1.0000   1.0000   1.0000
     1.0000   1.0000   1.0000   1.0000   1.0000   1.0000   1.0000   1.0000
     1.0000   1.0000   1.0000   1.0000   1.0000   1.0000   1.0000   1.0000
     1.0000   1.0000   1.0000   1.0000   1.0000   1.0000   1.0000   1.0000
     1.0000   1.0000   1.0000   1.0000   1.0000   1.0000   1.0000   1.0000
     1.0000   1.0000   1.0000   1.0000   1.0000   1.0000   1.0000   1.0000
     1.0000   1.0000   1.0000   1.0000   1.0000   1.0000   1.0000   1.0000
     1.0000   1.0000   1.0000   1.0000   1.0000   1.0000   1.0000   1.0000
     1.0000   1.0000   1.0000   1.0000   0.0000   0.0000   0.0000   0.0000
     0.0000   0.0000   0.0000   0.0000   0.0000   0.0000   0.0000   0.0000
     0.0000   0.0000   0.0000   0.0000   0.0000   0.0000   0.0000   0.0000
     0.0000   0.0000   0.0000   0.0000   0.0000   0.0000   0.0000   0.0000
     0.0000   0.0000   0.0000   0.0000   0.0000   0.0000   0.0000   0.0000
     0.0000   0.0000   0.0000   0.0000   0.0000   0.0000   0.0000   0.0000
     0.0000   0.0000   0.0000   0.0000   0.0000   0.0000   0.0000   0.0000
     0.0000   0.0000   0.0000   0.0000   0.0000   0.0000   0.0000   0.0000
     0.0000   0.0000   0.0000   0.0000   0.0000   0.0000   0.0000   0.0000
     0.0000   0.0000   0.0000   0.0000   0.0000   0.0000   0.0000   0.0000
     0.0000   0.0000   0.0000   0.0000   0.0000   0.0000   0.0000   0.0000
     0.0000   0.0000   0.0000   0.0000   0.0000   0.0000   0.0000   0.0000
     0.0000   0.0000   0.0000   0.0000   0.0000   0.0000   0.0000   0.0000
     0.0000   0.0000   0.0000   0.0000   0.0000   0.0000   0.0000   0.0000
     0.0000   0.0000   0.0000   0.0000   0.0000   0.0000   0.0000   0.0000
     0.0000   0.0000   0.0000   0.0000   0.0000   0.0000   0.0000   0.0000
     0.0000   0.0000   0.0000   0.0000   0.0000   0.0000   0.0000   0.0000
     0.0000   0.0000   0.0000   0.0000   0.0000   0.0000   0.0000   0.0000
     0.0000   0.0000   0.0000   0.0000   0.0000   0.0000   0.0000   0.0000
     0.0000   0.0000   0.0000   0.0000   0.0000   0.0000   0.0000   0.0000
     0.0000   0.0000   0.0000   0.0000   0.0000   0.0000   0.0000   0.0000

          k = 0.3333 0.2328-0.1690 (  3960 PWs)   bands (ev):

   -88.3160 -88.3158 -88.2558 -88.0901 -88.0808 -88.0805 -51.8682 -51.7811
   -51.7793 -51.5091 -51.5047 -51.5019 -51.4990 -51.4521 -51.4343 -51.4322
   -51.3993 -51.3643 -51.2955 -51.2943 -51.2813 -51.2292 -51.2281 -51.2195
   -17.2875 -16.9995 -16.9749 -16.9052 -16.8501 -16.7544 -16.7347 -16.6991
   -16.5709 -16.5318 -11.6177 -11.5107  -0.6114  -0.2843  -0.2415  -0.0008
     0.2346   0.3759   0.5092   0.6072   0.6995   0.8595   0.9144   0.9583
     0.9881   1.0920   1.2092   1.2941   1.3436   1.4401   1.6113   1.6379
     1.7169   1.7861   1.9351   2.1669   2.2034   2.2766   2.3416   2.4376
     2.5283   2.5373   2.6645   2.7801   2.9057   3.0187   3.5640   3.6999
     5.7166   5.8011   5.8397   5.8465   5.9093   5.9190   5.9690   5.9928
     6.0357   6.0462   6.0725   6.1168   6.1913   6.2893   6.3052   6.3707
     6.5207   6.6238   6.7859   6.9799   6.9990   7.0792   7.1206   7.2361
     7.3069   7.4681   7.4996   7.5573   7.8667   7.9783  11.5258  13.4797
    14.1478  14.4041  14.8334  15.0516  15.7424  15.9257  16.3297  16.7167
    17.1059  17.7963  17.9039  18.7148  18.9271  19.0085  19.2837  19.5492
    20.0268  20.3891  20.4589  20.5893  20.9464  21.1326  21.2665  21.2979
    21.4660  21.7185  21.9328  22.3141  22.9539  23.0201  23.1582  23.9590
    24.2576  24.7530  25.0199  25.1106  25.6571  25.9337  26.0073  26.2729
    26.3315  26.5162  27.5737  27.7220  28.5949  29.0904  29.1646  29.4532
    29.8647  30.6232  30.9822  31.0098  31.1409  31.1889  31.3721  31.6336
    32.1076  32.2551  32.3584  32.7835  32.8671  32.9127  32.9892  33.3036
    33.5140  34.1244  34.3138  34.8606  35.1773  35.2500  35.4937  35.7159
    35.8547  36.1306  36.4920  36.5682  36.6924  36.8357  36.9771  37.1645
    37.2565  37.6734  37.8937  38.2881  38.3876  38.5571  38.8717  39.0168
    39.1582  39.2768  39.7810  39.8813  40.0923  40.2678  40.8428  40.8995
    41.0519  41.2178  41.3178  41.6432  41.7240  41.8883  41.9628  42.1868
    42.2174  42.6153  42.7057  42.9335  42.9880  43.2336  43.5193  43.6279
    43.6736  43.8027  44.0740  44.2936  44.4722  44.6823  44.7811  44.9766
    45.0534  45.1430  45.2211  45.4575  45.9451  46.2369  46.3435  46.4809
    46.6628  46.7002  46.8867  47.2180  47.4028  47.5482  47.6663  47.7348
    47.7971  47.9841  48.1308  48.2256  48.3521  48.4406  48.9797  49.1814
    49.4331  49.6418  49.7364  50.0743  50.2184  50.3028  50.6723  51.1390

     occupation numbers 
     1.0000   1.0000   1.0000   1.0000   1.0000   1.0000   1.0000   1.0000
     1.0000   1.0000   1.0000   1.0000   1.0000   1.0000   1.0000   1.0000
     1.0000   1.0000   1.0000   1.0000   1.0000   1.0000   1.0000   1.0000
     1.0000   1.0000   1.0000   1.0000   1.0000   1.0000   1.0000   1.0000
     1.0000   1.0000   1.0000   1.0000   1.0000   1.0000   1.0000   1.0000
     1.0000   1.0000   1.0000   1.0000   1.0000   1.0000   1.0000   1.0000
     1.0000   1.0000   1.0000   1.0000   1.0000   1.0000   1.0000   1.0000
     1.0000   1.0000   1.0000   1.0000   1.0000   1.0000   1.0000   1.0000
     1.0000   1.0000   1.0000   1.0000   1.0000   1.0000   1.0000   1.0000
     1.0000   1.0000   1.0000   1.0000   1.0000   1.0000   1.0000   1.0000
     1.0000   1.0000   1.0000   1.0000   1.0000   1.0000   1.0000   1.0000
     1.0000   1.0000   1.0000   1.0000   0.0000   0.0000   0.0000   0.0000
     0.0000   0.0000   0.0000   0.0000   0.0000   0.0000   0.0000   0.0000
     0.0000   0.0000   0.0000   0.0000   0.0000   0.0000   0.0000   0.0000
     0.0000   0.0000   0.0000   0.0000   0.0000   0.0000   0.0000   0.0000
     0.0000   0.0000   0.0000   0.0000   0.0000   0.0000   0.0000   0.0000
     0.0000   0.0000   0.0000   0.0000   0.0000   0.0000   0.0000   0.0000
     0.0000   0.0000   0.0000   0.0000   0.0000   0.0000   0.0000   0.0000
     0.0000   0.0000   0.0000   0.0000   0.0000   0.0000   0.0000   0.0000
     0.0000   0.0000   0.0000   0.0000   0.0000   0.0000   0.0000   0.0000
     0.0000   0.0000   0.0000   0.0000   0.0000   0.0000   0.0000   0.0000
     0.0000   0.0000   0.0000   0.0000   0.0000   0.0000   0.0000   0.0000
     0.0000   0.0000   0.0000   0.0000   0.0000   0.0000   0.0000   0.0000
     0.0000   0.0000   0.0000   0.0000   0.0000   0.0000   0.0000   0.0000
     0.0000   0.0000   0.0000   0.0000   0.0000   0.0000   0.0000   0.0000
     0.0000   0.0000   0.0000   0.0000   0.0000   0.0000   0.0000   0.0000
     0.0000   0.0000   0.0000   0.0000   0.0000   0.0000   0.0000   0.0000
     0.0000   0.0000   0.0000   0.0000   0.0000   0.0000   0.0000   0.0000
     0.0000   0.0000   0.0000   0.0000   0.0000   0.0000   0.0000   0.0000
     0.0000   0.0000   0.0000   0.0000   0.0000   0.0000   0.0000   0.0000
     0.0000   0.0000   0.0000   0.0000   0.0000   0.0000   0.0000   0.0000
     0.0000   0.0000   0.0000   0.0000   0.0000   0.0000   0.0000   0.0000

          k = 0.3333 0.2328 0.1033 (  3950 PWs)   bands (ev):

   -88.3159 -88.3157 -88.2558 -88.0901 -88.0807 -88.0805 -51.8683 -51.7803
   -51.7794 -51.5090 -51.5040 -51.5019 -51.4996 -51.4516 -51.4325 -51.4316
   -51.3989 -51.3636 -51.2949 -51.2938 -51.2806 -51.2288 -51.2282 -51.2191
   -17.2896 -16.9850 -16.9592 -16.9054 -16.8779 -16.7612 -16.7394 -16.6890
   -16.5719 -16.5297 -11.6156 -11.5130  -0.6239  -0.2303  -0.2145   0.1486
     0.2356   0.3699   0.4713   0.5434   0.6237   0.6430   0.9317   1.0180
     1.0739   1.1327   1.2486   1.3533   1.3694   1.4610   1.5190   1.5828
     1.6739   1.8050   2.0403   2.0976   2.1819   2.2925   2.3467   2.4387
     2.4677   2.4999   2.6364   2.7626   2.9657   3.0076   3.5894   3.6245
     5.7304   5.8356   5.8704   5.9185   5.9390   5.9554   5.9728   6.0097
     6.0461   6.0621   6.1089   6.1184   6.1939   6.2624   6.3002   6.3536
     6.5671   6.6701   6.8142   6.9857   7.0201   7.1157   7.1600   7.2154
     7.2894   7.3543   7.4939   7.5110   7.8403   7.9253  11.3380  13.9741
    14.0746  14.4464  14.9186  15.1719  15.4085  15.5229  15.8088  16.9820
    17.3707  18.0789  18.2987  18.4630  19.1219  19.2047  19.4602  19.7498
    19.9394  20.0687  20.1222  20.3292  20.3948  20.5121  21.3556  21.5022
    21.6379  21.9224  22.2331  22.3587  22.6048  22.8997  23.9165  24.4671
    24.5681  24.6240  24.8444  25.2627  25.4307  25.7056  26.1640  26.4223
    26.6237  26.9044  27.5706  28.0081  28.1308  28.4910  28.5787  29.3097
    29.4603  29.7814  30.0049  30.8075  31.0273  31.2639  31.7035  32.0060
    32.1779  32.3819  32.7180  32.8303  33.2801  33.5292  33.5596  33.7135
    33.7314  34.0900  34.3047  34.6407  35.0325  35.0860  35.4836  35.6119
    35.6566  35.7749  36.0661  36.4640  36.5991  36.7340  37.1496  37.4209
    37.6261  37.8457  37.8846  38.0560  38.5956  38.8796  38.9395  39.2595
    39.4018  39.9160  40.0546  40.2696  40.3173  40.4537  40.4830  40.8359
    40.9386  41.2590  41.4951  41.5463  41.7365  41.9358  42.3815  42.4902
    42.5001  42.6072  42.7544  42.8157  43.0187  43.1587  43.3106  43.4713
    43.6213  43.6783  43.8072  43.8995  44.1137  44.2235  44.4151  44.6319
    44.8176  44.8894  45.0048  45.5506  45.8527  45.9302  46.0638  46.2538
    46.4556  46.6156  46.8004  47.1319  47.1992  47.4084  47.6218  47.7499
    48.0747  48.0960  48.2368  48.4456  48.6996  48.7508  49.0948  49.2159
    49.4200  49.6295  49.8502  49.9781  50.2925  50.3902  50.6325  51.0340

     occupation numbers 
     1.0000   1.0000   1.0000   1.0000   1.0000   1.0000   1.0000   1.0000
     1.0000   1.0000   1.0000   1.0000   1.0000   1.0000   1.0000   1.0000
     1.0000   1.0000   1.0000   1.0000   1.0000   1.0000   1.0000   1.0000
     1.0000   1.0000   1.0000   1.0000   1.0000   1.0000   1.0000   1.0000
     1.0000   1.0000   1.0000   1.0000   1.0000   1.0000   1.0000   1.0000
     1.0000   1.0000   1.0000   1.0000   1.0000   1.0000   1.0000   1.0000
     1.0000   1.0000   1.0000   1.0000   1.0000   1.0000   1.0000   1.0000
     1.0000   1.0000   1.0000   1.0000   1.0000   1.0000   1.0000   1.0000
     1.0000   1.0000   1.0000   1.0000   1.0000   1.0000   1.0000   1.0000
     1.0000   1.0000   1.0000   1.0000   1.0000   1.0000   1.0000   1.0000
     1.0000   1.0000   1.0000   1.0000   1.0000   1.0000   1.0000   1.0000
     1.0000   1.0000   1.0000   1.0000   0.0000   0.0000   0.0000   0.0000
     0.0000   0.0000   0.0000   0.0000   0.0000   0.0000   0.0000   0.0000
     0.0000   0.0000   0.0000   0.0000   0.0000   0.0000   0.0000   0.0000
     0.0000   0.0000   0.0000   0.0000   0.0000   0.0000   0.0000   0.0000
     0.0000   0.0000   0.0000   0.0000   0.0000   0.0000   0.0000   0.0000
     0.0000   0.0000   0.0000   0.0000   0.0000   0.0000   0.0000   0.0000
     0.0000   0.0000   0.0000   0.0000   0.0000   0.0000   0.0000   0.0000
     0.0000   0.0000   0.0000   0.0000   0.0000   0.0000   0.0000   0.0000
     0.0000   0.0000   0.0000   0.0000   0.0000   0.0000   0.0000   0.0000
     0.0000   0.0000   0.0000   0.0000   0.0000   0.0000   0.0000   0.0000
     0.0000   0.0000   0.0000   0.0000   0.0000   0.0000   0.0000   0.0000
     0.0000   0.0000   0.0000   0.0000   0.0000   0.0000   0.0000   0.0000
     0.0000   0.0000   0.0000   0.0000   0.0000   0.0000   0.0000   0.0000
     0.0000   0.0000   0.0000   0.0000   0.0000   0.0000   0.0000   0.0000
     0.0000   0.0000   0.0000   0.0000   0.0000   0.0000   0.0000   0.0000
     0.0000   0.0000   0.0000   0.0000   0.0000   0.0000   0.0000   0.0000
     0.0000   0.0000   0.0000   0.0000   0.0000   0.0000   0.0000   0.0000
     0.0000   0.0000   0.0000   0.0000   0.0000   0.0000   0.0000   0.0000
     0.0000   0.0000   0.0000   0.0000   0.0000   0.0000   0.0000   0.0000
     0.0000   0.0000   0.0000   0.0000   0.0000   0.0000   0.0000   0.0000
     0.0000   0.0000   0.0000   0.0000   0.0000   0.0000   0.0000   0.0000

          k = 0.3333 0.2328-0.4412 (  3966 PWs)   bands (ev):

   -88.3161 -88.3159 -88.2559 -88.0902 -88.0809 -88.0806 -51.8693 -51.7812
   -51.7798 -51.5094 -51.5052 -51.5030 -51.5007 -51.4527 -51.4343 -51.4336
   -51.3997 -51.3651 -51.2966 -51.2949 -51.2812 -51.2300 -51.2282 -51.2204
   -17.2750 -17.0111 -16.9576 -16.9052 -16.8793 -16.7725 -16.7321 -16.6829
   -16.5542 -16.5395 -11.6173 -11.5109  -0.5820  -0.2226  -0.1136  -0.0373
     0.0213   0.4329   0.5136   0.5740   0.6204   0.8978   0.9470   1.0015
     1.0787   1.1127   1.2757   1.3307   1.3559   1.4470   1.5434   1.5533
     1.6156   1.7064   1.8294   2.1124   2.1626   2.2424   2.3858   2.4447
     2.5002   2.6277   2.6777   2.7634   2.9432   3.0916   3.5523   3.6710
[...]
     0.0000   0.0000   0.0000   0.0000   0.0000   0.0000   0.0000   0.0000
     0.0000   0.0000   0.0000   0.0000   0.0000   0.0000   0.0000   0.0000
     0.0000   0.0000   0.0000   0.0000   0.0000   0.0000   0.0000   0.0000
     0.0000   0.0000   0.0000   0.0000   0.0000   0.0000   0.0000   0.0000
     0.0000   0.0000   0.0000   0.0000   0.0000   0.0000   0.0000   0.0000
     0.0000   0.0000   0.0000   0.0000   0.0000   0.0000   0.0000   0.0000
     0.0000   0.0000   0.0000   0.0000   0.0000   0.0000   0.0000   0.0000
     0.0000   0.0000   0.0000   0.0000   0.0000   0.0000   0.0000   0.0000

          k = 0.3333-0.4705-0.0035 (  3960 PWs)   bands (ev):

   -88.3160 -88.3157 -88.2558 -88.0901 -88.0807 -88.0806 -51.8682 -51.7798
   -51.7778 -51.5085 -51.5057 -51.5029 -51.5010 -51.4530 -51.4342 -51.4325
   -51.3978 -51.3644 -51.2955 -51.2945 -51.2806 -51.2279 -51.2268 -51.2196
   -17.2164 -17.1027 -16.9632 -16.9018 -16.8292 -16.7490 -16.7413 -16.7068
   -16.5759 -16.5222 -11.6294 -11.5128  -0.3841  -0.2138   0.0070   0.1202
     0.3565   0.4553   0.4975   0.5576   0.6920   0.7380   0.8780   0.9435
     0.9978   1.0929   1.1445   1.2216   1.3471   1.4051   1.4442   1.6364
     1.7845   1.8369   1.8611   1.9371   2.0617   2.1754   2.2674   2.3710
     2.4422   2.5460   2.6270   2.7670   2.8628   3.0026   3.4984   3.8547
     5.7195   5.7673   5.8450   5.8486   5.9148   5.9675   5.9872   6.0176
     6.0609   6.0767   6.1210   6.1476   6.2514   6.2906   6.3530   6.3920
     6.5883   6.6633   6.6987   6.8499   6.8547   6.9137   6.9848   7.3185
     7.3944   7.3987   7.5482   7.7385   7.9153   8.1662  12.4098  13.2034
    13.3597  14.1318  14.6548  15.3079  15.4627  16.0590  16.8694  17.1242
    17.6036  18.0149  18.4303  18.5408  18.8466  18.9126  19.7624  19.8931
    19.9071  20.1893  20.2356  20.4580  20.5809  20.6588  20.7644  20.9562
    21.0117  21.1904  22.1201  22.1791  22.9858  23.2739  23.5800  23.7489
    23.9731  24.4742  24.6358  24.8652  25.7205  25.9332  26.3241  26.4133
    26.6387  26.9583  28.2205  28.5978  28.6880  29.0259  29.0719  29.9700
    29.9939  30.5682  30.6849  30.7765  30.8730  31.0747  31.4962  31.5974
    31.9204  32.2340  32.4427  32.5173  32.7613  32.8090  33.0173  33.1568
    33.9310  34.4136  34.5143  34.5737  34.8922  35.3062  35.3908  35.9025
    36.1113  36.3413  36.4452  36.5625  36.6472  36.7420  36.7869  36.9384
    37.1057  37.9769  38.2226  38.4127  38.5207  38.6519  38.9342  39.0103
    39.0850  39.1902  39.5073  39.7084  39.8098  39.9910  40.3831  40.5325
    40.6710  40.7702  40.9638  41.1230  41.5715  41.7245  41.8577  41.9915
    42.0952  42.3751  42.6931  42.8239  43.1562  43.1950  43.2909  43.4206
    43.6116  43.7608  43.9413  43.9805  44.1477  44.3549  44.4855  45.0817
    45.1864  45.4560  45.7277  45.8012  45.9412  46.0620  46.2919  46.4641
    46.5806  47.1948  47.5037  47.5771  47.7412  48.0161  48.2615  48.4487
    48.6169  48.9114  49.0084  49.2667  49.4898  49.5369  49.9789  50.1227
    50.2468  50.3726  50.6900  50.7438  50.8999  51.1296  51.3183  51.4076

     occupation numbers 
     1.0000   1.0000   1.0000   1.0000   1.0000   1.0000   1.0000   1.0000
     1.0000   1.0000   1.0000   1.0000   1.0000   1.0000   1.0000   1.0000
     1.0000   1.0000   1.0000   1.0000   1.0000   1.0000   1.0000   1.0000
     1.0000   1.0000   1.0000   1.0000   1.0000   1.0000   1.0000   1.0000
     1.0000   1.0000   1.0000   1.0000   1.0000   1.0000   1.0000   1.0000
     1.0000   1.0000   1.0000   1.0000   1.0000   1.0000   1.0000   1.0000
     1.0000   1.0000   1.0000   1.0000   1.0000   1.0000   1.0000   1.0000
     1.0000   1.0000   1.0000   1.0000   1.0000   1.0000   1.0000   1.0000
     1.0000   1.0000   1.0000   1.0000   1.0000   1.0000   1.0000   1.0000
     1.0000   1.0000   1.0000   1.0000   1.0000   1.0000   1.0000   1.0000
     1.0000   1.0000   1.0000   1.0000   1.0000   1.0000   1.0000   1.0000
     1.0000   1.0000   1.0000   1.0000   0.0000   0.0000   0.0000   0.0000
     0.0000   0.0000   0.0000   0.0000   0.0000   0.0000   0.0000   0.0000
     0.0000   0.0000   0.0000   0.0000   0.0000   0.0000   0.0000   0.0000
     0.0000   0.0000   0.0000   0.0000   0.0000   0.0000   0.0000   0.0000
     0.0000   0.0000   0.0000   0.0000   0.0000   0.0000   0.0000   0.0000
     0.0000   0.0000   0.0000   0.0000   0.0000   0.0000   0.0000   0.0000
     0.0000   0.0000   0.0000   0.0000   0.0000   0.0000   0.0000   0.0000
     0.0000   0.0000   0.0000   0.0000   0.0000   0.0000   0.0000   0.0000
     0.0000   0.0000   0.0000   0.0000   0.0000   0.0000   0.0000   0.0000
     0.0000   0.0000   0.0000   0.0000   0.0000   0.0000   0.0000   0.0000
     0.0000   0.0000   0.0000   0.0000   0.0000   0.0000   0.0000   0.0000
     0.0000   0.0000   0.0000   0.0000   0.0000   0.0000   0.0000   0.0000
     0.0000   0.0000   0.0000   0.0000   0.0000   0.0000   0.0000   0.0000
     0.0000   0.0000   0.0000   0.0000   0.0000   0.0000   0.0000   0.0000
     0.0000   0.0000   0.0000   0.0000   0.0000   0.0000   0.0000   0.0000
     0.0000   0.0000   0.0000   0.0000   0.0000   0.0000   0.0000   0.0000
     0.0000   0.0000   0.0000   0.0000   0.0000   0.0000   0.0000   0.0000
     0.0000   0.0000   0.0000   0.0000   0.0000   0.0000   0.0000   0.0000
     0.0000   0.0000   0.0000   0.0000   0.0000   0.0000   0.0000   0.0000
     0.0000   0.0000   0.0000   0.0000   0.0000   0.0000   0.0000   0.0000
     0.0000   0.0000   0.0000   0.0000   0.0000   0.0000   0.0000   0.0000

          k = 0.3333-0.4705 0.2687 (  3964 PWs)   bands (ev):

   -88.3161 -88.3158 -88.2559 -88.0902 -88.0808 -88.0806 -51.8680 -51.7808
   -51.7794 -51.5097 -51.5051 -51.5023 -51.4993 -51.4525 -51.4343 -51.4329
   -51.3990 -51.3649 -51.2959 -51.2950 -51.2816 -51.2287 -51.2284 -51.2201
   -17.2124 -17.0854 -16.9878 -16.8810 -16.8434 -16.7813 -16.7350 -16.6898
   -16.5747 -16.5189 -11.6279 -11.5140  -0.2799  -0.1940   0.0141   0.0673
     0.2129   0.3724   0.4536   0.6131   0.7755   0.8403   0.8790   0.9210
     0.9379   1.1427   1.2194   1.3292   1.3392   1.4065   1.5181   1.5831
     1.7026   1.7787   1.8920   1.9333   2.0464   2.1422   2.2622   2.2997
     2.4218   2.5075   2.6356   2.7044   2.8816   2.9510   3.5600   3.7859
     5.7584   5.8424   5.8710   5.9237   5.9481   5.9944   6.0068   6.0406
     6.0831   6.0925   6.1065   6.1256   6.2265   6.2795   6.3417   6.3676
     6.5475   6.6897   6.8040   6.8212   6.9448   7.0389   7.0923   7.2223
     7.3231   7.3554   7.5188   7.6790   7.7298   8.1505  12.7082  12.9239
    13.3103  13.9306  14.4668  15.6005  15.7734  16.3114  16.8995  17.0965
    17.2540  17.8137  18.0154  18.4941  18.9041  19.0358  19.3596  19.6534
    19.8009  20.2174  20.4761  20.6730  20.7359  20.9093  21.2258  21.3207
    21.4986  21.6549  21.9866  22.3615  22.5764  22.6742  22.7877  23.5300
    24.0101  24.3554  24.5537  25.3326  25.5863  25.7871  26.0901  26.3768
    27.6043  28.0271  28.0965  28.2079  28.5916  28.8228  29.0998  29.3694
    29.5698  30.1046  30.2293  30.6419  30.7382  30.7927  31.3036  31.6279
    31.7456  32.4426  32.6684  32.8937  33.2636  33.4794  33.5558  33.8036
    34.3461  34.5378  34.7533  34.9879  35.0988  35.2158  35.3072  35.4149
    35.6217  35.8838  35.9399  36.4050  36.6261  36.6664  36.9535  37.0358
    37.1854  37.6956  37.7615  38.0103  38.3199  38.4102  38.6709  38.7170
    39.0020  39.2795  39.5575  39.7864  40.1909  40.2669  40.6154  40.8761
    41.1580  41.2182  41.4826  41.6160  41.6690  41.8390  42.0038  42.0862
    42.2292  42.4060  42.5484  42.7937  42.9071  43.2068  43.2280  43.3489
    43.5310  43.7521  43.8975  44.1249  44.1915  44.3347  44.5274  44.7778
    45.0470  45.4486  45.8520  46.0412  46.1276  46.4563  46.6441  46.7659
    46.8102  46.9292  47.0982  47.4084  47.5035  47.7598  48.0920  48.3122
    48.4506  48.5685  48.8921  48.9928  49.1781  49.2808  49.3555  49.4448
    49.7284  50.0453  50.0920  50.2769  50.4468  50.6497  50.8906  51.0922

     occupation numbers 
     1.0000   1.0000   1.0000   1.0000   1.0000   1.0000   1.0000   1.0000
     1.0000   1.0000   1.0000   1.0000   1.0000   1.0000   1.0000   1.0000
     1.0000   1.0000   1.0000   1.0000   1.0000   1.0000   1.0000   1.0000
     1.0000   1.0000   1.0000   1.0000   1.0000   1.0000   1.0000   1.0000
     1.0000   1.0000   1.0000   1.0000   1.0000   1.0000   1.0000   1.0000
     1.0000   1.0000   1.0000   1.0000   1.0000   1.0000   1.0000   1.0000
     1.0000   1.0000   1.0000   1.0000   1.0000   1.0000   1.0000   1.0000
     1.0000   1.0000   1.0000   1.0000   1.0000   1.0000   1.0000   1.0000
     1.0000   1.0000   1.0000   1.0000   1.0000   1.0000   1.0000   1.0000
     1.0000   1.0000   1.0000   1.0000   1.0000   1.0000   1.0000   1.0000
     1.0000   1.0000   1.0000   1.0000   1.0000   1.0000   1.0000   1.0000
     1.0000   1.0000   1.0000   1.0000   0.0000   0.0000   0.0000   0.0000
     0.0000   0.0000   0.0000   0.0000   0.0000   0.0000   0.0000   0.0000
     0.0000   0.0000   0.0000   0.0000   0.0000   0.0000   0.0000   0.0000
     0.0000   0.0000   0.0000   0.0000   0.0000   0.0000   0.0000   0.0000
     0.0000   0.0000   0.0000   0.0000   0.0000   0.0000   0.0000   0.0000
     0.0000   0.0000   0.0000   0.0000   0.0000   0.0000   0.0000   0.0000
     0.0000   0.0000   0.0000   0.0000   0.0000   0.0000   0.0000   0.0000
     0.0000   0.0000   0.0000   0.0000   0.0000   0.0000   0.0000   0.0000
     0.0000   0.0000   0.0000   0.0000   0.0000   0.0000   0.0000   0.0000
     0.0000   0.0000   0.0000   0.0000   0.0000   0.0000   0.0000   0.0000
     0.0000   0.0000   0.0000   0.0000   0.0000   0.0000   0.0000   0.0000
     0.0000   0.0000   0.0000   0.0000   0.0000   0.0000   0.0000   0.0000
     0.0000   0.0000   0.0000   0.0000   0.0000   0.0000   0.0000   0.0000
     0.0000   0.0000   0.0000   0.0000   0.0000   0.0000   0.0000   0.0000
     0.0000   0.0000   0.0000   0.0000   0.0000   0.0000   0.0000   0.0000
     0.0000   0.0000   0.0000   0.0000   0.0000   0.0000   0.0000   0.0000
     0.0000   0.0000   0.0000   0.0000   0.0000   0.0000   0.0000   0.0000
     0.0000   0.0000   0.0000   0.0000   0.0000   0.0000   0.0000   0.0000
     0.0000   0.0000   0.0000   0.0000   0.0000   0.0000   0.0000   0.0000
     0.0000   0.0000   0.0000   0.0000   0.0000   0.0000   0.0000   0.0000
     0.0000   0.0000   0.0000   0.0000   0.0000   0.0000   0.0000   0.0000

          k = 0.3333-0.4705-0.2758 (  3953 PWs)   bands (ev):

   -88.3159 -88.3157 -88.2558 -88.0900 -88.0808 -88.0804 -51.8679 -51.7803
   -51.7783 -51.5087 -51.5033 -51.5014 -51.4984 -51.4514 -51.4342 -51.4328
   -51.3984 -51.3646 -51.2962 -51.2943 -51.2801 -51.2287 -51.2271 -51.2198
   -17.2084 -17.0904 -16.9794 -16.8933 -16.8498 -16.7722 -16.7355 -16.6891
   -16.5609 -16.5296 -11.6306 -11.5114  -0.2651  -0.2089  -0.0018   0.0418
     0.2440   0.3619   0.4800   0.6750   0.7688   0.7835   0.8940   0.9272
     0.9826   1.1190   1.1753   1.3454   1.3517   1.3821   1.5289   1.6116
     1.6593   1.7621   1.8940   1.9924   2.0063   2.1692   2.2302   2.3030
     2.3910   2.5143   2.6875   2.7383   2.8555   2.9473   3.5022   3.8408
     5.7505   5.8307   5.8926   5.9324   5.9633   5.9690   6.0016   6.0309
     6.0815   6.1092   6.1158   6.1379   6.2132   6.2889   6.3400   6.3481
     6.5762   6.6922   6.7735   6.8231   6.9599   7.0352   7.1787   7.2038
     7.3055   7.3379   7.4596   7.6930   7.8159   8.1095  12.7533  12.9298
    13.3502  13.8688  14.4151  15.5866  15.7524  16.3280  17.0349  17.1391
    17.1599  17.7611  18.0834  18.4725  18.8934  19.0350  19.2619  19.6374
    19.8295  20.4052  20.5251  20.6819  20.7608  20.8425  21.1421  21.3246
    21.4171  21.6058  22.1054  22.2937  22.5917  22.5986  22.8376  23.6564
    24.1094  24.1975  24.5547  25.3164  25.6036  25.6911  26.1210  26.4345
    27.5581  28.1131  28.1293  28.1594  28.5393  28.8672  29.1238  29.2880
    29.5368  30.0597  30.2897  30.6171  30.6752  30.8601  31.3639  31.6325
    31.8179  32.4112  32.6980  32.8540  33.2966  33.5013  33.5828  33.7508
    34.2494  34.6773  34.7256  34.8002  35.0284  35.2581  35.3359  35.4031
    35.6515  35.9127  36.1087  36.3386  36.5372  36.7469  36.9454  37.0389
    37.1025  37.6254  37.8295  38.1979  38.3087  38.3819  38.6129  38.7338
    38.9862  39.2072  39.4597  39.9864  40.2497  40.3688  40.6949  40.7914
    41.1453  41.3001  41.3313  41.5883  41.7645  41.8566  42.0758  42.2086
    42.3671  42.4989  42.5943  42.6602  42.7527  42.8830  43.0833  43.3723
    43.4411  43.8475  43.9216  44.1129  44.3489  44.3970  44.6254  44.8167
    44.9505  45.3546  45.6821  45.9075  46.1683  46.3888  46.5561  46.7276
    46.8172  46.9603  47.1421  47.4964  47.6445  47.8285  48.0870  48.1418
    48.4813  48.5246  48.6218  49.0015  49.0979  49.3048  49.5680  49.6265
    49.7094  49.8052  50.1284  50.1659  50.3928  50.7545  50.8005  51.1047

     occupation numbers 
     1.0000   1.0000   1.0000   1.0000   1.0000   1.0000   1.0000   1.0000
     1.0000   1.0000   1.0000   1.0000   1.0000   1.0000   1.0000   1.0000
     1.0000   1.0000   1.0000   1.0000   1.0000   1.0000   1.0000   1.0000
     1.0000   1.0000   1.0000   1.0000   1.0000   1.0000   1.0000   1.0000
     1.0000   1.0000   1.0000   1.0000   1.0000   1.0000   1.0000   1.0000
     1.0000   1.0000   1.0000   1.0000   1.0000   1.0000   1.0000   1.0000
     1.0000   1.0000   1.0000   1.0000   1.0000   1.0000   1.0000   1.0000
     1.0000   1.0000   1.0000   1.0000   1.0000   1.0000   1.0000   1.0000
     1.0000   1.0000   1.0000   1.0000   1.0000   1.0000   1.0000   1.0000
     1.0000   1.0000   1.0000   1.0000   1.0000   1.0000   1.0000   1.0000
     1.0000   1.0000   1.0000   1.0000   1.0000   1.0000   1.0000   1.0000
     1.0000   1.0000   1.0000   1.0000   0.0000   0.0000   0.0000   0.0000
     0.0000   0.0000   0.0000   0.0000   0.0000   0.0000   0.0000   0.0000
     0.0000   0.0000   0.0000   0.0000   0.0000   0.0000   0.0000   0.0000
     0.0000   0.0000   0.0000   0.0000   0.0000   0.0000   0.0000   0.0000
     0.0000   0.0000   0.0000   0.0000   0.0000   0.0000   0.0000   0.0000
     0.0000   0.0000   0.0000   0.0000   0.0000   0.0000   0.0000   0.0000
     0.0000   0.0000   0.0000   0.0000   0.0000   0.0000   0.0000   0.0000
     0.0000   0.0000   0.0000   0.0000   0.0000   0.0000   0.0000   0.0000
     0.0000   0.0000   0.0000   0.0000   0.0000   0.0000   0.0000   0.0000
     0.0000   0.0000   0.0000   0.0000   0.0000   0.0000   0.0000   0.0000
     0.0000   0.0000   0.0000   0.0000   0.0000   0.0000   0.0000   0.0000
     0.0000   0.0000   0.0000   0.0000   0.0000   0.0000   0.0000   0.0000
     0.0000   0.0000   0.0000   0.0000   0.0000   0.0000   0.0000   0.0000
     0.0000   0.0000   0.0000   0.0000   0.0000   0.0000   0.0000   0.0000
     0.0000   0.0000   0.0000   0.0000   0.0000   0.0000   0.0000   0.0000
     0.0000   0.0000   0.0000   0.0000   0.0000   0.0000   0.0000   0.0000
     0.0000   0.0000   0.0000   0.0000   0.0000   0.0000   0.0000   0.0000
     0.0000   0.0000   0.0000   0.0000   0.0000   0.0000   0.0000   0.0000
     0.0000   0.0000   0.0000   0.0000   0.0000   0.0000   0.0000   0.0000
     0.0000   0.0000   0.0000   0.0000   0.0000   0.0000   0.0000   0.0000
     0.0000   0.0000   0.0000   0.0000   0.0000   0.0000   0.0000   0.0000

     highest occupied, lowest unoccupied level (ev):     6.9857    6.8547

!    total energy              =   -2359.77301106 Ry
     estimated scf accuracy    <       0.00000010 Ry

     The total energy is the sum of the following terms:
     one-electron contribution =   -1620.34024857 Ry
     hartree contribution      =     891.98260152 Ry
     xc contribution           =    -302.73049897 Ry
     ewald contribution        =   -1309.62313096 Ry
     one-center paw contrib.   =     -19.06173408 Ry
      -> PAW hartree energy AE =       0.00000000 Ry
      -> PAW hartree energy PS =       0.00000000 Ry
      -> PAW xc energy AE      =       0.00000000 Ry
      -> PAW xc energy PS      =       0.00000000 Ry
      -> total E_H with PAW    =     891.98260152 Ry
      -> total E_XC with PAW   =    -302.73049897 Ry

     convergence has been achieved in  28 iterations

     Writing all to output data dir bands_nm/myprefix.save/
 
     init_run     :      6.16s CPU      1.60s WALL (       1 calls)
     electrons    :    452.21s CPU    116.39s WALL (       1 calls)

     Called by init_run:
     wfcinit      :      4.44s CPU      1.14s WALL (       1 calls)
     wfcinit:atom :      0.02s CPU      0.00s WALL (       7 calls)
     wfcinit:wfcr :      4.28s CPU      1.09s WALL (       7 calls)
     potinit      :      0.37s CPU      0.09s WALL (       1 calls)
     hinit0       :      1.20s CPU      0.32s WALL (       1 calls)

     Called by electrons:
     c_bands      :    407.69s CPU    104.70s WALL (      28 calls)
     sum_band     :     38.72s CPU     10.12s WALL (      28 calls)
     v_of_rho     :      1.05s CPU      0.27s WALL (      29 calls)
     v_h          :      0.10s CPU      0.03s WALL (      29 calls)
     v_xc         :      0.95s CPU      0.25s WALL (      29 calls)
     newd         :      2.06s CPU      0.58s WALL (      29 calls)
     PAW_pot      :      2.02s CPU      0.52s WALL (      29 calls)
     mix_rho      :      0.38s CPU      0.10s WALL (      28 calls)

     Called by c_bands:
     init_us_2    :      0.53s CPU      0.17s WALL (     399 calls)
     init_us_2:cp :      0.52s CPU      0.17s WALL (     399 calls)
     cegterg      :    401.23s CPU    102.77s WALL (     196 calls)

     Called by sum_band:
     sum_band:wei :      0.01s CPU      0.00s WALL (      28 calls)
     sum_band:loo :     36.47s CPU      9.35s WALL (      28 calls)
     sum_band:buf :      0.67s CPU      0.14s WALL (     196 calls)
     sum_band:ini :      0.23s CPU      0.07s WALL (     196 calls)
     sum_band:cal :      8.42s CPU      2.11s WALL (     196 calls)
     sum_band:bec :      0.25s CPU      0.10s WALL (     196 calls)
     addusdens    :      1.66s CPU      0.62s WALL (      28 calls)
     addusd:skk   :      0.01s CPU      0.01s WALL (      84 calls)
     addusd:dgemm :      0.36s CPU      0.29s WALL (      84 calls)
     addusd:qvan2 :      1.02s CPU      0.28s WALL (      84 calls)

     Called by *egterg:
     cdiaghg      :    133.67s CPU     34.86s WALL (     465 calls)
     cegterg:over :     46.51s CPU     11.71s WALL (     269 calls)
     cegterg:upda :     23.36s CPU      5.91s WALL (     269 calls)
     cegterg:last :     31.19s CPU      7.86s WALL (     234 calls)
     cdiaghg:chol :      8.62s CPU      2.27s WALL (     465 calls)
     cdiaghg:inve :      2.97s CPU      0.77s WALL (     465 calls)
     cdiaghg:para :     30.18s CPU      8.01s WALL (     930 calls)
     h_psi        :    134.33s CPU     34.38s WALL (     472 calls)
     s_psi        :     17.54s CPU      4.39s WALL (     472 calls)
     g_psi        :      0.16s CPU      0.06s WALL (     269 calls)

     Called by h_psi:
     h_psi:calbec :     18.12s CPU      4.56s WALL (     472 calls)
     vloc_psi     :     98.71s CPU     25.33s WALL (     472 calls)
     add_vuspsi   :     16.99s CPU      4.36s WALL (     472 calls)

     General routines
     calbec       :     26.53s CPU      6.68s WALL (     668 calls)
     fft          :      0.79s CPU      0.22s WALL (     375 calls)
     ffts         :      0.05s CPU      0.01s WALL (      57 calls)
     fftw         :    118.44s CPU     25.99s WALL (  262238 calls)
     interpolate  :      0.10s CPU      0.03s WALL (      29 calls)
 
     Parallel routines

     PAW routines
     PAW_pot      :      2.02s CPU      0.52s WALL (      29 calls)
     PAW_symme    :      0.01s CPU      0.00s WALL (      57 calls)
 
     PWSCF        :   7m40.58s CPU   2m17.00s WALL

 
   This run was terminated on:  18:25:39  15Jul2023            

=------------------------------------------------------------------------------=
   JOB DONE.
=------------------------------------------------------------------------------=
