
     Program PWSCF v.7.1 starts on 15Jul2023 at 21:59:33 

     This program is part of the open-source Quantum ESPRESSO suite
     for quantum simulation of materials; please cite
         "P. Giannozzi et al., J. Phys.:Condens. Matter 21 395502 (2009);
         "P. Giannozzi et al., J. Phys.:Condens. Matter 29 465901 (2017);
         "P. Giannozzi et al., J. Chem. Phys. 152 154105 (2020);
          URL http://www.quantum-espresso.org", 
     in publications or presentations arising from this work. More details at
     http://www.quantum-espresso.org/quote

     Parallel version (MPI & OpenMP), running on      32 processor cores
     Number of MPI processes:                 8
     Threads/MPI process:                     4

     MPI processes distributed on     1 nodes
     180401 MiB available memory on the printing compute node when the environment starts
 
     Reading input from espresso_11868.pwi
Warning: card &CELL ignored
Warning: card / ignored

     Current dimensions of program PWSCF are:
     Max number of different atomic species (ntypx) = 10
     Max number of k-points (npk) =  40000
     Max angular momentum in pseudopotentials (lmaxx) =  4
     file Cu.paw.z_11.ld1.psl.v1.0.0-low.upf: wavefunction(s)  4S 3D renormalized
     Message from routine setup:
     using ibrav=0 with symmetry is DISCOURAGED, use correct ibrav instead
 
     K-points division:     npool     =       2
     R & G space division:  proc/nbgrp/npool/nimage =       4
     Subspace diagonalization in iterative solution of the eigenvalue problem:
     one sub-group per band group will be used
     scalapack distributed-memory algorithm (size of sub-group:  2*  2 procs)

 
     Parallelization info
     --------------------
     sticks:   dense  smooth     PW     G-vecs:    dense   smooth      PW
     Min         453     229     65                23357     8265    1241
     Max         454     230     66                23358     8267    1244
     Sum        1813     917    261                93429    33063    4969
 
     Using Slab Decomposition
 


     bravais-lattice index     =            0
     lattice parameter (alat)  =       7.5955  a.u.
     unit-cell volume          =    1488.7314 (a.u.)^3
     number of atoms/cell      =           12
     number of atomic types    =            3
     number of electrons       =       144.00
     number of Kohn-Sham states=          256
     kinetic-energy cutoff     =      30.0000  Ry
     charge density cutoff     =     240.0000  Ry
     scf convergence threshold =      1.0E-06
     mixing beta               =       0.7000
     number of iterations used =            8  plain     mixing
     Exchange-correlation=  SLA  PW   PBX  PBC
                           (   1   4   3   4   0   0   0)

     celldm(1)=   7.595537  celldm(2)=   0.000000  celldm(3)=   0.000000
     celldm(4)=   0.000000  celldm(5)=   0.000000  celldm(6)=   0.000000

     crystal axes: (cart. coord. in units of alat)
               a(1) = (   1.000000   0.000000   0.000000 )  
               a(2) = (   0.000000   1.647100   0.000000 )  
               a(3) = (   0.000000   0.000000   2.062628 )  

     reciprocal axes: (cart. coord. in units 2 pi/alat)
               b(1) = (  1.000000  0.000000  0.000000 )  
               b(2) = (  0.000000  0.607128  0.000000 )  
               b(3) = (  0.000000  0.000000  0.484818 )  


     PseudoPot. # 1 for Cu read from file:
     /lustre07/scratch/pragov/crystal_structure_design/utils/SSSP/Cu.paw.z_11.ld1.psl.v1.0.0-low.upf
     MD5 check sum: 619f40885d92a09a85a8b37550532d0c
     Pseudo is Projector augmented-wave + core cor, Zval = 11.0
     Generated using &quot;atomic&quot; code by A. Dal Corso  v.6.3MaX
     Shape of augmentation charge: PSQ
     Using radial grid of 1199 points,  6 beta functions with: 
                l(1) =   0
                l(2) =   0
                l(3) =   1
                l(4) =   1
                l(5) =   2
                l(6) =   2
     Q(r) pseudized with 0 coefficients 


     PseudoPot. # 2 for Ag read from file:
     /lustre07/scratch/pragov/crystal_structure_design/utils/SSSP/Ag_ONCV_PBE-1.0.oncvpsp.upf
     MD5 check sum: 94f47bd0669c641108e45594df92fabc
     Pseudo is Norm-conserving, Zval = 19.0
     Generated using ONCVPSP code by D. R. Hamann
     Using radial grid of 1398 points,  6 beta functions with: 
                l(1) =   0
                l(2) =   0
                l(3) =   1
                l(4) =   1
                l(5) =   2
                l(6) =   2

     PseudoPot. # 3 for S  read from file:
     /lustre07/scratch/pragov/crystal_structure_design/utils/SSSP/s_pbe_v1.4.uspp.F.UPF
     MD5 check sum: 88d86576ff6df21479756cfb9bdac1df
     Pseudo is Ultrasoft + core correction, Zval =  6.0
     Generated by new atomic code, or converted to UPF format
     Using radial grid of  907 points,  6 beta functions with: 
                l(1) =   0
                l(2) =   0
                l(3) =   1
                l(4) =   1
                l(5) =   2
                l(6) =   2
     Q(r) pseudized with  8 coefficients,  rinner =    1.300   1.300   1.300
                                                       1.300   1.300

     atomic species   valence    mass     pseudopotential
        Cu            11.00    63.54600     Cu( 1.00)
        Ag            19.00   107.86820     Ag( 1.00)
        S              6.00    32.06000     S ( 1.00)

      8 Sym. Ops., with inversion, found ( 6 have fractional translation)


                                    s                        frac. trans.

      isym =  1     identity                                     

 cryst.   s( 1) = (     1          0          0      )
                  (     0          1          0      )
                  (     0          0          1      )

 cart.    s( 1) = (  1.0000000  0.0000000  0.0000000 )
                  (  0.0000000  1.0000000  0.0000000 )
                  (  0.0000000  0.0000000  1.0000000 )


      isym =  2     180 deg rotation - cart. axis [0,0,1]        

 cryst.   s( 2) = (    -1          0          0      )    f =(  0.5000000 )
                  (     0         -1          0      )       (  0.5000000 )
                  (     0          0          1      )       ( -0.5000000 )

 cart.    s( 2) = ( -1.0000000  0.0000000  0.0000000 )    f =(  0.5000000 )
                  (  0.0000000 -1.0000000  0.0000000 )       (  0.8235500 )
                  (  0.0000000  0.0000000  1.0000000 )       ( -1.0313141 )


      isym =  3     180 deg rotation - cart. axis [0,1,0]        

 cryst.   s( 3) = (    -1          0          0      )    f =( -0.0000000 )
                  (     0          1          0      )       ( -0.5000000 )
                  (     0          0         -1      )       (  0.5000000 )

 cart.    s( 3) = ( -1.0000000  0.0000000  0.0000000 )    f =( -0.0000000 )
                  (  0.0000000  1.0000000  0.0000000 )       ( -0.8235500 )
                  (  0.0000000  0.0000000 -1.0000000 )       (  1.0313141 )


      isym =  4     180 deg rotation - cart. axis [1,0,0]        

 cryst.   s( 4) = (     1          0          0      )    f =(  0.5000000 )
                  (     0         -1          0      )       (  0.0000000 )
                  (     0          0         -1      )       (  0.0000000 )

 cart.    s( 4) = (  1.0000000  0.0000000  0.0000000 )    f =(  0.5000000 )
                  (  0.0000000 -1.0000000  0.0000000 )       (  0.0000000 )
                  (  0.0000000  0.0000000 -1.0000000 )       (  0.0000000 )


      isym =  5     inversion                                    

 cryst.   s( 5) = (    -1          0          0      )
                  (     0         -1          0      )
                  (     0          0         -1      )

 cart.    s( 5) = ( -1.0000000  0.0000000  0.0000000 )
                  (  0.0000000 -1.0000000  0.0000000 )
                  (  0.0000000  0.0000000 -1.0000000 )


      isym =  6     inv. 180 deg rotation - cart. axis [0,0,1]   

 cryst.   s( 6) = (     1          0          0      )    f =(  0.5000000 )
                  (     0          1          0      )       ( -0.5000000 )
                  (     0          0         -1      )       (  0.5000000 )

 cart.    s( 6) = (  1.0000000  0.0000000  0.0000000 )    f =(  0.5000000 )
                  (  0.0000000  1.0000000  0.0000000 )       ( -0.8235500 )
                  (  0.0000000  0.0000000 -1.0000000 )       (  1.0313141 )


      isym =  7     inv. 180 deg rotation - cart. axis [0,1,0]   

 cryst.   s( 7) = (     1          0          0      )    f =(  0.0000000 )
                  (     0         -1          0      )       (  0.5000000 )
                  (     0          0          1      )       ( -0.5000000 )

 cart.    s( 7) = (  1.0000000  0.0000000  0.0000000 )    f =(  0.0000000 )
                  (  0.0000000 -1.0000000  0.0000000 )       (  0.8235500 )
                  (  0.0000000  0.0000000  1.0000000 )       ( -1.0313141 )


      isym =  8     inv. 180 deg rotation - cart. axis [1,0,0]   

 cryst.   s( 8) = (    -1          0          0      )    f =(  0.5000000 )
                  (     0          1          0      )       (  0.0000000 )
                  (     0          0          1      )       (  0.0000000 )

 cart.    s( 8) = ( -1.0000000  0.0000000  0.0000000 )    f =(  0.5000000 )
                  (  0.0000000  1.0000000  0.0000000 )       (  0.0000000 )
                  (  0.0000000  0.0000000  1.0000000 )       (  0.0000000 )


   Cartesian axes

     site n.     atom                  positions (alat units)
         1           Cu  tau(   1) = (   0.7500000   0.4895576   0.4923947  )
         2           Cu  tau(   2) = (   0.7500000   0.3339923   1.5237089  )
         3           Cu  tau(   3) = (   0.2500000   1.3131076   0.5389194  )
         4           Cu  tau(   4) = (   0.2500000   1.1575423   1.5702335  )
         5           Ag  tau(   5) = (   0.2500000   0.5315175   2.0330543  )
         6           Ag  tau(   6) = (   0.2500000   0.2920325   1.0017402  )
         7           Ag  tau(   7) = (   0.7500000   1.3550675   1.0608881  )
         8           Ag  tau(   8) = (   0.7500000   1.1155825   0.0295740  )
         9           S   tau(   9) = (   0.2500000   0.0903385   1.5896387  )
        10           S   tau(  10) = (   0.2500000   0.7332115   0.5583246  )
        11           S   tau(  11) = (   0.7500000   0.9138885   1.5043037  )
        12           S   tau(  12) = (   0.7500000   1.5567615   0.4729895  )

   Crystallographic axes

     site n.     atom                  positions (cryst. coord.)
         1           Cu  tau(   1) = (  0.7500000  0.2972240  0.2387220  )
         2           Cu  tau(   2) = (  0.7500000  0.2027760  0.7387220  )
         3           Cu  tau(   3) = (  0.2500000  0.7972240  0.2612780  )
         4           Cu  tau(   4) = (  0.2500000  0.7027760  0.7612780  )
         5           Ag  tau(   5) = (  0.2500000  0.3226990  0.9856620  )
         6           Ag  tau(   6) = (  0.2500000  0.1773010  0.4856620  )
         7           Ag  tau(   7) = (  0.7500000  0.8226990  0.5143380  )
         8           Ag  tau(   8) = (  0.7500000  0.6773010  0.0143380  )
         9           S   tau(   9) = (  0.2500000  0.0548470  0.7706860  )
        10           S   tau(  10) = (  0.2500000  0.4451530  0.2706860  )
        11           S   tau(  11) = (  0.7500000  0.5548470  0.7293140  )
        12           S   tau(  12) = (  0.7500000  0.9451530  0.2293140  )

     number of k points=     8
                       cart. coord. in units 2pi/alat
        k(    1) = (   0.0000000   0.0000000   0.0000000), wk =   0.0740741
        k(    2) = (   0.0000000   0.0000000   0.1616061), wk =   0.1481481
        k(    3) = (   0.0000000   0.2023759   0.0000000), wk =   0.1481481
        k(    4) = (   0.0000000   0.2023759   0.1616061), wk =   0.2962963
        k(    5) = (   0.3333333   0.0000000   0.0000000), wk =   0.1481481
        k(    6) = (   0.3333333   0.0000000   0.1616061), wk =   0.2962963
        k(    7) = (   0.3333333   0.2023759   0.0000000), wk =   0.2962963
        k(    8) = (   0.3333333   0.2023759   0.1616061), wk =   0.5925926

                       cryst. coord.
        k(    1) = (   0.0000000   0.0000000   0.0000000), wk =   0.0740741
        k(    2) = (   0.0000000   0.0000000   0.3333333), wk =   0.1481481
        k(    3) = (   0.0000000   0.3333333   0.0000000), wk =   0.1481481
        k(    4) = (   0.0000000   0.3333333   0.3333333), wk =   0.2962963
        k(    5) = (   0.3333333   0.0000000   0.0000000), wk =   0.1481481
        k(    6) = (   0.3333333   0.0000000   0.3333333), wk =   0.2962963
        k(    7) = (   0.3333333   0.3333333   0.0000000), wk =   0.2962963
        k(    8) = (   0.3333333   0.3333333   0.3333333), wk =   0.5925926

     Dense  grid:    93429 G-vectors     FFT dimensions: (  40,  64,  80)

     Smooth grid:    33063 G-vectors     FFT dimensions: (  30,  48,  60)

     Dynamical RAM for                 wfc:       4.03 MB

     Dynamical RAM for     wfc (w. buffer):      20.16 MB

     Dynamical RAM for           str. fact:       1.07 MB

     Dynamical RAM for           local pot:       0.00 MB

     Dynamical RAM for          nlocal pot:       3.40 MB

     Dynamical RAM for                qrad:       3.73 MB

     Dynamical RAM for          rho,v,vnew:       2.24 MB

     Dynamical RAM for               rhoin:       0.75 MB

     Dynamical RAM for            rho*nmix:       5.70 MB

     Dynamical RAM for           G-vectors:       1.40 MB

     Dynamical RAM for          h,s,v(r/c):       3.00 MB

     Dynamical RAM for          <psi|beta>:       0.84 MB

     Dynamical RAM for                 psi:       8.06 MB

     Dynamical RAM for                hpsi:       8.06 MB

     Dynamical RAM for                spsi:       8.06 MB

     Dynamical RAM for      wfcinit/wfcrot:       9.56 MB

     Dynamical RAM for           addusdens:      34.03 MB

     Estimated static dynamical RAM per process >      36.13 MB

     Estimated max dynamical RAM per process >      75.86 MB

     Estimated total dynamical RAM >     584.09 MB

     Check: negative core charge=   -0.000003

     Initial potential from superposition of free atoms

     starting charge     143.9978, renormalised to     144.0000
     Starting wfcs are   92 randomized atomic wfcs +  164 random wfcs
     Checking if some PAW data can be deallocated... 
       PAW data deallocated on    6 nodes for type:  1

     total cpu time spent up to now is        1.7 secs

     Self-consistent Calculation

     iteration #  1     ecut=    30.00 Ry     beta= 0.70
     Davidson diagonalization with overlap

---- Real-time Memory Report at c_bands before calling an iterative solver
           241 MiB given to the printing process from OS
             0 MiB allocation reported by mallinfo(arena+hblkhd)
        179782 MiB available memory on the node where the printing process lives
------------------
     ethr =  1.00E-02,  avg # of iterations =  7.0

     Threshold (ethr) on eigenvalues was too large:
     Diagonalizing with lowered threshold

     Davidson diagonalization with overlap

---- Real-time Memory Report at c_bands before calling an iterative solver
           300 MiB given to the printing process from OS
             0 MiB allocation reported by mallinfo(arena+hblkhd)
        179447 MiB available memory on the node where the printing process lives
------------------
     ethr =  2.66E-04,  avg # of iterations =  1.1

     total cpu time spent up to now is       11.4 secs

     total energy              =   -2097.01370103 Ry
     estimated scf accuracy    <       0.38261609 Ry

     iteration #  2     ecut=    30.00 Ry     beta= 0.70
     Davidson diagonalization with overlap

---- Real-time Memory Report at c_bands before calling an iterative solver
           306 MiB given to the printing process from OS
             0 MiB allocation reported by mallinfo(arena+hblkhd)
        179260 MiB available memory on the node where the printing process lives
------------------
     ethr =  2.66E-04,  avg # of iterations =  2.0

     total cpu time spent up to now is       14.3 secs

     total energy              =   -2096.94959093 Ry
     estimated scf accuracy    <       1.04453603 Ry

     iteration #  3     ecut=    30.00 Ry     beta= 0.70
     Davidson diagonalization with overlap

---- Real-time Memory Report at c_bands before calling an iterative solver
           314 MiB given to the printing process from OS
             0 MiB allocation reported by mallinfo(arena+hblkhd)
        179265 MiB available memory on the node where the printing process lives
------------------
     ethr =  2.66E-04,  avg # of iterations =  2.0

     total cpu time spent up to now is       17.3 secs

     total energy              =   -2097.14413223 Ry
     estimated scf accuracy    <       0.06768764 Ry

     iteration #  4     ecut=    30.00 Ry     beta= 0.70
     Davidson diagonalization with overlap

---- Real-time Memory Report at c_bands before calling an iterative solver
           314 MiB given to the printing process from OS
             0 MiB allocation reported by mallinfo(arena+hblkhd)
        179235 MiB available memory on the node where the printing process lives
------------------
     ethr =  4.70E-05,  avg # of iterations =  1.0

     total cpu time spent up to now is       19.7 secs

     total energy              =   -2097.15689041 Ry
     estimated scf accuracy    <       0.00888518 Ry

     iteration #  5     ecut=    30.00 Ry     beta= 0.70
     Davidson diagonalization with overlap

---- Real-time Memory Report at c_bands before calling an iterative solver
           314 MiB given to the printing process from OS
             0 MiB allocation reported by mallinfo(arena+hblkhd)
        179255 MiB available memory on the node where the printing process lives
------------------
     ethr =  6.17E-06,  avg # of iterations =  2.0

     total cpu time spent up to now is       22.5 secs

     total energy              =   -2097.15837693 Ry
     estimated scf accuracy    <       0.00052881 Ry

     iteration #  6     ecut=    30.00 Ry     beta= 0.70
     Davidson diagonalization with overlap

---- Real-time Memory Report at c_bands before calling an iterative solver
           314 MiB given to the printing process from OS
             0 MiB allocation reported by mallinfo(arena+hblkhd)
        179307 MiB available memory on the node where the printing process lives
------------------
     c_bands:  1 eigenvalues not converged
     ethr =  3.67E-07,  avg # of iterations =  6.4

     total cpu time spent up to now is       26.5 secs

     total energy              =   -2097.15851135 Ry
     estimated scf accuracy    <       0.00001604 Ry

     iteration #  7     ecut=    30.00 Ry     beta= 0.70
     Davidson diagonalization with overlap

---- Real-time Memory Report at c_bands before calling an iterative solver
           322 MiB given to the printing process from OS
             0 MiB allocation reported by mallinfo(arena+hblkhd)
        179246 MiB available memory on the node where the printing process lives
------------------
     ethr =  1.11E-08,  avg # of iterations =  2.9

     total cpu time spent up to now is       29.6 secs

     End of self-consistent calculation

          k = 0.0000 0.0000 0.0000 (  4131 PWs)   bands (ev):

   -82.9359 -82.9359 -82.9342 -82.9342 -46.0665 -46.0659 -46.0598 -46.0581
   -45.9616 -45.9613 -45.9478 -45.9461 -45.9136 -45.9112 -45.8994 -45.8983
    -3.9415  -3.6083  -3.2446  -3.1321   3.5599   3.5641   3.9795   4.4225
     4.6145   4.8090   4.8210   5.1140   5.2260   5.2614   5.3516   5.3904
     5.4434   5.4644   5.6477   5.7048   5.7963   5.8283   5.9051   5.9374
     5.9551   6.1800   6.3224   6.3583   6.3699   6.3933   6.5155   6.5408
     6.5424   6.9911   7.4039   7.5160   7.5491   7.7242   7.7264   7.8059
     7.8136   7.8235   7.8750   7.9548   8.0941   8.1153   8.1214   8.1764
     8.3229   8.4706   8.5217   9.1196   9.6409  10.0306  10.2154  10.3240
    10.9013  11.7946  11.8007  12.3026  13.2991  14.0087  14.3378  14.4323
    14.6459  15.4331  15.5328  15.7408  16.0967  16.2589  16.6277  16.8894
    16.9144  17.6324  18.3845  18.3886  19.6381  19.8727  20.0533  20.0864
    20.1244  20.5477  20.6320  20.9759  21.2323  21.6586  21.7634  21.8738
    21.9174  22.1845  23.3293  23.4869  23.7492  23.8647  23.9381  24.2090
    24.2505  24.5743  24.6836  25.0391  25.2894  25.3410  25.5882  26.4172
    26.4802  26.5508  27.1350  27.1577  27.4309  27.7340  28.2880  28.7992
    29.9505  30.0273  30.1570  30.3307  30.3801  30.5117  30.8148  31.3205
    31.3788  31.7330  31.8637  32.5093  32.8445  32.8739  33.0420  33.1495
    33.1800  33.2904  33.4697  33.9648  34.2901  34.3060  34.3128  34.8472
    34.9813  35.4728  35.5458  35.7505  35.8826  36.6370  36.7077  36.7882
    37.0550  37.1027  37.1270  37.1865  37.4519  37.6372  38.0507  38.3922
    38.3976  38.4395  38.9872  39.0693  39.0709  39.4607  39.5325  39.7936
    40.1267  40.5645  40.6283  40.6975  40.8430  40.8780  41.2004  41.2789
    41.5963  42.1316  42.2089  42.5299  42.7334  43.2075  43.6361  43.6627
    43.8208  44.0580  44.1926  44.2720  44.4912  44.8139  44.8198  44.8541
    44.8933  45.2205  45.5259  45.7443  45.8048  46.3120  46.5114  46.6486
    46.7511  46.7928  47.1034  47.1927  47.4225  47.4718  47.4750  48.1296
    48.1365  48.3137  48.3789  48.4308  48.4667  48.8177  48.8926  48.9035
    49.0523  49.1090  49.7947  49.8572  49.9213  49.9259  50.3978  50.4396
    50.6186  50.7283  50.8620  50.9058  51.3096  51.3899  51.4268  51.4742
    51.6925  51.7457  52.2500  52.4725  52.5001  52.6902  52.8283  52.9013
    52.9302  53.1905  53.2543  53.3182  53.5089  54.0716  54.3950  54.4736

     occupation numbers 
     1.0000   1.0000   1.0000   1.0000   1.0000   1.0000   1.0000   1.0000
     1.0000   1.0000   1.0000   1.0000   1.0000   1.0000   1.0000   1.0000
     1.0000   1.0000   1.0000   1.0000   1.0000   1.0000   1.0000   1.0000
     1.0000   1.0000   1.0000   1.0000   1.0000   1.0000   1.0000   1.0000
     1.0000   1.0000   1.0000   1.0000   1.0000   1.0000   1.0000   1.0000
     1.0000   1.0000   1.0000   1.0000   1.0000   1.0000   1.0000   1.0000
     1.0000   1.0000   1.0000   1.0000   1.0000   1.0000   1.0000   1.0000
     1.0000   1.0000   1.0000   1.0000   1.0000   1.0000   1.0000   1.0000
     1.0000   1.0000   1.0000   1.0000   1.0000   1.0000   1.0000   1.0000
     0.0000   0.0000   0.0000   0.0000   0.0000   0.0000   0.0000   0.0000
     0.0000   0.0000   0.0000   0.0000   0.0000   0.0000   0.0000   0.0000
     0.0000   0.0000   0.0000   0.0000   0.0000   0.0000   0.0000   0.0000
     0.0000   0.0000   0.0000   0.0000   0.0000   0.0000   0.0000   0.0000
     0.0000   0.0000   0.0000   0.0000   0.0000   0.0000   0.0000   0.0000
     0.0000   0.0000   0.0000   0.0000   0.0000   0.0000   0.0000   0.0000
     0.0000   0.0000   0.0000   0.0000   0.0000   0.0000   0.0000   0.0000
     0.0000   0.0000   0.0000   0.0000   0.0000   0.0000   0.0000   0.0000
     0.0000   0.0000   0.0000   0.0000   0.0000   0.0000   0.0000   0.0000
     0.0000   0.0000   0.0000   0.0000   0.0000   0.0000   0.0000   0.0000
     0.0000   0.0000   0.0000   0.0000   0.0000   0.0000   0.0000   0.0000
     0.0000   0.0000   0.0000   0.0000   0.0000   0.0000   0.0000   0.0000
     0.0000   0.0000   0.0000   0.0000   0.0000   0.0000   0.0000   0.0000
     0.0000   0.0000   0.0000   0.0000   0.0000   0.0000   0.0000   0.0000
     0.0000   0.0000   0.0000   0.0000   0.0000   0.0000   0.0000   0.0000
     0.0000   0.0000   0.0000   0.0000   0.0000   0.0000   0.0000   0.0000
     0.0000   0.0000   0.0000   0.0000   0.0000   0.0000   0.0000   0.0000
     0.0000   0.0000   0.0000   0.0000   0.0000   0.0000   0.0000   0.0000
     0.0000   0.0000   0.0000   0.0000   0.0000   0.0000   0.0000   0.0000
     0.0000   0.0000   0.0000   0.0000   0.0000   0.0000   0.0000   0.0000
     0.0000   0.0000   0.0000   0.0000   0.0000   0.0000   0.0000   0.0000
     0.0000   0.0000   0.0000   0.0000   0.0000   0.0000   0.0000   0.0000
     0.0000   0.0000   0.0000   0.0000   0.0000   0.0000   0.0000   0.0000

          k = 0.0000 0.0000 0.1616 (  4131 PWs)   bands (ev):

   -82.9359 -82.9359 -82.9342 -82.9342 -46.0673 -46.0645 -46.0587 -46.0579
   -45.9630 -45.9627 -45.9484 -45.9481 -45.9119 -45.9086 -45.8990 -45.8990
    -3.8638  -3.6978  -3.2167  -3.1604   3.6529   3.7774   4.0962   4.3889
     4.6857   4.7540   4.8298   4.9603   4.9812   5.0197   5.0978   5.2451
     5.3699   5.4386   5.7598   5.8053   5.8514   5.9017   5.9406   6.0435
     6.1376   6.1446   6.2645   6.3197   6.4204   6.4423   6.5324   6.6325
     6.7463   6.8277   7.0932   7.4940   7.6699   7.6786   7.7155   7.8154
     7.8797   7.8892   7.9183   7.9403   7.9433   8.0061   8.0541   8.1356
     8.5680   8.6031   8.6761   8.9755  10.0039  10.1152  10.1858  10.2625
    11.0845  11.5046  12.0130  12.6312  12.6814  13.2012  13.7778  13.9609
    15.4323  15.6948  15.7623  16.1383  16.4056  16.4638  16.4872  16.8704
    17.0910  17.4949  17.9549  18.7303  19.7905  19.9446  20.0146  20.0653
    20.2171  20.5415  20.7891  21.1859  21.6327  21.6338  21.8321  22.1894
    22.2363  22.4377  22.8899  22.9787  23.1604  23.2827  23.4276  23.5936
    23.8105  23.8839  24.1378  24.6175  25.1004  25.2944  26.1814  26.2598
    26.8312  27.6521  27.8272  27.8941  28.2423  28.4275  28.7743  29.1563
    29.1655  29.1685  30.2297  30.6294  30.6578  30.6802  30.8396  31.3651
    31.3812  31.5875  31.8906  32.0475  32.1601  32.2528  32.7899  33.0499
    33.4923  33.6218  33.8864  33.9323  34.0716  34.4871  34.6788  34.7960
    34.8906  34.9390  35.5308  35.6890  35.8547  36.0645  36.5191  36.6872
    36.7727  37.0361  37.2315  37.6051  37.8059  37.9535  38.1202  38.2354
    38.3240  38.3771  39.1453  39.1956  39.2515  39.5438  39.5772  39.9591
    40.0008  40.0563  40.3673  40.7111  40.9884  41.0480  41.2136  41.2874
    41.8864  42.3802  42.3986  42.4289  42.5909  43.0819  43.3608  43.7193
    44.0682  44.2673  44.2810  44.3348  44.6964  44.8844  44.9412  45.1143
    45.1346  45.2473  45.3252  45.7149  45.7656  45.7735  45.9062  45.9789
    46.3073  46.4665  46.6834  46.7928  47.1078  47.2526  47.5623  47.7314
    47.9686  48.0398  48.1292  48.1378  48.4282  48.8060  48.8965  48.9928
    49.0457  49.7523  49.9234  49.9738  50.1291  50.2695  50.3399  50.4418
    50.5543  50.8432  51.1759  51.2131  51.6956  51.7606  51.8280  51.9001
    52.3110  52.3440  52.6410  52.6835  52.8485  53.0204  53.1552  53.3050
    53.4913  53.7047  53.8834  53.9019  54.2262  54.3343  54.3554  54.4507

     occupation numbers 
     1.0000   1.0000   1.0000   1.0000   1.0000   1.0000   1.0000   1.0000
     1.0000   1.0000   1.0000   1.0000   1.0000   1.0000   1.0000   1.0000
     1.0000   1.0000   1.0000   1.0000   1.0000   1.0000   1.0000   1.0000
     1.0000   1.0000   1.0000   1.0000   1.0000   1.0000   1.0000   1.0000
     1.0000   1.0000   1.0000   1.0000   1.0000   1.0000   1.0000   1.0000
     1.0000   1.0000   1.0000   1.0000   1.0000   1.0000   1.0000   1.0000
     1.0000   1.0000   1.0000   1.0000   1.0000   1.0000   1.0000   1.0000
     1.0000   1.0000   1.0000   1.0000   1.0000   1.0000   1.0000   1.0000
     1.0000   1.0000   1.0000   1.0000   1.0000   1.0000   1.0000   1.0000
     0.0000   0.0000   0.0000   0.0000   0.0000   0.0000   0.0000   0.0000
     0.0000   0.0000   0.0000   0.0000   0.0000   0.0000   0.0000   0.0000
     0.0000   0.0000   0.0000   0.0000   0.0000   0.0000   0.0000   0.0000
     0.0000   0.0000   0.0000   0.0000   0.0000   0.0000   0.0000   0.0000
     0.0000   0.0000   0.0000   0.0000   0.0000   0.0000   0.0000   0.0000
     0.0000   0.0000   0.0000   0.0000   0.0000   0.0000   0.0000   0.0000
     0.0000   0.0000   0.0000   0.0000   0.0000   0.0000   0.0000   0.0000
     0.0000   0.0000   0.0000   0.0000   0.0000   0.0000   0.0000   0.0000
     0.0000   0.0000   0.0000   0.0000   0.0000   0.0000   0.0000   0.0000
     0.0000   0.0000   0.0000   0.0000   0.0000   0.0000   0.0000   0.0000
     0.0000   0.0000   0.0000   0.0000   0.0000   0.0000   0.0000   0.0000
     0.0000   0.0000   0.0000   0.0000   0.0000   0.0000   0.0000   0.0000
     0.0000   0.0000   0.0000   0.0000   0.0000   0.0000   0.0000   0.0000
     0.0000   0.0000   0.0000   0.0000   0.0000   0.0000   0.0000   0.0000
     0.0000   0.0000   0.0000   0.0000   0.0000   0.0000   0.0000   0.0000
     0.0000   0.0000   0.0000   0.0000   0.0000   0.0000   0.0000   0.0000
     0.0000   0.0000   0.0000   0.0000   0.0000   0.0000   0.0000   0.0000
     0.0000   0.0000   0.0000   0.0000   0.0000   0.0000   0.0000   0.0000
     0.0000   0.0000   0.0000   0.0000   0.0000   0.0000   0.0000   0.0000
     0.0000   0.0000   0.0000   0.0000   0.0000   0.0000   0.0000   0.0000
     0.0000   0.0000   0.0000   0.0000   0.0000   0.0000   0.0000   0.0000
     0.0000   0.0000   0.0000   0.0000   0.0000   0.0000   0.0000   0.0000
     0.0000   0.0000   0.0000   0.0000   0.0000   0.0000   0.0000   0.0000

          k = 0.0000 0.2024 0.0000 (  4114 PWs)   bands (ev):

   -82.9359 -82.9359 -82.9342 -82.9341 -46.0651 -46.0650 -46.0577 -46.0573
   -45.9613 -45.9583 -45.9460 -45.9457 -45.9106 -45.9099 -45.8983 -45.8976
    -3.7873  -3.4943  -3.4442  -3.2538   3.6212   3.9021   3.9883   4.4952
     4.6476   4.8531   4.8732   4.9984   5.2330   5.2441   5.2860   5.3634
     5.3814   5.4535   5.5388   5.5829   5.6717   5.7002   5.9368   5.9972
     6.0055   6.1940   6.2049   6.2615   6.3907   6.4457   6.4522   6.4660
     6.6257   6.8178   7.5112   7.5586   7.5849   7.6896   7.6995   7.7277
     7.8693   7.9156   7.9767   8.1007   8.1224   8.1225   8.1456   8.4482
     8.4950   8.6641   8.8099   9.2263   9.4214   9.5701   9.6881  10.0145
    11.1157  11.6462  12.4960  13.0000  13.3992  13.6445  14.0107  14.5276
    14.7230  15.3197  15.3495  15.8136  16.2542  16.2905  16.7587  16.8590
    17.3434  17.3685  17.6904  18.5764  18.8195  19.2874  19.7050  19.8603
    20.1116  20.7371  20.9232  20.9342  21.3078  21.3751  22.0290  22.1467
    22.2221  22.3187  22.6007  22.6299  22.7868  23.0543  24.1877  24.7403
    24.7575  25.1565  25.3656  26.0121  26.3885  26.4042  26.6225  26.8679
    27.1963  27.2811  27.5532  27.6585  28.2028  28.6068  28.6955  28.8317
    28.8847  29.1883  29.2578  29.7665  29.7723  29.9493  30.2167  30.9868
    31.3366  31.3891  31.5067  31.6810  31.8089  32.1128  32.1920  32.4879
    32.6136  32.7228  33.3099  33.3405  34.0529  34.1638  34.4576  34.6330
    34.6505  35.2603  35.5223  35.6342  35.8256  36.6368  36.7569  36.7878
    37.2308  37.2572  37.2573  37.3809  37.5971  38.3534  38.5304  38.6782
    38.7477  39.1734  39.2676  39.3615  39.6381  39.7889  40.1503  40.4905
    40.5300  40.6983  40.7994  40.9489  40.9660  41.6947  41.7830  41.8447
    42.0235  42.1364  42.5967  42.8154  42.8888  42.8988  43.1490  43.4934
    43.9983  44.1355  44.4224  44.5091  44.9160  44.9526  44.9676  45.1579
    45.2128  45.2194  45.6309  45.7219  45.8012  45.9128  46.2401  46.3349
    46.3922  46.4028  46.9126  46.9153  47.0525  47.0807  47.1666  47.4025
    47.4297  47.6958  47.9057  48.0841  48.2784  48.4892  48.8807  48.8828
    48.9337  49.0013  49.2192  49.7881  49.9089  50.0015  50.0606  50.2893
    50.3348  50.3568  50.6325  51.0548  51.2181  51.3766  51.6382  51.7705
    51.8390  51.8663  51.9050  52.3566  52.6719  52.9839  53.2465  53.3454
    53.5864  53.6997  53.7641  53.8726  53.9439  54.1097  54.3151  54.3165

     occupation numbers 
     1.0000   1.0000   1.0000   1.0000   1.0000   1.0000   1.0000   1.0000
     1.0000   1.0000   1.0000   1.0000   1.0000   1.0000   1.0000   1.0000
     1.0000   1.0000   1.0000   1.0000   1.0000   1.0000   1.0000   1.0000
     1.0000   1.0000   1.0000   1.0000   1.0000   1.0000   1.0000   1.0000
     1.0000   1.0000   1.0000   1.0000   1.0000   1.0000   1.0000   1.0000
     1.0000   1.0000   1.0000   1.0000   1.0000   1.0000   1.0000   1.0000
     1.0000   1.0000   1.0000   1.0000   1.0000   1.0000   1.0000   1.0000
     1.0000   1.0000   1.0000   1.0000   1.0000   1.0000   1.0000   1.0000
     1.0000   1.0000   1.0000   1.0000   1.0000   1.0000   1.0000   1.0000
     0.0000   0.0000   0.0000   0.0000   0.0000   0.0000   0.0000   0.0000
     0.0000   0.0000   0.0000   0.0000   0.0000   0.0000   0.0000   0.0000
     0.0000   0.0000   0.0000   0.0000   0.0000   0.0000   0.0000   0.0000
     0.0000   0.0000   0.0000   0.0000   0.0000   0.0000   0.0000   0.0000
     0.0000   0.0000   0.0000   0.0000   0.0000   0.0000   0.0000   0.0000
     0.0000   0.0000   0.0000   0.0000   0.0000   0.0000   0.0000   0.0000
     0.0000   0.0000   0.0000   0.0000   0.0000   0.0000   0.0000   0.0000
     0.0000   0.0000   0.0000   0.0000   0.0000   0.0000   0.0000   0.0000
     0.0000   0.0000   0.0000   0.0000   0.0000   0.0000   0.0000   0.0000
     0.0000   0.0000   0.0000   0.0000   0.0000   0.0000   0.0000   0.0000
     0.0000   0.0000   0.0000   0.0000   0.0000   0.0000   0.0000   0.0000
     0.0000   0.0000   0.0000   0.0000   0.0000   0.0000   0.0000   0.0000
     0.0000   0.0000   0.0000   0.0000   0.0000   0.0000   0.0000   0.0000
     0.0000   0.0000   0.0000   0.0000   0.0000   0.0000   0.0000   0.0000
     0.0000   0.0000   0.0000   0.0000   0.0000   0.0000   0.0000   0.0000
     0.0000   0.0000   0.0000   0.0000   0.0000   0.0000   0.0000   0.0000
     0.0000   0.0000   0.0000   0.0000   0.0000   0.0000   0.0000   0.0000
     0.0000   0.0000   0.0000   0.0000   0.0000   0.0000   0.0000   0.0000
     0.0000   0.0000   0.0000   0.0000   0.0000   0.0000   0.0000   0.0000
     0.0000   0.0000   0.0000   0.0000   0.0000   0.0000   0.0000   0.0000
     0.0000   0.0000   0.0000   0.0000   0.0000   0.0000   0.0000   0.0000
     0.0000   0.0000   0.0000   0.0000   0.0000   0.0000   0.0000   0.0000
     0.0000   0.0000   0.0000   0.0000   0.0000   0.0000   0.0000   0.0000

          k = 0.0000 0.2024 0.1616 (  4158 PWs)   bands (ev):

   -82.9360 -82.9360 -82.9342 -82.9342 -46.0680 -46.0664 -46.0605 -46.0597
   -45.9629 -45.9625 -45.9490 -45.9487 -45.9132 -45.9115 -45.9002 -45.8995
    -3.7186  -3.5723  -3.3981  -3.3030   3.8265   3.9557   4.0645   4.3882
     4.7196   4.7672   4.8596   4.8737   4.9439   5.0770   5.0849   5.1965
     5.3741   5.4186   5.6306   5.7397   5.7719   5.8510   5.9964   6.0175
     6.0859   6.1154   6.2331   6.3039   6.3607   6.5120   6.5689   6.6404
     6.6667   6.7541   6.9980   7.2466   7.7007   7.7726   7.7727   7.8018
     7.8263   7.8795   7.9709   7.9958   8.0159   8.0647   8.3005   8.3929
     8.4489   8.5811   8.9872   9.2697   9.3479   9.5705   9.7019   9.9134
    11.5650  11.7837  12.5981  12.7905  13.2579  13.4637  13.7302  14.2017
    15.1341  15.3702  15.6512  16.0612  16.2176  16.5755  16.6655  16.9456
    17.0745  17.3634  17.3721  18.0976  19.0401  19.4900  19.6836  19.9022
    19.9923  20.2156  20.4260  20.8112  21.2341  21.8278  22.1901  22.4094
    22.4861  22.6715  22.8055  23.1063  23.2188  23.6303  24.1598  24.1693
    24.6837  25.1094  25.3185  25.5982  25.9530  26.1823  26.5248  26.6280
    26.7666  27.2634  27.4044  27.5434  27.9590  28.0523  28.0819  28.4198
    28.7748  29.1255  29.5247  29.7434  29.8112  30.5348  31.0913  31.1999
    31.4173  31.5221  31.7782  31.8036  31.9433  32.3819  32.5030  32.7739
    32.9380  33.2601  33.7821  33.9266  34.0981  34.1680  34.4809  34.7158
    34.7844  34.9790  35.1097  35.2129  35.9188  36.2381  36.2384  36.7516
    37.1520  37.2506  37.3352  37.5789  37.9102  37.9716  38.2911  38.4291
    38.8270  38.9719  39.2446  39.3429  39.6380  39.6741  39.7593  39.8492
    40.1605  40.4973  40.6227  40.9923  41.0202  41.2199  41.4788  41.7211
    41.9257  42.0996  42.3882  42.4375  42.8919  43.0749  43.4335  43.7064
    43.9060  43.9982  44.2253  44.4659  44.7726  44.8939  45.0267  45.2008
    45.4062  45.4158  45.4399  45.8576  45.9347  45.9689  46.2017  46.3100
    46.4884  46.6358  46.6718  47.0458  47.1604  47.2842  47.3959  47.7485
    47.9029  47.9593  47.9732  48.3176  48.6177  48.7374  48.9908  48.9946
    49.2870  49.3476  49.5260  49.8047  50.0572  50.1288  50.1352  50.3647
    50.6750  50.7860  50.9017  51.0761  51.2638  51.5625  51.6033  51.7414
    51.7861  52.0442  52.0478  52.2214  52.5098  52.6847  52.8301  53.1300
    53.3541  53.7619  53.8934  54.0293  54.0511  54.3447  54.4491  54.5720

     occupation numbers 
     1.0000   1.0000   1.0000   1.0000   1.0000   1.0000   1.0000   1.0000
     1.0000   1.0000   1.0000   1.0000   1.0000   1.0000   1.0000   1.0000
     1.0000   1.0000   1.0000   1.0000   1.0000   1.0000   1.0000   1.0000
     1.0000   1.0000   1.0000   1.0000   1.0000   1.0000   1.0000   1.0000
     1.0000   1.0000   1.0000   1.0000   1.0000   1.0000   1.0000   1.0000
     1.0000   1.0000   1.0000   1.0000   1.0000   1.0000   1.0000   1.0000
     1.0000   1.0000   1.0000   1.0000   1.0000   1.0000   1.0000   1.0000
     1.0000   1.0000   1.0000   1.0000   1.0000   1.0000   1.0000   1.0000
     1.0000   1.0000   1.0000   1.0000   1.0000   1.0000   1.0000   1.0000
     0.0000   0.0000   0.0000   0.0000   0.0000   0.0000   0.0000   0.0000
     0.0000   0.0000   0.0000   0.0000   0.0000   0.0000   0.0000   0.0000
     0.0000   0.0000   0.0000   0.0000   0.0000   0.0000   0.0000   0.0000
     0.0000   0.0000   0.0000   0.0000   0.0000   0.0000   0.0000   0.0000
     0.0000   0.0000   0.0000   0.0000   0.0000   0.0000   0.0000   0.0000
     0.0000   0.0000   0.0000   0.0000   0.0000   0.0000   0.0000   0.0000
     0.0000   0.0000   0.0000   0.0000   0.0000   0.0000   0.0000   0.0000
     0.0000   0.0000   0.0000   0.0000   0.0000   0.0000   0.0000   0.0000
     0.0000   0.0000   0.0000   0.0000   0.0000   0.0000   0.0000   0.0000
     0.0000   0.0000   0.0000   0.0000   0.0000   0.0000   0.0000   0.0000
     0.0000   0.0000   0.0000   0.0000   0.0000   0.0000   0.0000   0.0000
     0.0000   0.0000   0.0000   0.0000   0.0000   0.0000   0.0000   0.0000
     0.0000   0.0000   0.0000   0.0000   0.0000   0.0000   0.0000   0.0000
     0.0000   0.0000   0.0000   0.0000   0.0000   0.0000   0.0000   0.0000
     0.0000   0.0000   0.0000   0.0000   0.0000   0.0000   0.0000   0.0000
     0.0000   0.0000   0.0000   0.0000   0.0000   0.0000   0.0000   0.0000
     0.0000   0.0000   0.0000   0.0000   0.0000   0.0000   0.0000   0.0000
     0.0000   0.0000   0.0000   0.0000   0.0000   0.0000   0.0000   0.0000
     0.0000   0.0000   0.0000   0.0000   0.0000   0.0000   0.0000   0.0000
     0.0000   0.0000   0.0000   0.0000   0.0000   0.0000   0.0000   0.0000
     0.0000   0.0000   0.0000   0.0000   0.0000   0.0000   0.0000   0.0000
     0.0000   0.0000   0.0000   0.0000   0.0000   0.0000   0.0000   0.0000
     0.0000   0.0000   0.0000   0.0000   0.0000   0.0000   0.0000   0.0000

          k = 0.3333 0.0000 0.0000 (  4143 PWs)   bands (ev):

   -82.9355 -82.9355 -82.9346 -82.9346 -46.0670 -46.0650 -46.0639 -46.0600
   -45.9600 -45.9580 -45.9516 -45.9504 -45.9089 -45.9081 -45.9019 -45.9006
    -3.5792  -3.3012  -3.2049  -3.0433   3.6806   3.9221   4.0439   4.0472
     4.1912   4.4298   4.7140   4.7465   5.1607   5.2501   5.3666   5.3978
     5.4211   5.6108   5.6752   5.7251   5.7682   5.9131   5.9792   6.0207
     6.1508   6.1672   6.1986   6.2124   6.2623   6.5858   6.6632   6.7323
     6.7931   6.9487   7.0876   7.3069   7.4197   7.4805   7.6912   7.6983
     7.7188   7.7973   7.8701   7.8806   7.8966   8.0908   8.1635   8.1765
     8.3305   8.4689   8.8476   8.8700   8.9716   8.9747   9.0660   9.3955
    11.0160  11.3641  12.3217  13.5428  13.6283  14.3076  14.6220  14.9021
    15.0362  15.0704  15.4898  15.5162  16.1416  16.2048  16.4103  16.6964
    17.8409  18.0396  18.0886  18.8839  18.9227  19.1921  19.3621  19.5561
    19.8997  20.5301  21.0142  21.9072  21.9654  22.0965  22.1576  22.3921
    22.6605  23.5325  23.7343  23.8997  24.0809  24.2303  24.6459  24.7100
    24.9600  25.0271  25.3860  25.4604  25.8758  25.8853  26.3245  26.6722
    26.6875  26.8104  27.0718  27.5072  27.5277  28.2337  28.7661  28.9138
    29.3145  29.7854  30.1377  30.1815  30.1903  30.3126  30.8308  30.9998
    31.1537  31.3439  31.5047  31.9011  31.9571  32.1236  32.1544  32.5874
    32.9622  33.3336  33.7535  33.8311  33.9305  34.2636  34.4520  34.8857
    34.9320  35.0640  35.1441  35.4497  35.7008  36.2486  36.4936  36.5479
    36.6398  36.6607  37.1173  37.2337  37.2385  37.4187  37.7916  38.1835
    38.4913  38.8417  38.9043  39.2467  39.2585  39.6586  39.9653  39.9988
    40.2788  40.4298  40.5682  40.6091  40.9563  41.0039  41.0246  41.0436
    41.2328  41.4746  41.5024  41.5369  41.9098  42.1205  42.3902  42.4150
    42.4912  42.9095  43.1256  43.2670  43.3924  43.9330  43.9707  44.1435
    44.3434  44.4784  44.6896  44.9753  45.1622  45.1681  45.5307  45.6318
    45.6933  45.8206  46.0730  46.6857  46.8781  46.9123  47.1892  47.4730
    47.5418  47.5931  47.7536  47.9970  48.2805  48.3270  48.4134  49.0146
    49.2101  49.4005  49.4275  49.6596  49.7802  49.8883  50.0724  50.3013
    50.8363  50.9048  51.3036  51.4723  51.6218  52.0472  52.0891  52.2778
    52.6245  52.8872  53.1289  53.3338  53.5180  53.7842  53.7990  53.9138
    53.9688  54.1326  54.6579  54.7521  54.9568  55.1288  55.3425  55.7544

     occupation numbers 
     1.0000   1.0000   1.0000   1.0000   1.0000   1.0000   1.0000   1.0000
     1.0000   1.0000   1.0000   1.0000   1.0000   1.0000   1.0000   1.0000
     1.0000   1.0000   1.0000   1.0000   1.0000   1.0000   1.0000   1.0000
     1.0000   1.0000   1.0000   1.0000   1.0000   1.0000   1.0000   1.0000
     1.0000   1.0000   1.0000   1.0000   1.0000   1.0000   1.0000   1.0000
     1.0000   1.0000   1.0000   1.0000   1.0000   1.0000   1.0000   1.0000
     1.0000   1.0000   1.0000   1.0000   1.0000   1.0000   1.0000   1.0000
     1.0000   1.0000   1.0000   1.0000   1.0000   1.0000   1.0000   1.0000
     1.0000   1.0000   1.0000   1.0000   1.0000   1.0000   1.0000   1.0000
     0.0000   0.0000   0.0000   0.0000   0.0000   0.0000   0.0000   0.0000
     0.0000   0.0000   0.0000   0.0000   0.0000   0.0000   0.0000   0.0000
     0.0000   0.0000   0.0000   0.0000   0.0000   0.0000   0.0000   0.0000
     0.0000   0.0000   0.0000   0.0000   0.0000   0.0000   0.0000   0.0000
     0.0000   0.0000   0.0000   0.0000   0.0000   0.0000   0.0000   0.0000
     0.0000   0.0000   0.0000   0.0000   0.0000   0.0000   0.0000   0.0000
     0.0000   0.0000   0.0000   0.0000   0.0000   0.0000   0.0000   0.0000
     0.0000   0.0000   0.0000   0.0000   0.0000   0.0000   0.0000   0.0000
     0.0000   0.0000   0.0000   0.0000   0.0000   0.0000   0.0000   0.0000
     0.0000   0.0000   0.0000   0.0000   0.0000   0.0000   0.0000   0.0000
     0.0000   0.0000   0.0000   0.0000   0.0000   0.0000   0.0000   0.0000
     0.0000   0.0000   0.0000   0.0000   0.0000   0.0000   0.0000   0.0000
     0.0000   0.0000   0.0000   0.0000   0.0000   0.0000   0.0000   0.0000
     0.0000   0.0000   0.0000   0.0000   0.0000   0.0000   0.0000   0.0000
     0.0000   0.0000   0.0000   0.0000   0.0000   0.0000   0.0000   0.0000
     0.0000   0.0000   0.0000   0.0000   0.0000   0.0000   0.0000   0.0000
     0.0000   0.0000   0.0000   0.0000   0.0000   0.0000   0.0000   0.0000
     0.0000   0.0000   0.0000   0.0000   0.0000   0.0000   0.0000   0.0000
     0.0000   0.0000   0.0000   0.0000   0.0000   0.0000   0.0000   0.0000
     0.0000   0.0000   0.0000   0.0000   0.0000   0.0000   0.0000   0.0000
     0.0000   0.0000   0.0000   0.0000   0.0000   0.0000   0.0000   0.0000
     0.0000   0.0000   0.0000   0.0000   0.0000   0.0000   0.0000   0.0000
     0.0000   0.0000   0.0000   0.0000   0.0000   0.0000   0.0000   0.0000

          k = 0.3333 0.0000 0.1616 (  4115 PWs)   bands (ev):

   -82.9355 -82.9355 -82.9346 -82.9346 -46.0648 -46.0644 -46.0604 -46.0595
   -45.9582 -45.9580 -45.9494 -45.9491 -45.9065 -45.9060 -45.9015 -45.9004
    -3.5133  -3.3748  -3.1654  -3.0846   3.8369   3.9631   4.1105   4.1613
     4.3086   4.4025   4.5529   4.7243   4.9181   4.9801   5.0835   5.2506
     5.5567   5.7107   5.7981   5.8095   5.8866   5.9569   5.9989   6.0864
     6.1046   6.2121   6.2540   6.3063   6.3461   6.4407   6.5976   6.8068
     6.9334   6.9518   7.1661   7.2125   7.5148   7.5198   7.6378   7.6380
     7.7674   7.8497   7.8643   7.8752   7.8895   8.1020   8.1495   8.1528
     8.2914   8.3044   8.8703   8.8714   9.0133   9.0259   9.1395   9.3113
    11.5503  11.6822  11.9708  12.9467  13.5225  13.5734  14.4391  14.7032
    14.8142  15.0002  15.8170  15.9849  16.4210  16.4433  16.7014  17.4672
    17.7443  18.2815  18.5658  18.6924  19.1181  19.2542  19.4383  19.5626
    20.0318  20.0936  20.6323  21.2493  21.4094  21.8160  22.1111  22.7514
    22.9401  22.9414  23.6219  23.6421  24.3871  24.4614  24.5720  24.6745
    24.8359  24.8535  25.2800  25.4447  25.6374  25.8922  26.3843  26.5389
    26.8201  26.9588  27.3571  27.7848  28.2081  28.5407  28.6861  29.0528
    29.1292  29.2135  29.8707  30.0072  30.3348  30.6080  30.7999  30.9091
    31.2604  31.7917  31.8266  32.1326  32.3968  32.5146  32.6946  32.7983
    33.1117  33.3576  33.4647  33.6715  34.0160  34.3025  34.3773  34.6398
    34.7327  34.8254  35.3394  35.4650  35.6615  35.9240  36.2219  36.3591
    36.7190  36.8483  36.9986  37.1853  37.2918  37.5356  37.7430  37.9509
    38.2804  38.4200  38.8273  38.8871  39.0180  39.2438  39.2677  39.5997
    39.6187  40.1462  40.2975  40.4726  40.4865  40.5879  40.6052  41.2331
    41.3119  41.4845  41.5513  41.8494  42.0137  42.4247  42.5671  42.6421
    42.9206  43.1183  43.3603  43.4353  43.8327  44.1595  44.5487  44.6125
    44.6755  44.9989  45.0349  45.3885  45.4378  45.7186  45.7428  45.7870
    46.0344  46.0615  46.4680  46.8216  46.8348  46.9278  47.1062  47.3016
    47.3360  47.8410  47.9823  48.0234  48.3829  48.5370  48.6823  48.9618
    49.2073  49.2355  49.4409  49.4630  49.5267  49.8280  49.9551  50.0793
    50.2320  50.7669  50.8138  51.2070  51.4381  51.5956  52.1423  52.3632
    52.7599  52.7626  53.0523  53.0856  53.2198  53.4668  53.7750  53.8153
    53.9375  54.0757  54.2975  54.4849  54.7802  54.8359  54.8706  55.0452

     occupation numbers 
     1.0000   1.0000   1.0000   1.0000   1.0000   1.0000   1.0000   1.0000
     1.0000   1.0000   1.0000   1.0000   1.0000   1.0000   1.0000   1.0000
     1.0000   1.0000   1.0000   1.0000   1.0000   1.0000   1.0000   1.0000
     1.0000   1.0000   1.0000   1.0000   1.0000   1.0000   1.0000   1.0000
     1.0000   1.0000   1.0000   1.0000   1.0000   1.0000   1.0000   1.0000
     1.0000   1.0000   1.0000   1.0000   1.0000   1.0000   1.0000   1.0000
     1.0000   1.0000   1.0000   1.0000   1.0000   1.0000   1.0000   1.0000
     1.0000   1.0000   1.0000   1.0000   1.0000   1.0000   1.0000   1.0000
     1.0000   1.0000   1.0000   1.0000   1.0000   1.0000   1.0000   1.0000
     0.0000   0.0000   0.0000   0.0000   0.0000   0.0000   0.0000   0.0000
     0.0000   0.0000   0.0000   0.0000   0.0000   0.0000   0.0000   0.0000
     0.0000   0.0000   0.0000   0.0000   0.0000   0.0000   0.0000   0.0000
     0.0000   0.0000   0.0000   0.0000   0.0000   0.0000   0.0000   0.0000
     0.0000   0.0000   0.0000   0.0000   0.0000   0.0000   0.0000   0.0000
     0.0000   0.0000   0.0000   0.0000   0.0000   0.0000   0.0000   0.0000
     0.0000   0.0000   0.0000   0.0000   0.0000   0.0000   0.0000   0.0000
     0.0000   0.0000   0.0000   0.0000   0.0000   0.0000   0.0000   0.0000
     0.0000   0.0000   0.0000   0.0000   0.0000   0.0000   0.0000   0.0000
     0.0000   0.0000   0.0000   0.0000   0.0000   0.0000   0.0000   0.0000
     0.0000   0.0000   0.0000   0.0000   0.0000   0.0000   0.0000   0.0000
     0.0000   0.0000   0.0000   0.0000   0.0000   0.0000   0.0000   0.0000
     0.0000   0.0000   0.0000   0.0000   0.0000   0.0000   0.0000   0.0000
     0.0000   0.0000   0.0000   0.0000   0.0000   0.0000   0.0000   0.0000
     0.0000   0.0000   0.0000   0.0000   0.0000   0.0000   0.0000   0.0000
     0.0000   0.0000   0.0000   0.0000   0.0000   0.0000   0.0000   0.0000
     0.0000   0.0000   0.0000   0.0000   0.0000   0.0000   0.0000   0.0000
     0.0000   0.0000   0.0000   0.0000   0.0000   0.0000   0.0000   0.0000
     0.0000   0.0000   0.0000   0.0000   0.0000   0.0000   0.0000   0.0000
     0.0000   0.0000   0.0000   0.0000   0.0000   0.0000   0.0000   0.0000
     0.0000   0.0000   0.0000   0.0000   0.0000   0.0000   0.0000   0.0000
     0.0000   0.0000   0.0000   0.0000   0.0000   0.0000   0.0000   0.0000
     0.0000   0.0000   0.0000   0.0000   0.0000   0.0000   0.0000   0.0000

          k = 0.3333 0.2024 0.0000 (  4134 PWs)   bands (ev):

   -82.9355 -82.9355 -82.9346 -82.9346 -46.0666 -46.0663 -46.0618 -46.0603
   -45.9589 -45.9566 -45.9496 -45.9494 -45.9077 -45.9074 -45.9039 -45.9019
    -3.4868  -3.2994  -3.2368  -3.1078   3.6825   3.7577   3.8055   3.9264
     4.3195   4.4086   4.7450   4.7690   5.2899   5.2918   5.4419   5.4523
     5.4782   5.5060   5.7774   5.7983   5.8219   5.8797   5.9186   5.9332
     6.1424   6.1827   6.2554   6.3294   6.3432   6.5598   6.6443   6.6887
     6.7124   6.8529   7.1582   7.2708   7.4892   7.5994   7.7264   7.7548
     7.8156   7.8196   7.8793   7.8891   7.9295   8.1421   8.1442   8.4236
     8.4582   8.4709   8.5420   8.6687   8.9585   9.1012   9.1585   9.4381
    11.2955  11.8809  11.9056  13.0837  13.1712  13.5170  13.6914  14.2369
    14.8650  15.1895  15.3759  15.6739  16.3263  16.8360  17.0591  17.7515
    17.9498  17.9951  18.6383  18.8299  19.0186  19.0461  19.4936  19.5862
    20.5244  20.8201  20.8429  21.0353  21.5992  22.0673  22.2524  22.4422
    22.8681  22.9147  23.3138  23.4603  24.0376  24.1989  24.6241  25.0346
    25.1119  25.3828  25.8534  25.8746  26.2003  26.2163  26.2688  26.2981
    26.6034  26.9082  27.4198  27.7215  28.0331  28.1990  28.5321  28.7618
    28.7802  29.2026  29.4551  30.0263  30.1139  30.2371  30.4123  30.5078
    30.7607  31.4759  31.9756  32.1570  32.4528  32.7538  32.7548  32.9383
    33.0666  33.3524  33.6256  33.7231  33.9296  34.0900  34.1505  34.4303
    34.6697  34.7338  35.2022  35.3533  35.8454  35.9677  36.1587  36.3061
    36.3939  36.8946  37.1448  37.3584  37.5641  37.6347  37.8215  38.3061
    38.3143  38.4013  38.6573  38.6854  39.0256  39.4359  39.5304  39.8633
    39.8639  40.1469  40.4455  40.5168  40.5370  40.7456  41.2455  41.3539
    41.4814  41.5413  41.7880  41.8561  41.9684  42.4026  42.4080  42.7065
    42.8040  43.0723  43.2273  43.5266  43.6943  44.0226  44.2622  44.3460
    44.5377  44.8084  45.3967  45.4775  45.5609  45.6707  46.0394  46.0621
    46.1535  46.2435  46.2837  46.5947  46.7406  47.0474  47.1728  47.5060
    47.5243  47.9484  48.0874  48.1130  48.2738  48.4751  48.9821  49.0354
    49.2512  49.4692  49.6614  49.7882  50.0644  50.0717  50.4856  50.5250
    50.5995  50.6892  51.0987  51.1569  51.2972  51.4765  51.5073  51.6230
    52.1271  52.5671  52.6241  53.0116  53.2144  53.3896  53.6529  53.7827
    53.9377  54.0073  54.1861  54.2039  54.5128  54.7841  55.0835  55.0929

     occupation numbers 
     1.0000   1.0000   1.0000   1.0000   1.0000   1.0000   1.0000   1.0000
     1.0000   1.0000   1.0000   1.0000   1.0000   1.0000   1.0000   1.0000
     1.0000   1.0000   1.0000   1.0000   1.0000   1.0000   1.0000   1.0000
     1.0000   1.0000   1.0000   1.0000   1.0000   1.0000   1.0000   1.0000
     1.0000   1.0000   1.0000   1.0000   1.0000   1.0000   1.0000   1.0000
     1.0000   1.0000   1.0000   1.0000   1.0000   1.0000   1.0000   1.0000
     1.0000   1.0000   1.0000   1.0000   1.0000   1.0000   1.0000   1.0000
     1.0000   1.0000   1.0000   1.0000   1.0000   1.0000   1.0000   1.0000
     1.0000   1.0000   1.0000   1.0000   1.0000   1.0000   1.0000   1.0000
     0.0000   0.0000   0.0000   0.0000   0.0000   0.0000   0.0000   0.0000
     0.0000   0.0000   0.0000   0.0000   0.0000   0.0000   0.0000   0.0000
     0.0000   0.0000   0.0000   0.0000   0.0000   0.0000   0.0000   0.0000
     0.0000   0.0000   0.0000   0.0000   0.0000   0.0000   0.0000   0.0000
     0.0000   0.0000   0.0000   0.0000   0.0000   0.0000   0.0000   0.0000
     0.0000   0.0000   0.0000   0.0000   0.0000   0.0000   0.0000   0.0000
     0.0000   0.0000   0.0000   0.0000   0.0000   0.0000   0.0000   0.0000
     0.0000   0.0000   0.0000   0.0000   0.0000   0.0000   0.0000   0.0000
     0.0000   0.0000   0.0000   0.0000   0.0000   0.0000   0.0000   0.0000
     0.0000   0.0000   0.0000   0.0000   0.0000   0.0000   0.0000   0.0000
     0.0000   0.0000   0.0000   0.0000   0.0000   0.0000   0.0000   0.0000
     0.0000   0.0000   0.0000   0.0000   0.0000   0.0000   0.0000   0.0000
     0.0000   0.0000   0.0000   0.0000   0.0000   0.0000   0.0000   0.0000
     0.0000   0.0000   0.0000   0.0000   0.0000   0.0000   0.0000   0.0000
     0.0000   0.0000   0.0000   0.0000   0.0000   0.0000   0.0000   0.0000
     0.0000   0.0000   0.0000   0.0000   0.0000   0.0000   0.0000   0.0000
     0.0000   0.0000   0.0000   0.0000   0.0000   0.0000   0.0000   0.0000
     0.0000   0.0000   0.0000   0.0000   0.0000   0.0000   0.0000   0.0000
     0.0000   0.0000   0.0000   0.0000   0.0000   0.0000   0.0000   0.0000
     0.0000   0.0000   0.0000   0.0000   0.0000   0.0000   0.0000   0.0000
     0.0000   0.0000   0.0000   0.0000   0.0000   0.0000   0.0000   0.0000
     0.0000   0.0000   0.0000   0.0000   0.0000   0.0000   0.0000   0.0000
     0.0000   0.0000   0.0000   0.0000   0.0000   0.0000   0.0000   0.0000

          k = 0.3333 0.2024 0.1616 (  4127 PWs)   bands (ev):

   -82.9355 -82.9355 -82.9346 -82.9346 -46.0649 -46.0639 -46.0619 -46.0601
   -45.9589 -45.9578 -45.9496 -45.9488 -45.9080 -45.9077 -45.9020 -45.9005
    -3.4273  -3.3025  -3.2530  -3.1573   3.7437   3.8311   3.9050   3.9586
     4.3230   4.4268   4.6619   4.7756   4.9917   5.0187   5.1569   5.2386
     5.7260   5.7376   5.8156   5.8623   5.9054   5.9176   6.0164   6.1030
     6.1653   6.2213   6.2466   6.3083   6.3988   6.5296   6.6232   6.7468
     6.7945   6.8774   7.1002   7.1139   7.5965   7.6463   7.7099   7.7283
     7.7817   7.8153   7.8498   7.8835   8.0121   8.1265   8.1685   8.2152
     8.4436   8.4582   8.7510   8.7740   8.9446   8.9760   9.2147   9.3669
    11.2914  11.5962  11.9468  12.3540  13.4266  13.6947  14.1558  14.6275
    14.7711  15.1906  15.5998  15.6652  16.1882  16.4406  17.0935  17.6777
    17.8971  18.0767  18.5817  18.8643  19.1335  19.3246  19.5949  19.8997
    19.9467  20.5691  20.8524  21.0611  21.6157  21.8878  22.5800  22.7980
    22.9145  23.1054  23.2712  23.4726  23.7331  24.3263  24.4698  24.9023
    25.0513  25.2946  25.4410  25.5743  25.7315  25.8640  26.1689  26.5252
    26.7115  26.8664  27.3257  27.5962  27.8781  28.2345  28.5406  28.9247
    29.4872  29.5708  30.0445  30.2659  30.4588  30.5286  30.9232  30.9328
    31.1322  31.3339  31.5445  31.6903  32.1323  32.4324  32.5782  32.8260
    32.8580  32.9992  33.3924  34.0007  34.0845  34.2817  34.3575  34.6947
    34.8292  35.2018  35.2711  35.4846  35.5961  35.7890  35.9844  36.5244
    36.6675  36.8269  36.8756  37.0119  37.1552  37.4963  37.7551  37.8386
    38.0363  38.5065  38.7485  38.8146  39.0176  39.2127  39.3891  39.5457
    39.8280  40.1847  40.1954  40.5640  40.6229  40.7767  40.9800  41.2972
    41.3533  41.6342  41.7117  41.8285  42.1665  42.4175  42.5404  42.8284
    43.0026  43.0649  43.3216  43.7177  43.9221  44.0053  44.2360  44.4914
    44.6884  44.8871  45.0666  45.2039  45.4843  45.5941  45.7129  45.9300
    46.0851  46.2462  46.4286  47.0029  47.0229  47.2476  47.3722  47.6299
    47.7694  47.9667  48.1121  48.3030  48.4508  48.6612  48.7430  48.8552
    49.2044  49.3057  49.5241  49.8769  50.0186  50.3912  50.7002  50.7699
    50.9308  51.0769  51.1557  51.3131  51.5638  51.6807  51.8896  51.9328
    52.1251  52.3855  52.4680  52.7025  53.2292  53.2938  53.3509  53.5023
    53.8333  53.9764  54.1527  54.5210  54.6780  54.8017  54.8962  54.9870

     occupation numbers 
     1.0000   1.0000   1.0000   1.0000   1.0000   1.0000   1.0000   1.0000
     1.0000   1.0000   1.0000   1.0000   1.0000   1.0000   1.0000   1.0000
     1.0000   1.0000   1.0000   1.0000   1.0000   1.0000   1.0000   1.0000
     1.0000   1.0000   1.0000   1.0000   1.0000   1.0000   1.0000   1.0000
     1.0000   1.0000   1.0000   1.0000   1.0000   1.0000   1.0000   1.0000
     1.0000   1.0000   1.0000   1.0000   1.0000   1.0000   1.0000   1.0000
     1.0000   1.0000   1.0000   1.0000   1.0000   1.0000   1.0000   1.0000
     1.0000   1.0000   1.0000   1.0000   1.0000   1.0000   1.0000   1.0000
     1.0000   1.0000   1.0000   1.0000   1.0000   1.0000   1.0000   1.0000
     0.0000   0.0000   0.0000   0.0000   0.0000   0.0000   0.0000   0.0000
     0.0000   0.0000   0.0000   0.0000   0.0000   0.0000   0.0000   0.0000
     0.0000   0.0000   0.0000   0.0000   0.0000   0.0000   0.0000   0.0000
     0.0000   0.0000   0.0000   0.0000   0.0000   0.0000   0.0000   0.0000
     0.0000   0.0000   0.0000   0.0000   0.0000   0.0000   0.0000   0.0000
     0.0000   0.0000   0.0000   0.0000   0.0000   0.0000   0.0000   0.0000
     0.0000   0.0000   0.0000   0.0000   0.0000   0.0000   0.0000   0.0000
     0.0000   0.0000   0.0000   0.0000   0.0000   0.0000   0.0000   0.0000
     0.0000   0.0000   0.0000   0.0000   0.0000   0.0000   0.0000   0.0000
     0.0000   0.0000   0.0000   0.0000   0.0000   0.0000   0.0000   0.0000
     0.0000   0.0000   0.0000   0.0000   0.0000   0.0000   0.0000   0.0000
     0.0000   0.0000   0.0000   0.0000   0.0000   0.0000   0.0000   0.0000
     0.0000   0.0000   0.0000   0.0000   0.0000   0.0000   0.0000   0.0000
     0.0000   0.0000   0.0000   0.0000   0.0000   0.0000   0.0000   0.0000
     0.0000   0.0000   0.0000   0.0000   0.0000   0.0000   0.0000   0.0000
     0.0000   0.0000   0.0000   0.0000   0.0000   0.0000   0.0000   0.0000
     0.0000   0.0000   0.0000   0.0000   0.0000   0.0000   0.0000   0.0000
     0.0000   0.0000   0.0000   0.0000   0.0000   0.0000   0.0000   0.0000
     0.0000   0.0000   0.0000   0.0000   0.0000   0.0000   0.0000   0.0000
     0.0000   0.0000   0.0000   0.0000   0.0000   0.0000   0.0000   0.0000
     0.0000   0.0000   0.0000   0.0000   0.0000   0.0000   0.0000   0.0000
     0.0000   0.0000   0.0000   0.0000   0.0000   0.0000   0.0000   0.0000
     0.0000   0.0000   0.0000   0.0000   0.0000   0.0000   0.0000   0.0000

     highest occupied, lowest unoccupied level (ev):    10.3240   10.9013

!    total energy              =   -2097.15851465 Ry
     estimated scf accuracy    <       0.00000095 Ry

     The total energy is the sum of the following terms:
     one-electron contribution =    -889.30779035 Ry
     hartree contribution      =     537.88528234 Ry
     xc contribution           =    -320.55367297 Ry
     ewald contribution        =   -1065.89033612 Ry
     one-center paw contrib.   =    -359.29199755 Ry
      -> PAW hartree energy AE =     197.63177677 Ry
      -> PAW hartree energy PS =    -196.17335750 Ry
      -> PAW xc energy AE      =    -269.99920514 Ry
      -> PAW xc energy PS      =      88.89478710 Ry
      -> total E_H with PAW    =     539.34370161 Ry
      -> total E_XC with PAW   =    -501.65809101 Ry

     convergence has been achieved in   7 iterations

     Writing all to output data dir bands_nm/myprefix.save/
 
     init_run     :      4.90s CPU      1.28s WALL (       1 calls)
     electrons    :    107.67s CPU     28.07s WALL (       1 calls)

     Called by init_run:
     wfcinit      :      3.13s CPU      0.80s WALL (       1 calls)
     wfcinit:atom :      0.01s CPU      0.00s WALL (       4 calls)
     wfcinit:wfcr :      3.02s CPU      0.77s WALL (       4 calls)
     potinit      :      0.57s CPU      0.15s WALL (       1 calls)
     hinit0       :      0.99s CPU      0.26s WALL (       1 calls)

     Called by electrons:
     c_bands      :     96.15s CPU     24.96s WALL (       8 calls)
     sum_band     :      7.48s CPU      2.01s WALL (       8 calls)
     v_of_rho     :      0.33s CPU      0.09s WALL (       8 calls)
     v_h          :      0.03s CPU      0.01s WALL (       8 calls)
     v_xc         :      0.30s CPU      0.08s WALL (       8 calls)
     newd         :      0.77s CPU      0.21s WALL (       8 calls)
     PAW_pot      :      2.80s CPU      0.73s WALL (       8 calls)
     mix_rho      :      0.07s CPU      0.02s WALL (       8 calls)

     Called by c_bands:
     init_us_2    :      0.14s CPU      0.04s WALL (      68 calls)
     init_us_2:cp :      0.14s CPU      0.04s WALL (      68 calls)
     cegterg      :     92.81s CPU     23.86s WALL (      32 calls)

     Called by sum_band:
     sum_band:wei :      0.00s CPU      0.00s WALL (       8 calls)
     sum_band:loo :      6.34s CPU      1.63s WALL (       8 calls)
     sum_band:buf :      0.09s CPU      0.02s WALL (      32 calls)
     sum_band:ini :      0.07s CPU      0.02s WALL (      32 calls)
     sum_band:cal :      1.58s CPU      0.40s WALL (      32 calls)
     sum_band:bec :      0.04s CPU      0.01s WALL (      32 calls)
     addusdens    :      0.71s CPU      0.27s WALL (       8 calls)
     addusd:skk   :      0.00s CPU      0.00s WALL (      16 calls)
     addusd:dgemm :      0.16s CPU      0.12s WALL (      16 calls)
     addusd:qvan2 :      0.48s CPU      0.12s WALL (      16 calls)

     Called by *egterg:
     cdiaghg      :     33.30s CPU      8.70s WALL (     128 calls)
     cegterg:over :      9.96s CPU      2.51s WALL (     100 calls)
     cegterg:upda :      5.12s CPU      1.31s WALL (     100 calls)
     cegterg:last :     12.75s CPU      3.22s WALL (      63 calls)
     cdiaghg:chol :      2.07s CPU      0.55s WALL (     128 calls)
     cdiaghg:inve :      0.71s CPU      0.19s WALL (     128 calls)
     cdiaghg:para :      7.39s CPU      1.97s WALL (     256 calls)
     h_psi        :     27.30s CPU      7.02s WALL (     136 calls)
     s_psi        :      3.52s CPU      0.89s WALL (     136 calls)
     g_psi        :      0.04s CPU      0.01s WALL (     100 calls)

     Called by h_psi:
     h_psi:calbec :      3.93s CPU      0.99s WALL (     136 calls)
     vloc_psi     :     19.80s CPU      5.09s WALL (     136 calls)
     add_vuspsi   :      3.50s CPU      0.90s WALL (     136 calls)

     General routines
     calbec       :      5.51s CPU      1.39s WALL (     168 calls)
     fft          :      0.27s CPU      0.07s WALL (     103 calls)
     ffts         :      0.02s CPU      0.01s WALL (      16 calls)
     fftw         :     22.76s CPU      5.31s WALL (   48268 calls)
     interpolate  :      0.03s CPU      0.01s WALL (       8 calls)
 
     Parallel routines

     PAW routines
     PAW_pot      :      2.80s CPU      0.73s WALL (       8 calls)
     PAW_symme    :      0.01s CPU      0.00s WALL (      16 calls)
 
     PWSCF        :   1m53.96s CPU     30.45s WALL

 
   This run was terminated on:  22: 0: 3  15Jul2023            

=------------------------------------------------------------------------------=
   JOB DONE.
=------------------------------------------------------------------------------=
