
     Program PWSCF v.7.1 starts on 16Jul2023 at 17:31:33 

     This program is part of the open-source Quantum ESPRESSO suite
     for quantum simulation of materials; please cite
         "P. Giannozzi et al., J. Phys.:Condens. Matter 21 395502 (2009);
         "P. Giannozzi et al., J. Phys.:Condens. Matter 29 465901 (2017);
         "P. Giannozzi et al., J. Chem. Phys. 152 154105 (2020);
          URL http://www.quantum-espresso.org", 
     in publications or presentations arising from this work. More details at
     http://www.quantum-espresso.org/quote

     Parallel version (MPI & OpenMP), running on      32 processor cores
     Number of MPI processes:                 8
     Threads/MPI process:                     4

     MPI processes distributed on     1 nodes
     216588 MiB available memory on the printing compute node when the environment starts
 
     Reading input from espresso_16189.pwi
Warning: card &CELL ignored
Warning: card / ignored

     Current dimensions of program PWSCF are:
     Max number of different atomic species (ntypx) = 10
     Max number of k-points (npk) =  40000
     Max angular momentum in pseudopotentials (lmaxx) =  4
     file Ba.pbe-spn-kjpaw_psl.1.0.0.UPF: wavefunction(s)  5S 6S renormalized
     file Fe.pbe-spn-kjpaw_psl.0.2.1.UPF: wavefunction(s)  3D renormalized
     file O.pbe-n-kjpaw_psl.0.1.UPF: wavefunction(s)  2P renormalized
     Message from routine setup:
     using ibrav=0 with symmetry is DISCOURAGED, use correct ibrav instead
 
     K-points division:     npool     =       2
     R & G space division:  proc/nbgrp/npool/nimage =       4
     Subspace diagonalization in iterative solution of the eigenvalue problem:
     one sub-group per band group will be used
     scalapack distributed-memory algorithm (size of sub-group:  2*  2 procs)

 
     Parallelization info
     --------------------
     sticks:   dense  smooth     PW     G-vecs:    dense   smooth      PW
     Min         523     262     72                25783     9112    1362
     Max         525     263     74                25784     9115    1363
     Sum        2095    1049    291               103133    36453    5449
 
     Using Slab Decomposition
 


     bravais-lattice index     =            0
     lattice parameter (alat)  =       7.5039  a.u.
     unit-cell volume          =    1640.8878 (a.u.)^3
     number of atoms/cell      =           18
     number of atomic types    =            4
     number of electrons       =       166.00
     number of Kohn-Sham states=          256
     kinetic-energy cutoff     =      30.0000  Ry
     charge density cutoff     =     240.0000  Ry
     scf convergence threshold =      1.0E-06
     mixing beta               =       0.7000
     number of iterations used =            8  plain     mixing
     Exchange-correlation= SLA  PW   PBX  PBC
                           (   1   4   3   4   0   0   0)

     celldm(1)=   7.503944  celldm(2)=   0.000000  celldm(3)=   0.000000
     celldm(4)=   0.000000  celldm(5)=   0.000000  celldm(6)=   0.000000

     crystal axes: (cart. coord. in units of alat)
               a(1) = (   1.000000   0.000000   0.000000 )  
               a(2) = (   0.000000   1.939981   0.000000 )  
               a(3) = (   0.000000   0.000000   2.001763 )  

     reciprocal axes: (cart. coord. in units 2 pi/alat)
               b(1) = (  1.000000  0.000000  0.000000 )  
               b(2) = (  0.000000  0.515469  0.000000 )  
               b(3) = (  0.000000  0.000000  0.499560 )  


     PseudoPot. # 1 for Ba read from file:
     /lustre07/scratch/pragov/crystal_structure_design/utils/SSSP/Ba.pbe-spn-kjpaw_psl.1.0.0.UPF
     MD5 check sum: c432291d3e53af55f19d5e8866385beb
     Pseudo is Projector augmented-wave + core cor, Zval = 10.0
     Generated using "atomic" code by A. Dal Corso  v.5.1
     Shape of augmentation charge: PSQ
     Using radial grid of 1251 points,  7 beta functions with: 
                l(1) =   0
                l(2) =   0
                l(3) =   0
                l(4) =   1
                l(5) =   1
                l(6) =   2
                l(7) =   2
     Q(r) pseudized with 0 coefficients 


     PseudoPot. # 2 for Y  read from file:
     /lustre07/scratch/pragov/crystal_structure_design/utils/SSSP/Y_pbe_v1.uspp.F.UPF
     MD5 check sum: 2cf71db95cafeb975fc457bd7f14888e
     Pseudo is Ultrasoft + core correction, Zval = 11.0
     Generated by new atomic code, or converted to UPF format
     Using radial grid of  885 points,  6 beta functions with: 
                l(1) =   0
                l(2) =   0
                l(3) =   1
                l(4) =   1
                l(5) =   2
                l(6) =   2
     Q(r) pseudized with  6 coefficients,  rinner =    1.200   1.200   1.200
                                                       1.200   1.200

     PseudoPot. # 3 for Fe read from file:
     /lustre07/scratch/pragov/crystal_structure_design/utils/SSSP/Fe.pbe-spn-kjpaw_psl.0.2.1.UPF
     MD5 check sum: e86618425769142926afa95317d90200
     Pseudo is Projector augmented-wave + core cor, Zval = 16.0
     Generated using "atomic" code by A. Dal Corso  v.5.0.99 svn rev. 10869
     Shape of augmentation charge: PSQ
     Using radial grid of 1191 points,  6 beta functions with: 
                l(1) =   0
                l(2) =   0
                l(3) =   1
                l(4) =   1
                l(5) =   2
                l(6) =   2
     Q(r) pseudized with 0 coefficients 


     PseudoPot. # 4 for O  read from file:
     /lustre07/scratch/pragov/crystal_structure_design/utils/SSSP/O.pbe-n-kjpaw_psl.0.1.UPF
     MD5 check sum: 0234752ac141de4415c5fc33072bef88
     Pseudo is Projector augmented-wave + core cor, Zval =  6.0
     Generated using "atomic" code by A. Dal Corso  v.5.0.99 svn rev. 10869
     Shape of augmentation charge: BESSEL
     Using radial grid of 1095 points,  4 beta functions with: 
                l(1) =   0
                l(2) =   0
                l(3) =   1
                l(4) =   1
     Q(r) pseudized with 0 coefficients 


     atomic species   valence    mass     pseudopotential
        Ba            10.00   137.32700     Ba( 1.00)
        Y             11.00    88.90584     Y ( 1.00)
        Fe            16.00    55.84500     Fe( 1.00)
        O              6.00    15.99900     O ( 1.00)

      8 Sym. Ops., with inversion, found ( 4 have fractional translation)


                                    s                        frac. trans.

      isym =  1     identity                                     

 cryst.   s( 1) = (     1          0          0      )
                  (     0          1          0      )
                  (     0          0          1      )

 cart.    s( 1) = (  1.0000000  0.0000000  0.0000000 )
                  (  0.0000000  1.0000000  0.0000000 )
                  (  0.0000000  0.0000000  1.0000000 )


      isym =  2     180 deg rotation - cart. axis [0,0,1]        

 cryst.   s( 2) = (    -1          0          0      )    f =(  0.0000000 )
                  (     0         -1          0      )       (  0.0000000 )
                  (     0          0          1      )       (  0.5000000 )

 cart.    s( 2) = ( -1.0000000  0.0000000  0.0000000 )    f =(  0.0000000 )
                  (  0.0000000 -1.0000000  0.0000000 )       (  0.0000000 )
                  (  0.0000000  0.0000000  1.0000000 )       (  1.0008815 )


      isym =  3     180 deg rotation - cart. axis [0,1,0]        

 cryst.   s( 3) = (    -1          0          0      )    f =(  0.0000000 )
                  (     0          1          0      )       (  0.0000000 )
                  (     0          0         -1      )       (  0.5000000 )

 cart.    s( 3) = ( -1.0000000  0.0000000  0.0000000 )    f =(  0.0000000 )
                  (  0.0000000  1.0000000  0.0000000 )       (  0.0000000 )
                  (  0.0000000  0.0000000 -1.0000000 )       (  1.0008815 )


      isym =  4     180 deg rotation - cart. axis [1,0,0]        

 cryst.   s( 4) = (     1          0          0      )
                  (     0         -1          0      )
                  (     0          0         -1      )

 cart.    s( 4) = (  1.0000000  0.0000000  0.0000000 )
                  (  0.0000000 -1.0000000  0.0000000 )
                  (  0.0000000  0.0000000 -1.0000000 )


      isym =  5     inversion                                    

 cryst.   s( 5) = (    -1          0          0      )
                  (     0         -1          0      )
                  (     0          0         -1      )

 cart.    s( 5) = ( -1.0000000  0.0000000  0.0000000 )
                  (  0.0000000 -1.0000000  0.0000000 )
                  (  0.0000000  0.0000000 -1.0000000 )


      isym =  6     inv. 180 deg rotation - cart. axis [0,0,1]   

 cryst.   s( 6) = (     1          0          0      )    f =(  0.0000000 )
                  (     0          1          0      )       (  0.0000000 )
                  (     0          0         -1      )       (  0.5000000 )

 cart.    s( 6) = (  1.0000000  0.0000000  0.0000000 )    f =(  0.0000000 )
                  (  0.0000000  1.0000000  0.0000000 )       (  0.0000000 )
                  (  0.0000000  0.0000000 -1.0000000 )       (  1.0008815 )


      isym =  7     inv. 180 deg rotation - cart. axis [0,1,0]   

 cryst.   s( 7) = (     1          0          0      )    f =(  0.0000000 )
                  (     0         -1          0      )       (  0.0000000 )
                  (     0          0          1      )       (  0.5000000 )

 cart.    s( 7) = (  1.0000000  0.0000000  0.0000000 )    f =(  0.0000000 )
                  (  0.0000000 -1.0000000  0.0000000 )       (  0.0000000 )
                  (  0.0000000  0.0000000  1.0000000 )       (  1.0008815 )


      isym =  8     inv. 180 deg rotation - cart. axis [1,0,0]   

 cryst.   s( 8) = (    -1          0          0      )
                  (     0          1          0      )
                  (     0          0          1      )

 cart.    s( 8) = ( -1.0000000  0.0000000  0.0000000 )
                  (  0.0000000  1.0000000  0.0000000 )
                  (  0.0000000  0.0000000  1.0000000 )


   Cartesian axes

     site n.     atom                  positions (alat units)
         1           Ba  tau(   1) = (   0.0000000   0.0000000   1.0008815  )
         2           Ba  tau(   2) = (   0.0000000   0.0000000   0.0000000  )
         3           Y   tau(   3) = (   0.0000000   0.9699906   1.0008815  )
         4           Y   tau(   4) = (   0.0000000   0.9699906   0.0000000  )
         5           Fe  tau(   5) = (   0.5000000   0.5417630   1.5013223  )
         6           Fe  tau(   6) = (   0.5000000   0.5037898   0.5004408  )
         7           Fe  tau(   7) = (   0.5000000   1.4361913   1.5013223  )
         8           Fe  tau(   8) = (   0.5000000   1.3982181   0.5004408  )
         9           O   tau(   9) = (   0.5000000   0.6109660   0.0118524  )
        10           O   tau(  10) = (   0.0000000   1.3373551   1.5013223  )
        11           O   tau(  11) = (   0.5000000   0.6109660   0.9890291  )
        12           O   tau(  12) = (   0.5000000   1.3290151   1.9899106  )
        13           O   tau(  13) = (   0.5000000   0.0210895   0.5004408  )
        14           O   tau(  14) = (   0.0000000   0.6247127   1.5013223  )
        15           O   tau(  15) = (   0.5000000   1.3290151   1.0127340  )
        16           O   tau(  16) = (   0.0000000   0.6026260   0.5004408  )
        17           O   tau(  17) = (   0.0000000   1.3152684   0.5004408  )
        18           O   tau(  18) = (   0.5000000   1.9188916   1.5013223  )

   Crystallographic axes

     site n.     atom                  positions (cryst. coord.)
         1           Ba  tau(   1) = (  0.0000000  0.0000000  0.5000000  )
         2           Ba  tau(   2) = (  0.0000000  0.0000000  0.0000000  )
         3           Y   tau(   3) = (  0.0000000  0.5000000  0.5000000  )
         4           Y   tau(   4) = (  0.0000000  0.5000000  0.0000000  )
         5           Fe  tau(   5) = (  0.5000000  0.2792620  0.7500000  )
         6           Fe  tau(   6) = (  0.5000000  0.2596880  0.2500000  )
         7           Fe  tau(   7) = (  0.5000000  0.7403120  0.7500000  )
         8           Fe  tau(   8) = (  0.5000000  0.7207380  0.2500000  )
         9           O   tau(   9) = (  0.5000000  0.3149340  0.0059210  )
        10           O   tau(  10) = (  0.0000000  0.6893650  0.7500000  )
        11           O   tau(  11) = (  0.5000000  0.3149340  0.4940790  )
        12           O   tau(  12) = (  0.5000000  0.6850660  0.9940790  )
        13           O   tau(  13) = (  0.5000000  0.0108710  0.2500000  )
        14           O   tau(  14) = (  0.0000000  0.3220200  0.7500000  )
        15           O   tau(  15) = (  0.5000000  0.6850660  0.5059210  )
        16           O   tau(  16) = (  0.0000000  0.3106350  0.2500000  )
        17           O   tau(  17) = (  0.0000000  0.6779800  0.2500000  )
        18           O   tau(  18) = (  0.5000000  0.9891290  0.7500000  )

     number of k points=     8
                       cart. coord. in units 2pi/alat
        k(    1) = (   0.0000000   0.0000000   0.0000000), wk =   0.0740741
        k(    2) = (   0.0000000   0.0000000   0.1665199), wk =   0.1481481
        k(    3) = (   0.0000000   0.1718230   0.0000000), wk =   0.1481481
        k(    4) = (   0.0000000   0.1718230   0.1665199), wk =   0.2962963
        k(    5) = (   0.3333333   0.0000000   0.0000000), wk =   0.1481481
        k(    6) = (   0.3333333   0.0000000   0.1665199), wk =   0.2962963
        k(    7) = (   0.3333333   0.1718230   0.0000000), wk =   0.2962963
        k(    8) = (   0.3333333   0.1718230   0.1665199), wk =   0.5925926

                       cryst. coord.
        k(    1) = (   0.0000000   0.0000000   0.0000000), wk =   0.0740741
        k(    2) = (   0.0000000   0.0000000   0.3333333), wk =   0.1481481
        k(    3) = (   0.0000000   0.3333333   0.0000000), wk =   0.1481481
        k(    4) = (   0.0000000   0.3333333   0.3333333), wk =   0.2962963
        k(    5) = (   0.3333333   0.0000000   0.0000000), wk =   0.1481481
        k(    6) = (   0.3333333   0.0000000   0.3333333), wk =   0.2962963
        k(    7) = (   0.3333333   0.3333333   0.0000000), wk =   0.2962963
        k(    8) = (   0.3333333   0.3333333   0.3333333), wk =   0.5925926

     Dense  grid:   103133 G-vectors     FFT dimensions: (  40,  72,  80)

     Smooth grid:    36453 G-vectors     FFT dimensions: (  27,  54,  54)

     Dynamical RAM for                 wfc:       4.45 MB

     Dynamical RAM for     wfc (w. buffer):      22.23 MB

     Dynamical RAM for           str. fact:       1.57 MB

     Dynamical RAM for           local pot:       0.00 MB

     Dynamical RAM for          nlocal pot:       3.92 MB

     Dynamical RAM for                qrad:       6.64 MB

     Dynamical RAM for          rho,v,vnew:       2.50 MB

     Dynamical RAM for               rhoin:       0.83 MB

     Dynamical RAM for            rho*nmix:       6.29 MB

     Dynamical RAM for           G-vectors:       1.54 MB

     Dynamical RAM for          h,s,v(r/c):       3.00 MB

     Dynamical RAM for          <psi|beta>:       0.88 MB

     Dynamical RAM for                 psi:       8.89 MB

     Dynamical RAM for                hpsi:       8.89 MB

     Dynamical RAM for                spsi:       8.89 MB

     Dynamical RAM for      wfcinit/wfcrot:      10.39 MB

     Dynamical RAM for           addusdens:      42.49 MB

     Estimated static dynamical RAM per process >      43.40 MB

     Estimated max dynamical RAM per process >      92.19 MB

     Estimated total dynamical RAM >     712.31 MB

     Check: negative core charge=   -0.000109

     Initial potential from superposition of free atoms

     starting charge     165.9553, renormalised to     166.0000

     negative rho (up, down):  8.548E-02 0.000E+00
     Starting wfcs are  128 randomized atomic wfcs +  128 random wfcs
     Checking if some PAW data can be deallocated... 
       PAW data deallocated on    7 nodes for type:  1
       PAW data deallocated on    6 nodes for type:  3
       PAW data deallocated on    3 nodes for type:  4

     total cpu time spent up to now is        2.3 secs

     Self-consistent Calculation

     iteration #  1     ecut=    30.00 Ry     beta= 0.70
     Davidson diagonalization with overlap

---- Real-time Memory Report at c_bands before calling an iterative solver
           274 MiB given to the printing process from OS
             0 MiB allocation reported by mallinfo(arena+hblkhd)
        215861 MiB available memory on the node where the printing process lives
------------------
     ethr =  1.00E-02,  avg # of iterations =  7.1

     negative rho (up, down):  8.678E-02 0.000E+00

     total cpu time spent up to now is        9.8 secs

     total energy              =   -2778.06387157 Ry
     estimated scf accuracy    <       4.17920823 Ry

     iteration #  2     ecut=    30.00 Ry     beta= 0.70
     Davidson diagonalization with overlap

---- Real-time Memory Report at c_bands before calling an iterative solver
           334 MiB given to the printing process from OS
             0 MiB allocation reported by mallinfo(arena+hblkhd)
        215340 MiB available memory on the node where the printing process lives
------------------
     ethr =  2.52E-03,  avg # of iterations =  2.0

     negative rho (up, down):  8.707E-02 0.000E+00

     total cpu time spent up to now is       13.0 secs

     total energy              =   -2773.21382028 Ry
     estimated scf accuracy    <      62.93276444 Ry

     iteration #  3     ecut=    30.00 Ry     beta= 0.70
     Davidson diagonalization with overlap

---- Real-time Memory Report at c_bands before calling an iterative solver
           343 MiB given to the printing process from OS
             0 MiB allocation reported by mallinfo(arena+hblkhd)
        215430 MiB available memory on the node where the printing process lives
------------------
     ethr =  2.52E-03,  avg # of iterations =  2.0

     negative rho (up, down):  8.702E-02 0.000E+00

     total cpu time spent up to now is       16.1 secs

     total energy              =   -2778.62168644 Ry
     estimated scf accuracy    <      16.54362593 Ry

     iteration #  4     ecut=    30.00 Ry     beta= 0.70
     Davidson diagonalization with overlap

---- Real-time Memory Report at c_bands before calling an iterative solver
           349 MiB given to the printing process from OS
             0 MiB allocation reported by mallinfo(arena+hblkhd)
        215404 MiB available memory on the node where the printing process lives
------------------
     ethr =  2.52E-03,  avg # of iterations =  1.0

     negative rho (up, down):  8.736E-02 0.000E+00

     total cpu time spent up to now is       18.7 secs

     total energy              =   -2779.00070456 Ry
     estimated scf accuracy    <      58.74616000 Ry

     iteration #  5     ecut=    30.00 Ry     beta= 0.70
     Davidson diagonalization with overlap

---- Real-time Memory Report at c_bands before calling an iterative solver
           349 MiB given to the printing process from OS
             0 MiB allocation reported by mallinfo(arena+hblkhd)
        215409 MiB available memory on the node where the printing process lives
------------------
     ethr =  2.52E-03,  avg # of iterations =  1.0

     negative rho (up, down):  8.779E-02 0.000E+00

     total cpu time spent up to now is       21.3 secs

     total energy              =   -2780.34301922 Ry
     estimated scf accuracy    <       0.24295236 Ry

     iteration #  6     ecut=    30.00 Ry     beta= 0.70
     Davidson diagonalization with overlap

---- Real-time Memory Report at c_bands before calling an iterative solver
           349 MiB given to the printing process from OS
             0 MiB allocation reported by mallinfo(arena+hblkhd)
        215406 MiB available memory on the node where the printing process lives
------------------
     ethr =  1.46E-04,  avg # of iterations =  1.9

     negative rho (up, down):  8.803E-02 0.000E+00

     total cpu time spent up to now is       24.4 secs

     total energy              =   -2780.35049213 Ry
     estimated scf accuracy    <       0.77982532 Ry

     iteration #  7     ecut=    30.00 Ry     beta= 0.70
     Davidson diagonalization with overlap

---- Real-time Memory Report at c_bands before calling an iterative solver
           349 MiB given to the printing process from OS
             0 MiB allocation reported by mallinfo(arena+hblkhd)
        215390 MiB available memory on the node where the printing process lives
------------------
     ethr =  1.46E-04,  avg # of iterations =  1.0

     negative rho (up, down):  8.829E-02 0.000E+00

     total cpu time spent up to now is       27.0 secs

     total energy              =   -2780.37108061 Ry
     estimated scf accuracy    <       0.04138528 Ry

     iteration #  8     ecut=    30.00 Ry     beta= 0.70
     Davidson diagonalization with overlap

---- Real-time Memory Report at c_bands before calling an iterative solver
           349 MiB given to the printing process from OS
             0 MiB allocation reported by mallinfo(arena+hblkhd)
        215353 MiB available memory on the node where the printing process lives
------------------
     ethr =  2.49E-05,  avg # of iterations =  4.4

     negative rho (up, down):  8.836E-02 0.000E+00

     total cpu time spent up to now is       30.8 secs

     total energy              =   -2780.37006212 Ry
     estimated scf accuracy    <       0.09390342 Ry

     iteration #  9     ecut=    30.00 Ry     beta= 0.70
     Davidson diagonalization with overlap

---- Real-time Memory Report at c_bands before calling an iterative solver
           353 MiB given to the printing process from OS
             0 MiB allocation reported by mallinfo(arena+hblkhd)
        215109 MiB available memory on the node where the printing process lives
------------------
     ethr =  2.49E-05,  avg # of iterations =  1.0

     negative rho (up, down):  8.837E-02 0.000E+00

     total cpu time spent up to now is       33.6 secs

     total energy              =   -2780.37404203 Ry
     estimated scf accuracy    <       0.01411753 Ry

     iteration # 10     ecut=    30.00 Ry     beta= 0.70
     Davidson diagonalization with overlap

---- Real-time Memory Report at c_bands before calling an iterative solver
           353 MiB given to the printing process from OS
             0 MiB allocation reported by mallinfo(arena+hblkhd)
        215134 MiB available memory on the node where the printing process lives
------------------
     ethr =  8.50E-06,  avg # of iterations =  2.6

     negative rho (up, down):  8.837E-02 0.000E+00

     total cpu time spent up to now is       36.7 secs

     total energy              =   -2780.37440273 Ry
     estimated scf accuracy    <       0.00488298 Ry

     iteration # 11     ecut=    30.00 Ry     beta= 0.70
     Davidson diagonalization with overlap

---- Real-time Memory Report at c_bands before calling an iterative solver
           353 MiB given to the printing process from OS
             0 MiB allocation reported by mallinfo(arena+hblkhd)
        215040 MiB available memory on the node where the printing process lives
------------------
     ethr =  2.94E-06,  avg # of iterations =  2.8

     negative rho (up, down):  8.838E-02 0.000E+00

     total cpu time spent up to now is       40.1 secs

     total energy              =   -2780.37412152 Ry
     estimated scf accuracy    <       0.00378177 Ry

     iteration # 12     ecut=    30.00 Ry     beta= 0.70
     Davidson diagonalization with overlap

---- Real-time Memory Report at c_bands before calling an iterative solver
           353 MiB given to the printing process from OS
             0 MiB allocation reported by mallinfo(arena+hblkhd)
        214986 MiB available memory on the node where the printing process lives
------------------
     ethr =  2.28E-06,  avg # of iterations =  1.0

     negative rho (up, down):  8.839E-02 0.000E+00

     total cpu time spent up to now is       42.8 secs

     total energy              =   -2780.37308060 Ry
     estimated scf accuracy    <       0.00340676 Ry

     iteration # 13     ecut=    30.00 Ry     beta= 0.70
     Davidson diagonalization with overlap

---- Real-time Memory Report at c_bands before calling an iterative solver
           353 MiB given to the printing process from OS
             0 MiB allocation reported by mallinfo(arena+hblkhd)
        214955 MiB available memory on the node where the printing process lives
------------------
     ethr =  2.05E-06,  avg # of iterations =  1.1

     negative rho (up, down):  8.839E-02 0.000E+00

     total cpu time spent up to now is       45.5 secs

     total energy              =   -2780.37262700 Ry
     estimated scf accuracy    <       0.00235944 Ry

     iteration # 14     ecut=    30.00 Ry     beta= 0.70
     Davidson diagonalization with overlap

---- Real-time Memory Report at c_bands before calling an iterative solver
           353 MiB given to the printing process from OS
             0 MiB allocation reported by mallinfo(arena+hblkhd)
        214934 MiB available memory on the node where the printing process lives
------------------
     ethr =  1.42E-06,  avg # of iterations =  1.0

     negative rho (up, down):  8.839E-02 0.000E+00

     total cpu time spent up to now is       48.2 secs

     total energy              =   -2780.37256680 Ry
     estimated scf accuracy    <       0.00236525 Ry

     iteration # 15     ecut=    30.00 Ry     beta= 0.70
     Davidson diagonalization with overlap

---- Real-time Memory Report at c_bands before calling an iterative solver
           353 MiB given to the printing process from OS
             0 MiB allocation reported by mallinfo(arena+hblkhd)
        214985 MiB available memory on the node where the printing process lives
------------------
     ethr =  1.42E-06,  avg # of iterations =  1.0

     negative rho (up, down):  8.839E-02 0.000E+00

     total cpu time spent up to now is       50.8 secs

     total energy              =   -2780.37376150 Ry
     estimated scf accuracy    <       0.00243123 Ry

     iteration # 16     ecut=    30.00 Ry     beta= 0.70
     Davidson diagonalization with overlap

---- Real-time Memory Report at c_bands before calling an iterative solver
           353 MiB given to the printing process from OS
             0 MiB allocation reported by mallinfo(arena+hblkhd)
        214996 MiB available memory on the node where the printing process lives
------------------
     ethr =  1.42E-06,  avg # of iterations =  1.0

     negative rho (up, down):  8.838E-02 0.000E+00

     total cpu time spent up to now is       53.5 secs

     total energy              =   -2780.37473311 Ry
     estimated scf accuracy    <       0.00137092 Ry

     iteration # 17     ecut=    30.00 Ry     beta= 0.70
     Davidson diagonalization with overlap

---- Real-time Memory Report at c_bands before calling an iterative solver
           353 MiB given to the printing process from OS
             0 MiB allocation reported by mallinfo(arena+hblkhd)
        214998 MiB available memory on the node where the printing process lives
------------------
     ethr =  8.26E-07,  avg # of iterations =  1.0

     negative rho (up, down):  8.839E-02 0.000E+00

     total cpu time spent up to now is       56.2 secs

     total energy              =   -2780.37445552 Ry
     estimated scf accuracy    <       0.00795205 Ry

     iteration # 18     ecut=    30.00 Ry     beta= 0.70
     Davidson diagonalization with overlap

---- Real-time Memory Report at c_bands before calling an iterative solver
           353 MiB given to the printing process from OS
             0 MiB allocation reported by mallinfo(arena+hblkhd)
        214997 MiB available memory on the node where the printing process lives
------------------
     ethr =  8.26E-07,  avg # of iterations =  1.0

     negative rho (up, down):  8.838E-02 0.000E+00

     total cpu time spent up to now is       58.8 secs

     total energy              =   -2780.37420100 Ry
     estimated scf accuracy    <       0.00141829 Ry

     iteration # 19     ecut=    30.00 Ry     beta= 0.70
     Davidson diagonalization with overlap

---- Real-time Memory Report at c_bands before calling an iterative solver
           353 MiB given to the printing process from OS
             0 MiB allocation reported by mallinfo(arena+hblkhd)
        214996 MiB available memory on the node where the printing process lives
------------------
     ethr =  8.26E-07,  avg # of iterations =  1.0

     negative rho (up, down):  8.838E-02 0.000E+00

     total cpu time spent up to now is       61.5 secs

     total energy              =   -2780.37405529 Ry
     estimated scf accuracy    <       0.00146936 Ry

     iteration # 20     ecut=    30.00 Ry     beta= 0.70
     Davidson diagonalization with overlap

---- Real-time Memory Report at c_bands before calling an iterative solver
           353 MiB given to the printing process from OS
             0 MiB allocation reported by mallinfo(arena+hblkhd)
        214994 MiB available memory on the node where the printing process lives
------------------
     ethr =  8.26E-07,  avg # of iterations =  1.0

     negative rho (up, down):  8.838E-02 0.000E+00

     total cpu time spent up to now is       64.2 secs

     total energy              =   -2780.37386012 Ry
     estimated scf accuracy    <       0.00115385 Ry

     iteration # 21     ecut=    30.00 Ry     beta= 0.70
     Davidson diagonalization with overlap

---- Real-time Memory Report at c_bands before calling an iterative solver
           353 MiB given to the printing process from OS
             0 MiB allocation reported by mallinfo(arena+hblkhd)
        215008 MiB available memory on the node where the printing process lives
------------------
     ethr =  6.95E-07,  avg # of iterations =  1.0

     negative rho (up, down):  8.838E-02 0.000E+00

     total cpu time spent up to now is       66.9 secs

     total energy              =   -2780.37369993 Ry
     estimated scf accuracy    <       0.00118693 Ry

     iteration # 22     ecut=    30.00 Ry     beta= 0.70
     Davidson diagonalization with overlap

---- Real-time Memory Report at c_bands before calling an iterative solver
           353 MiB given to the printing process from OS
             0 MiB allocation reported by mallinfo(arena+hblkhd)
        215072 MiB available memory on the node where the printing process lives
------------------
     ethr =  6.95E-07,  avg # of iterations =  1.0

     negative rho (up, down):  8.838E-02 0.000E+00

     total cpu time spent up to now is       69.6 secs

     total energy              =   -2780.37384519 Ry
     estimated scf accuracy    <       0.00212798 Ry

     iteration # 23     ecut=    30.00 Ry     beta= 0.70
     Davidson diagonalization with overlap

---- Real-time Memory Report at c_bands before calling an iterative solver
           353 MiB given to the printing process from OS
             0 MiB allocation reported by mallinfo(arena+hblkhd)
        215102 MiB available memory on the node where the printing process lives
------------------
     ethr =  6.95E-07,  avg # of iterations =  1.0

     negative rho (up, down):  8.838E-02 0.000E+00

     total cpu time spent up to now is       72.3 secs

     total energy              =   -2780.37434768 Ry
     estimated scf accuracy    <       0.00144054 Ry

     iteration # 24     ecut=    30.00 Ry     beta= 0.70
     Davidson diagonalization with overlap

---- Real-time Memory Report at c_bands before calling an iterative solver
           353 MiB given to the printing process from OS
             0 MiB allocation reported by mallinfo(arena+hblkhd)
        215159 MiB available memory on the node where the printing process lives
------------------
     ethr =  6.95E-07,  avg # of iterations =  1.0

     negative rho (up, down):  8.838E-02 0.000E+00

     total cpu time spent up to now is       74.9 secs

     total energy              =   -2780.37435586 Ry
     estimated scf accuracy    <       0.00094704 Ry

     iteration # 25     ecut=    30.00 Ry     beta= 0.70
     Davidson diagonalization with overlap

---- Real-time Memory Report at c_bands before calling an iterative solver
           353 MiB given to the printing process from OS
             0 MiB allocation reported by mallinfo(arena+hblkhd)
        215159 MiB available memory on the node where the printing process lives
------------------
     ethr =  5.71E-07,  avg # of iterations =  1.0

     negative rho (up, down):  8.838E-02 0.000E+00

     total cpu time spent up to now is       77.7 secs

     total energy              =   -2780.37486252 Ry
     estimated scf accuracy    <       0.00685331 Ry

     iteration # 26     ecut=    30.00 Ry     beta= 0.70
     Davidson diagonalization with overlap

---- Real-time Memory Report at c_bands before calling an iterative solver
           353 MiB given to the printing process from OS
             0 MiB allocation reported by mallinfo(arena+hblkhd)
        215176 MiB available memory on the node where the printing process lives
------------------
     ethr =  5.71E-07,  avg # of iterations =  1.0

     negative rho (up, down):  8.838E-02 0.000E+00

     total cpu time spent up to now is       80.4 secs

     total energy              =   -2780.37499137 Ry
     estimated scf accuracy    <       0.00021743 Ry

     iteration # 27     ecut=    30.00 Ry     beta= 0.70
     Davidson diagonalization with overlap

---- Real-time Memory Report at c_bands before calling an iterative solver
           353 MiB given to the printing process from OS
             0 MiB allocation reported by mallinfo(arena+hblkhd)
        215133 MiB available memory on the node where the printing process lives
------------------
     ethr =  1.31E-07,  avg # of iterations =  1.0

     negative rho (up, down):  8.839E-02 0.000E+00

     total cpu time spent up to now is       83.1 secs

     total energy              =   -2780.37502771 Ry
     estimated scf accuracy    <       0.00015362 Ry

     iteration # 28     ecut=    30.00 Ry     beta= 0.70
     Davidson diagonalization with overlap

---- Real-time Memory Report at c_bands before calling an iterative solver
           353 MiB given to the printing process from OS
             0 MiB allocation reported by mallinfo(arena+hblkhd)
        215121 MiB available memory on the node where the printing process lives
------------------
     ethr =  9.25E-08,  avg # of iterations =  1.0

     negative rho (up, down):  8.839E-02 0.000E+00

     total cpu time spent up to now is       85.9 secs

     total energy              =   -2780.37504053 Ry
     estimated scf accuracy    <       0.00002832 Ry

     iteration # 29     ecut=    30.00 Ry     beta= 0.70
     Davidson diagonalization with overlap

---- Real-time Memory Report at c_bands before calling an iterative solver
           353 MiB given to the printing process from OS
             0 MiB allocation reported by mallinfo(arena+hblkhd)
        215115 MiB available memory on the node where the printing process lives
------------------
     ethr =  1.71E-08,  avg # of iterations =  1.0

     negative rho (up, down):  8.839E-02 0.000E+00

     total cpu time spent up to now is       88.6 secs

     total energy              =   -2780.37504584 Ry
     estimated scf accuracy    <       0.00000920 Ry

     iteration # 30     ecut=    30.00 Ry     beta= 0.70
     Davidson diagonalization with overlap

---- Real-time Memory Report at c_bands before calling an iterative solver
           353 MiB given to the printing process from OS
             0 MiB allocation reported by mallinfo(arena+hblkhd)
        215200 MiB available memory on the node where the printing process lives
------------------
     ethr =  5.54E-09,  avg # of iterations =  1.0

     negative rho (up, down):  8.839E-02 0.000E+00

     total cpu time spent up to now is       91.2 secs

     total energy              =   -2780.37504631 Ry
     estimated scf accuracy    <       0.00001621 Ry

     iteration # 31     ecut=    30.00 Ry     beta= 0.70
     Davidson diagonalization with overlap

---- Real-time Memory Report at c_bands before calling an iterative solver
           353 MiB given to the printing process from OS
             0 MiB allocation reported by mallinfo(arena+hblkhd)
        215135 MiB available memory on the node where the printing process lives
------------------
     ethr =  5.54E-09,  avg # of iterations =  1.0

     negative rho (up, down):  8.839E-02 0.000E+00

     total cpu time spent up to now is       93.8 secs

     total energy              =   -2780.37504724 Ry
     estimated scf accuracy    <       0.00000606 Ry

     iteration # 32     ecut=    30.00 Ry     beta= 0.70
     Davidson diagonalization with overlap

---- Real-time Memory Report at c_bands before calling an iterative solver
           353 MiB given to the printing process from OS
             0 MiB allocation reported by mallinfo(arena+hblkhd)
        215047 MiB available memory on the node where the printing process lives
------------------
     ethr =  3.65E-09,  avg # of iterations =  1.0

     negative rho (up, down):  8.839E-02 0.000E+00

     total cpu time spent up to now is       96.5 secs

     End of self-consistent calculation

          k = 0.0000 0.0000 0.0000 (  4579 PWs)   bands (ev):

   -76.2552 -76.2533 -75.9690 -75.9641 -41.8861 -41.8793 -41.8784 -41.8750
   -41.7987 -41.7906 -41.7369 -41.7213 -41.6466 -41.6280 -41.3620 -41.3469
   -30.7424 -30.7336 -15.9579 -15.8755 -11.1519 -11.0665 -10.9235 -10.7069
   -10.6963 -10.6948  -7.5265  -7.0740  -6.9240  -6.8815  -6.7808  -6.6745
    -6.5890  -6.4689  -6.4000  -6.3260  -1.1508  -1.1184  -0.9313  -0.9289
    -0.9273  -0.7598   5.7425   5.7804   5.9674   6.0510   6.3016   6.3124
     6.5675   6.5931   6.6863   6.7574   6.7847   6.9977   7.0815   7.2846
     7.3127   7.4418   7.4864   7.5694   7.9169   7.9696   8.0498   8.1337
     8.2051   8.3316   8.3920   8.6345   8.6350   8.6978   8.9621   9.0053
     9.7659   9.8584  10.4752  10.4757  10.5057  10.7235  10.7502  10.8869
    10.9353  10.9549  10.9608  11.0694  11.1032  11.1279  11.5574  11.6798
    12.1026  12.1466  12.4114  12.7958  13.7562  13.8333  14.3069  14.8025
    15.4831  15.5914  15.9736  16.0317  16.1132  16.8319  16.8382  17.0772
    17.0830  17.2219  17.5476  17.6539  17.8980  18.4502  18.4634  18.5525
    18.5596  18.6909  19.0001  19.0585  19.5347  20.9530  21.0778  21.2300
    21.8042  22.0282  22.1725  22.4849  22.6306  22.6723  22.9180  23.1398
    23.5451  24.1691  24.5195  24.6051  25.2729  25.6961  26.0621  26.2748
    26.3580  26.8469  27.4067  27.4445  27.6428  27.7725  27.9263  28.1549
    28.4123  28.5802  28.6700  28.8210  29.1664  29.2991  29.4426  29.6129
    29.6523  30.3728  30.5577  30.6751  30.7689  31.4028  31.4109  31.5805
    32.3395  32.3498  32.3755  32.4321  32.5138  33.2211  33.3704  33.7907
    33.7912  33.9640  34.1524  34.3331  34.3652  34.4788  34.8642  34.9045
    35.2355  35.3554  35.3980  35.5880  36.0595  36.0659  36.2336  36.2728
    36.4482  36.4929  36.5591  36.6507  37.3053  37.7440  37.7830  37.9109
    38.2059  38.3329  38.4196  38.5134  39.2994  39.5454  39.7327  39.9200
    39.9633  40.0434  40.0811  40.6576  40.7563  41.3829  41.5265  41.5278
    41.5398  41.5426  41.6528  42.1332  42.3347  42.5481  42.6016  42.6504
    42.8017  43.1323  43.6257  43.7265  44.0289  44.0438  44.2085  44.2280
    44.3109  44.3143  44.5227  44.6191  44.9572  44.9680  45.2540  45.3373
    45.6723  46.0002  46.0249  46.6514  46.6666  46.7122  46.7958  46.8178
    46.8877  47.0071  47.0864  47.3668  47.4188  47.5820  47.7324  47.8672
    47.8928  47.9518  48.1522  48.1995  48.2003  48.6153  48.7327  48.8771

     occupation numbers 
     1.0000   1.0000   1.0000   1.0000   1.0000   1.0000   1.0000   1.0000
     1.0000   1.0000   1.0000   1.0000   1.0000   1.0000   1.0000   1.0000
     1.0000   1.0000   1.0000   1.0000   1.0000   1.0000   1.0000   1.0000
     1.0000   1.0000   1.0000   1.0000   1.0000   1.0000   1.0000   1.0000
     1.0000   1.0000   1.0000   1.0000   1.0000   1.0000   1.0000   1.0000
     1.0000   1.0000   1.0000   1.0000   1.0000   1.0000   1.0000   1.0000
     1.0000   1.0000   1.0000   1.0000   1.0000   1.0000   1.0000   1.0000
     1.0000   1.0000   1.0000   1.0000   1.0000   1.0000   1.0000   1.0000
     1.0000   1.0000   1.0000   1.0000   1.0000   1.0000   1.0000   1.0000
     1.0000   1.0000   1.0000   1.0000   1.0000   1.0000   1.0000   1.0000
     1.0000   1.0000   1.0000   0.0000   0.0000   0.0000   0.0000   0.0000
     0.0000   0.0000   0.0000   0.0000   0.0000   0.0000   0.0000   0.0000
     0.0000   0.0000   0.0000   0.0000   0.0000   0.0000   0.0000   0.0000
     0.0000   0.0000   0.0000   0.0000   0.0000   0.0000   0.0000   0.0000
     0.0000   0.0000   0.0000   0.0000   0.0000   0.0000   0.0000   0.0000
     0.0000   0.0000   0.0000   0.0000   0.0000   0.0000   0.0000   0.0000
     0.0000   0.0000   0.0000   0.0000   0.0000   0.0000   0.0000   0.0000
     0.0000   0.0000   0.0000   0.0000   0.0000   0.0000   0.0000   0.0000
     0.0000   0.0000   0.0000   0.0000   0.0000   0.0000   0.0000   0.0000
     0.0000   0.0000   0.0000   0.0000   0.0000   0.0000   0.0000   0.0000
     0.0000   0.0000   0.0000   0.0000   0.0000   0.0000   0.0000   0.0000
     0.0000   0.0000   0.0000   0.0000   0.0000   0.0000   0.0000   0.0000
     0.0000   0.0000   0.0000   0.0000   0.0000   0.0000   0.0000   0.0000
     0.0000   0.0000   0.0000   0.0000   0.0000   0.0000   0.0000   0.0000
     0.0000   0.0000   0.0000   0.0000   0.0000   0.0000   0.0000   0.0000
     0.0000   0.0000   0.0000   0.0000   0.0000   0.0000   0.0000   0.0000
     0.0000   0.0000   0.0000   0.0000   0.0000   0.0000   0.0000   0.0000
     0.0000   0.0000   0.0000   0.0000   0.0000   0.0000   0.0000   0.0000
     0.0000   0.0000   0.0000   0.0000   0.0000   0.0000   0.0000   0.0000
     0.0000   0.0000   0.0000   0.0000   0.0000   0.0000   0.0000   0.0000
     0.0000   0.0000   0.0000   0.0000   0.0000   0.0000   0.0000   0.0000
     0.0000   0.0000   0.0000   0.0000   0.0000   0.0000   0.0000   0.0000

          k = 0.0000 0.0000 0.1665 (  4576 PWs)   bands (ev):

   -76.2560 -76.2523 -75.9679 -75.9651 -41.8924 -41.8884 -41.8702 -41.8655
   -41.7978 -41.7867 -41.7325 -41.7253 -41.6410 -41.6365 -41.3620 -41.3441
   -30.7402 -30.7358 -15.9376 -15.8964 -11.0757 -11.0053 -10.9699 -10.8131
   -10.7038 -10.6978  -7.3898  -7.1494  -6.8717  -6.8618  -6.7740  -6.7396
    -6.5497  -6.5059  -6.4172  -6.3677  -1.1431  -1.1269  -0.9368  -0.9349
    -0.8880  -0.8036   5.8842   5.9522   6.0204   6.1781   6.2649   6.3906
     6.5025   6.5596   6.6279   6.6345   6.8135   6.9046   7.0760   7.1625
     7.4962   7.5936   7.7340   7.8338   7.8726   7.9485   8.0253   8.0767
     8.1422   8.3095   8.3236   8.4195   8.4382   8.4758   8.6451   8.8038
    10.1491  10.2271  10.3162  10.4685  10.4990  10.5850  10.5996  10.6167
    10.7540  10.7651  10.9871  10.9926  11.0794  11.0950  11.9348  12.0127
    12.1068  12.1392  12.5489  12.7651  14.1955  14.3027  14.7119  14.8733
    15.3641  15.5065  15.5610  16.0988  16.3679  16.5910  16.8238  16.8847
    17.0072  17.5380  17.6217  17.7390  17.8204  17.9174  17.9777  18.4845
    18.5086  18.5766  18.6759  18.8642  19.5760  20.4813  21.3595  21.5368
    21.8398  21.8880  22.0614  22.5498  23.1714  23.2270  23.5226  23.5945
    24.4468  24.6293  24.6704  24.7580  24.7597  24.7804  25.2091  26.2417
    26.5446  26.9892  27.0475  27.3297  27.4870  27.6464  27.7415  27.9880
    28.0313  28.2066  28.4001  29.1406  29.1882  29.2736  29.6147  29.8765
    30.1215  30.3651  30.4431  30.7474  30.7690  31.4861  31.6652  31.6785
    31.7918  32.0301  32.3165  32.6962  32.8374  32.9087  33.1583  33.2676
    34.1122  34.2356  34.4060  34.4565  34.5900  34.8018  34.8648  34.8669
    35.0805  35.1971  35.2203  35.3177  35.3747  35.4721  35.7593  36.2186
    36.4860  36.8459  37.0988  37.4217  37.5928  37.8168  37.9563  38.1428
    38.2065  38.5450  38.5594  38.8266  39.1174  39.1716  39.4180  39.8280
    40.0406  40.1175  40.4375  40.5616  40.9366  41.0180  41.0789  41.3282
    41.4103  41.5471  41.9924  42.0897  42.6250  42.8377  42.9177  43.1761
    43.2696  43.2835  43.6200  43.7417  43.9278  44.0954  44.3146  44.3743
    44.4168  44.5156  44.9725  45.0188  45.2734  45.4679  45.4754  45.5026
    45.7109  45.7736  45.9966  46.0932  46.1467  46.2911  46.3880  46.4363
    46.4707  46.7844  46.8046  46.8635  47.2369  47.3722  47.5152  47.5309
    47.6569  47.9293  48.3016  48.3111  48.3207  48.3424  48.6214  48.7024

     occupation numbers 
     1.0000   1.0000   1.0000   1.0000   1.0000   1.0000   1.0000   1.0000
     1.0000   1.0000   1.0000   1.0000   1.0000   1.0000   1.0000   1.0000
     1.0000   1.0000   1.0000   1.0000   1.0000   1.0000   1.0000   1.0000
     1.0000   1.0000   1.0000   1.0000   1.0000   1.0000   1.0000   1.0000
     1.0000   1.0000   1.0000   1.0000   1.0000   1.0000   1.0000   1.0000
     1.0000   1.0000   1.0000   1.0000   1.0000   1.0000   1.0000   1.0000
     1.0000   1.0000   1.0000   1.0000   1.0000   1.0000   1.0000   1.0000
     1.0000   1.0000   1.0000   1.0000   1.0000   1.0000   1.0000   1.0000
     1.0000   1.0000   1.0000   1.0000   1.0000   1.0000   1.0000   1.0000
     1.0000   1.0000   1.0000   1.0000   1.0000   1.0000   1.0000   1.0000
     1.0000   1.0000   1.0000   0.0000   0.0000   0.0000   0.0000   0.0000
     0.0000   0.0000   0.0000   0.0000   0.0000   0.0000   0.0000   0.0000
     0.0000   0.0000   0.0000   0.0000   0.0000   0.0000   0.0000   0.0000
     0.0000   0.0000   0.0000   0.0000   0.0000   0.0000   0.0000   0.0000
     0.0000   0.0000   0.0000   0.0000   0.0000   0.0000   0.0000   0.0000
     0.0000   0.0000   0.0000   0.0000   0.0000   0.0000   0.0000   0.0000
     0.0000   0.0000   0.0000   0.0000   0.0000   0.0000   0.0000   0.0000
     0.0000   0.0000   0.0000   0.0000   0.0000   0.0000   0.0000   0.0000
     0.0000   0.0000   0.0000   0.0000   0.0000   0.0000   0.0000   0.0000
     0.0000   0.0000   0.0000   0.0000   0.0000   0.0000   0.0000   0.0000
     0.0000   0.0000   0.0000   0.0000   0.0000   0.0000   0.0000   0.0000
     0.0000   0.0000   0.0000   0.0000   0.0000   0.0000   0.0000   0.0000
     0.0000   0.0000   0.0000   0.0000   0.0000   0.0000   0.0000   0.0000
     0.0000   0.0000   0.0000   0.0000   0.0000   0.0000   0.0000   0.0000
     0.0000   0.0000   0.0000   0.0000   0.0000   0.0000   0.0000   0.0000
     0.0000   0.0000   0.0000   0.0000   0.0000   0.0000   0.0000   0.0000
     0.0000   0.0000   0.0000   0.0000   0.0000   0.0000   0.0000   0.0000
     0.0000   0.0000   0.0000   0.0000   0.0000   0.0000   0.0000   0.0000
     0.0000   0.0000   0.0000   0.0000   0.0000   0.0000   0.0000   0.0000
     0.0000   0.0000   0.0000   0.0000   0.0000   0.0000   0.0000   0.0000
     0.0000   0.0000   0.0000   0.0000   0.0000   0.0000   0.0000   0.0000
     0.0000   0.0000   0.0000   0.0000   0.0000   0.0000   0.0000   0.0000

          k = 0.0000 0.1718 0.0000 (  4560 PWs)   bands (ev):

   -76.2540 -76.2524 -75.9668 -75.9642 -41.8811 -41.8758 -41.8737 -41.8682
   -41.7973 -41.7861 -41.7338 -41.7218 -41.6480 -41.6280 -41.3462 -41.3433
   -30.7424 -30.7336 -15.9585 -15.8759 -11.1500 -11.0618 -10.9202 -10.7070
   -10.6963 -10.6948  -7.5504  -7.1490  -6.9063  -6.8873  -6.7873  -6.5897
    -6.5608  -6.5001  -6.3763  -6.3379  -1.1714  -1.1335  -0.9308  -0.9296
    -0.9280  -0.7606   5.6098   5.8921   6.1989   6.3220   6.3719   6.3798
     6.5376   6.5925   6.7226   6.7523   6.7658   6.9941   7.1202   7.1216
     7.2859   7.3105   7.4491   7.4729   7.5105   7.9660   8.1247   8.1388
     8.1741   8.2145   8.5936   8.6771   8.6917   8.7897   8.8769   8.9181
     9.7785   9.8456  10.4804  10.4812  10.5023  10.7479  10.7514  10.9610
    11.0405  11.0779  11.0808  11.1080  11.1214  11.1305  11.5573  11.6653
    12.0164  12.1245  12.2755  12.5276  13.9739  14.1639  14.8881  15.1315
    15.4837  15.5853  15.5917  16.0666  16.2034  16.7643  16.7799  17.0328
    17.0416  17.2127  17.2706  17.5440  17.5465  17.6619  17.6975  18.2507
    18.3469  18.4173  18.9878  19.3874  20.1055  20.3754  21.5128  21.6106
    21.9088  22.1665  22.3925  22.7424  22.7955  23.1560  23.5139  24.0311
    24.2144  24.3920  24.5064  24.5425  25.3952  25.5121  26.0680  26.3592
    26.7919  26.8698  26.9535  27.4434  27.4565  27.5888  27.6159  27.6642
    27.7702  28.3546  28.4947  28.5116  28.9594  28.9945  29.2883  29.6409
    29.6590  30.6383  30.6638  31.0299  31.1910  31.3116  31.5166  31.6269
    31.7545  32.0248  32.0988  32.5488  32.5898  32.6458  33.0121  33.2303
    33.2914  33.3214  33.8485  33.9160  34.5047  34.8290  35.1503  35.1654
    35.2290  35.2742  35.6457  35.7926  36.1141  36.2097  36.2966  36.3899
    36.3911  36.6592  37.0502  37.4286  37.5277  37.5876  37.6043  38.0844
    38.5299  38.6190  38.6836  38.9678  39.2546  39.9162  39.9755  40.1336
    40.1375  40.5654  40.5812  40.7925  40.9343  40.9497  40.9985  41.2430
    41.4868  41.5673  41.9292  42.0007  42.1213  42.5196  42.6525  43.1057
    43.1350  43.2012  43.6408  43.7333  43.7375  43.9990  44.1254  44.1337
    44.1484  44.8115  44.9921  45.0871  45.1125  45.5056  45.5406  45.5552
    45.6109  45.8404  45.8712  46.1656  46.1770  46.2269  46.2669  46.4122
    46.5826  46.6786  46.9346  47.0209  47.0987  47.2123  47.4389  47.6554
    47.7232  47.7247  48.0036  48.1654  48.2502  48.4969  48.8483  48.8944

     occupation numbers 
     1.0000   1.0000   1.0000   1.0000   1.0000   1.0000   1.0000   1.0000
     1.0000   1.0000   1.0000   1.0000   1.0000   1.0000   1.0000   1.0000
     1.0000   1.0000   1.0000   1.0000   1.0000   1.0000   1.0000   1.0000
     1.0000   1.0000   1.0000   1.0000   1.0000   1.0000   1.0000   1.0000
     1.0000   1.0000   1.0000   1.0000   1.0000   1.0000   1.0000   1.0000
     1.0000   1.0000   1.0000   1.0000   1.0000   1.0000   1.0000   1.0000
     1.0000   1.0000   1.0000   1.0000   1.0000   1.0000   1.0000   1.0000
     1.0000   1.0000   1.0000   1.0000   1.0000   1.0000   1.0000   1.0000
     1.0000   1.0000   1.0000   1.0000   1.0000   1.0000   1.0000   1.0000
     1.0000   1.0000   1.0000   1.0000   1.0000   1.0000   1.0000   1.0000
     1.0000   1.0000   1.0000   0.0000   0.0000   0.0000   0.0000   0.0000
     0.0000   0.0000   0.0000   0.0000   0.0000   0.0000   0.0000   0.0000
     0.0000   0.0000   0.0000   0.0000   0.0000   0.0000   0.0000   0.0000
     0.0000   0.0000   0.0000   0.0000   0.0000   0.0000   0.0000   0.0000
     0.0000   0.0000   0.0000   0.0000   0.0000   0.0000   0.0000   0.0000
     0.0000   0.0000   0.0000   0.0000   0.0000   0.0000   0.0000   0.0000
     0.0000   0.0000   0.0000   0.0000   0.0000   0.0000   0.0000   0.0000
     0.0000   0.0000   0.0000   0.0000   0.0000   0.0000   0.0000   0.0000
     0.0000   0.0000   0.0000   0.0000   0.0000   0.0000   0.0000   0.0000
     0.0000   0.0000   0.0000   0.0000   0.0000   0.0000   0.0000   0.0000
     0.0000   0.0000   0.0000   0.0000   0.0000   0.0000   0.0000   0.0000
     0.0000   0.0000   0.0000   0.0000   0.0000   0.0000   0.0000   0.0000
     0.0000   0.0000   0.0000   0.0000   0.0000   0.0000   0.0000   0.0000
     0.0000   0.0000   0.0000   0.0000   0.0000   0.0000   0.0000   0.0000
     0.0000   0.0000   0.0000   0.0000   0.0000   0.0000   0.0000   0.0000
     0.0000   0.0000   0.0000   0.0000   0.0000   0.0000   0.0000   0.0000
     0.0000   0.0000   0.0000   0.0000   0.0000   0.0000   0.0000   0.0000
     0.0000   0.0000   0.0000   0.0000   0.0000   0.0000   0.0000   0.0000
     0.0000   0.0000   0.0000   0.0000   0.0000   0.0000   0.0000   0.0000
     0.0000   0.0000   0.0000   0.0000   0.0000   0.0000   0.0000   0.0000
     0.0000   0.0000   0.0000   0.0000   0.0000   0.0000   0.0000   0.0000
     0.0000   0.0000   0.0000   0.0000   0.0000   0.0000   0.0000   0.0000

          k = 0.0000 0.1718 0.1665 (  4569 PWs)   bands (ev):

   -76.2549 -76.2527 -75.9665 -75.9657 -41.8874 -41.8766 -41.8753 -41.8689
   -41.7956 -41.7873 -41.7312 -41.7254 -41.6413 -41.6343 -41.3542 -41.3462
   -30.7402 -30.7358 -15.9382 -15.8969 -11.0723 -11.0032 -10.9661 -10.8133
   -10.7039 -10.6978  -7.4006  -7.1251  -7.0250  -6.9127  -6.7228  -6.6152
    -6.5327  -6.5140  -6.4039  -6.3764  -1.1592  -1.1398  -0.9340  -0.9327
    -0.8888  -0.8043   5.7814   6.0515   6.1321   6.3133   6.4241   6.4439
     6.4791   6.6118   6.6201   6.6941   6.7809   6.8890   7.0445   7.0754
     7.2522   7.5017   7.5163   7.7435   7.7850   7.8700   7.9285   8.0416
     8.1433   8.3409   8.4014   8.4254   8.4782   8.6732   8.8441   8.8773
    10.1571  10.1984  10.2568  10.4692  10.4892  10.5119  10.5939  10.7363
    10.7774  10.8477  11.0858  11.1029  11.1553  11.1635  11.8989  12.0517
    12.0855  12.1239  12.3364  12.5009  14.4050  14.5015  14.9357  15.2763
    15.5085  15.5411  15.5610  16.0247  16.1038  16.3003  16.6262  16.8265
    17.0386  17.0845  17.2046  17.4824  17.8728  17.9041  17.9155  18.2684
    18.3234  18.4288  18.4413  18.6462  20.1992  20.4203  21.1119  21.2015
    22.1365  22.2408  23.3296  23.5039  23.6320  23.6334  23.8760  24.0476
    24.6138  24.6406  24.6666  24.7340  24.8408  24.9131  25.2396  25.3546
    26.1080  26.6584  26.9431  27.0095  27.0340  27.5706  27.7190  27.9735
    28.3657  28.5958  28.7727  28.8214  29.0215  29.2237  29.4736  29.8020
    29.9834  30.0734  30.4666  30.6797  30.7065  30.7893  31.2088  31.2323
    31.6783  31.8961  32.4848  32.4971  32.6378  33.1316  33.1577  33.3811
    33.5522  33.7716  33.8628  34.1672  34.1725  34.3411  34.5230  34.8825
    35.0691  35.1064  35.2766  35.5174  35.6062  36.7118  36.8209  36.8797
    37.1693  37.2970  37.5525  37.6231  37.8281  38.0735  38.1270  38.4327
    38.4727  38.6775  38.7670  38.8478  39.0137  39.3002  39.4140  39.8121
    39.9385  40.1621  40.6666  40.8255  40.8877  41.2018  41.3194  41.3435
    41.5900  41.9068  41.9633  41.9719  42.1349  42.3056  42.6570  42.8534
    43.1133  43.2871  43.3790  43.5084  43.9298  44.0815  44.1391  44.3866
    44.5354  44.6631  44.9343  44.9477  45.0791  45.1736  45.2468  45.2766
    45.3257  45.7402  45.8133  45.9431  45.9706  46.1244  46.3211  46.4099
    46.4516  46.7663  46.9660  46.9872  47.1774  47.3080  47.5525  47.8162
    47.9149  48.0285  48.2808  48.3789  48.3961  48.4862  48.6429  48.7395

     occupation numbers 
     1.0000   1.0000   1.0000   1.0000   1.0000   1.0000   1.0000   1.0000
     1.0000   1.0000   1.0000   1.0000   1.0000   1.0000   1.0000   1.0000
     1.0000   1.0000   1.0000   1.0000   1.0000   1.0000   1.0000   1.0000
     1.0000   1.0000   1.0000   1.0000   1.0000   1.0000   1.0000   1.0000
     1.0000   1.0000   1.0000   1.0000   1.0000   1.0000   1.0000   1.0000
     1.0000   1.0000   1.0000   1.0000   1.0000   1.0000   1.0000   1.0000
     1.0000   1.0000   1.0000   1.0000   1.0000   1.0000   1.0000   1.0000
     1.0000   1.0000   1.0000   1.0000   1.0000   1.0000   1.0000   1.0000
     1.0000   1.0000   1.0000   1.0000   1.0000   1.0000   1.0000   1.0000
     1.0000   1.0000   1.0000   1.0000   1.0000   1.0000   1.0000   1.0000
     1.0000   1.0000   1.0000   0.0000   0.0000   0.0000   0.0000   0.0000
     0.0000   0.0000   0.0000   0.0000   0.0000   0.0000   0.0000   0.0000
     0.0000   0.0000   0.0000   0.0000   0.0000   0.0000   0.0000   0.0000
     0.0000   0.0000   0.0000   0.0000   0.0000   0.0000   0.0000   0.0000
     0.0000   0.0000   0.0000   0.0000   0.0000   0.0000   0.0000   0.0000
     0.0000   0.0000   0.0000   0.0000   0.0000   0.0000   0.0000   0.0000
     0.0000   0.0000   0.0000   0.0000   0.0000   0.0000   0.0000   0.0000
     0.0000   0.0000   0.0000   0.0000   0.0000   0.0000   0.0000   0.0000
     0.0000   0.0000   0.0000   0.0000   0.0000   0.0000   0.0000   0.0000
     0.0000   0.0000   0.0000   0.0000   0.0000   0.0000   0.0000   0.0000
     0.0000   0.0000   0.0000   0.0000   0.0000   0.0000   0.0000   0.0000
     0.0000   0.0000   0.0000   0.0000   0.0000   0.0000   0.0000   0.0000
     0.0000   0.0000   0.0000   0.0000   0.0000   0.0000   0.0000   0.0000
     0.0000   0.0000   0.0000   0.0000   0.0000   0.0000   0.0000   0.0000
     0.0000   0.0000   0.0000   0.0000   0.0000   0.0000   0.0000   0.0000
     0.0000   0.0000   0.0000   0.0000   0.0000   0.0000   0.0000   0.0000
     0.0000   0.0000   0.0000   0.0000   0.0000   0.0000   0.0000   0.0000
     0.0000   0.0000   0.0000   0.0000   0.0000   0.0000   0.0000   0.0000
     0.0000   0.0000   0.0000   0.0000   0.0000   0.0000   0.0000   0.0000
     0.0000   0.0000   0.0000   0.0000   0.0000   0.0000   0.0000   0.0000
     0.0000   0.0000   0.0000   0.0000   0.0000   0.0000   0.0000   0.0000
     0.0000   0.0000   0.0000   0.0000   0.0000   0.0000   0.0000   0.0000

          k = 0.3333 0.0000 0.0000 (  4563 PWs)   bands (ev):

   -76.2541 -76.2530 -75.9665 -75.9654 -41.8820 -41.8818 -41.8763 -41.8754
   -41.7945 -41.7810 -41.7261 -41.7236 -41.6401 -41.6309 -41.3555 -41.3543
   -30.7358 -30.7273 -15.8959 -15.8282 -11.1123 -11.0351 -11.0047 -10.9541
   -10.8163 -10.6857  -7.1448  -6.9225  -6.8783  -6.8283  -6.6600  -6.6174
    -6.4880  -6.4758  -6.3951  -6.2780  -1.3976  -1.3759  -1.1269  -1.1258
    -0.9477  -0.8009   4.9660   5.4151   5.7026   5.9260   6.0027   6.2123
     6.4996   6.5604   6.5668   6.5917   6.6234   6.7479   6.8598   6.9086
     7.1490   7.3025   7.3857   7.5526   7.7089   7.8311   7.8524   7.9094
     7.9378   8.1272   8.2349   8.3127   8.5142   8.6588   8.9417   9.2380
    10.1954  10.4925  10.5443  10.6093  10.6518  10.7246  10.7674  10.8659
    10.9283  10.9709  10.9817  11.0460  11.0701  11.1552  12.0662  12.0665
    12.4349  12.7976  13.7232  13.7721  14.7244  14.9320  15.1876  15.3131
    15.4830  15.6466  15.9561  16.1516  16.4095  16.7801  17.0138  17.4850
    17.5389  17.5391  17.5526  17.6976  17.9557  18.0484  18.1802  18.5562
    18.6013  18.6407  18.8753  20.4238  20.6687  21.0847  21.2894  21.5293
    21.6053  22.0931  22.2938  22.3707  22.8302  23.2919  23.3547  23.5136
    23.7053  24.4493  24.4694  24.6964  24.8025  25.0667  25.2356  25.5134
    25.5986  26.2409  26.6124  26.8839  27.0589  27.2693  27.5543  28.0026
    28.0648  28.0898  28.1359  29.0489  29.1973  29.3646  29.3981  29.5123
    29.6317  29.9312  30.4391  30.5676  30.8942  31.5126  31.5675  31.7090
    31.7374  32.4127  32.5489  32.5943  32.6837  32.8132  32.9289  32.9752
    33.2701  33.6118  34.1654  34.3717  34.4504  34.4898  34.6717  34.7458
    34.8448  34.9523  35.0734  35.2197  35.3847  35.6390  36.1853  36.3908
    36.6884  36.8850  37.1487  37.3659  37.4135  37.4629  37.4765  37.6340
    37.8557  38.2971  38.5747  38.6067  38.8334  38.8363  39.1520  39.3796
    39.7584  39.8211  40.0246  40.3637  40.6105  40.7517  40.8688  41.1716
    41.2015  41.4165  41.5259  41.7319  41.9401  42.0180  42.1466  42.4484
    42.8278  42.9338  43.1306  43.2624  43.5101  43.8285  44.0127  44.0912
    44.3424  44.4466  44.4853  44.7414  44.9580  45.1164  45.2966  45.4495
    45.5664  45.6405  45.9228  45.9380  46.0101  46.1034  46.2080  46.3423
    46.3428  46.4568  46.5561  46.8343  47.0576  47.2552  47.4452  47.6649
    47.7213  47.9092  47.9489  48.2853  48.3455  48.3707  48.4219  48.8094

     occupation numbers 
     1.0000   1.0000   1.0000   1.0000   1.0000   1.0000   1.0000   1.0000
     1.0000   1.0000   1.0000   1.0000   1.0000   1.0000   1.0000   1.0000
     1.0000   1.0000   1.0000   1.0000   1.0000   1.0000   1.0000   1.0000
     1.0000   1.0000   1.0000   1.0000   1.0000   1.0000   1.0000   1.0000
     1.0000   1.0000   1.0000   1.0000   1.0000   1.0000   1.0000   1.0000
     1.0000   1.0000   1.0000   1.0000   1.0000   1.0000   1.0000   1.0000
     1.0000   1.0000   1.0000   1.0000   1.0000   1.0000   1.0000   1.0000
     1.0000   1.0000   1.0000   1.0000   1.0000   1.0000   1.0000   1.0000
     1.0000   1.0000   1.0000   1.0000   1.0000   1.0000   1.0000   1.0000
     1.0000   1.0000   1.0000   1.0000   1.0000   1.0000   1.0000   1.0000
     1.0000   1.0000   1.0000   0.0000   0.0000   0.0000   0.0000   0.0000
     0.0000   0.0000   0.0000   0.0000   0.0000   0.0000   0.0000   0.0000
     0.0000   0.0000   0.0000   0.0000   0.0000   0.0000   0.0000   0.0000
     0.0000   0.0000   0.0000   0.0000   0.0000   0.0000   0.0000   0.0000
     0.0000   0.0000   0.0000   0.0000   0.0000   0.0000   0.0000   0.0000
     0.0000   0.0000   0.0000   0.0000   0.0000   0.0000   0.0000   0.0000
     0.0000   0.0000   0.0000   0.0000   0.0000   0.0000   0.0000   0.0000
     0.0000   0.0000   0.0000   0.0000   0.0000   0.0000   0.0000   0.0000
     0.0000   0.0000   0.0000   0.0000   0.0000   0.0000   0.0000   0.0000
     0.0000   0.0000   0.0000   0.0000   0.0000   0.0000   0.0000   0.0000
     0.0000   0.0000   0.0000   0.0000   0.0000   0.0000   0.0000   0.0000
     0.0000   0.0000   0.0000   0.0000   0.0000   0.0000   0.0000   0.0000
     0.0000   0.0000   0.0000   0.0000   0.0000   0.0000   0.0000   0.0000
     0.0000   0.0000   0.0000   0.0000   0.0000   0.0000   0.0000   0.0000
     0.0000   0.0000   0.0000   0.0000   0.0000   0.0000   0.0000   0.0000
     0.0000   0.0000   0.0000   0.0000   0.0000   0.0000   0.0000   0.0000
     0.0000   0.0000   0.0000   0.0000   0.0000   0.0000   0.0000   0.0000
     0.0000   0.0000   0.0000   0.0000   0.0000   0.0000   0.0000   0.0000
     0.0000   0.0000   0.0000   0.0000   0.0000   0.0000   0.0000   0.0000
     0.0000   0.0000   0.0000   0.0000   0.0000   0.0000   0.0000   0.0000
     0.0000   0.0000   0.0000   0.0000   0.0000   0.0000   0.0000   0.0000
     0.0000   0.0000   0.0000   0.0000   0.0000   0.0000   0.0000   0.0000

          k = 0.3333 0.0000 0.1665 (  4541 PWs)   bands (ev):

   -76.2522 -76.2519 -75.9651 -75.9638 -41.8789 -41.8781 -41.8737 -41.8723
   -41.7803 -41.7749 -41.7145 -41.7134 -41.6409 -41.6319 -41.3511 -41.3452
   -30.7337 -30.7294 -15.8792 -15.8453 -11.0276 -11.0230 -11.0097 -10.9153
   -10.8626 -10.7920  -7.0580  -6.9381  -6.8096  -6.7822  -6.6923  -6.5763
    -6.5595  -6.4631  -6.4467  -6.3418  -1.4034  -1.1629  -1.1414  -1.1287
    -1.1154  -0.8570   5.2260   5.6084   5.7462   5.9036   6.0186   6.3615
     6.4869   6.5557   6.5998   6.6042   6.6319   6.6861   6.7716   6.7785
     6.8374   7.1402   7.2977   7.3125   7.5463   7.7967   7.9274   8.0768
     8.0934   8.2764   8.3708   8.4002   8.6294   8.7265   8.9884   9.0331
    10.2060  10.4120  10.4298  10.6278  10.6370  10.6841  10.7220  10.7758
    10.7972  10.8321  10.8843  11.0181  11.0667  11.0731  12.4674  12.5022
    12.7531  12.9677  13.4971  13.5549  14.8879  15.0501  15.1365  15.3211
    15.8222  16.0367  16.1388  16.2871  16.4490  16.8298  16.8809  17.2243
    17.3255  17.3364  17.4001  17.4173  17.6275  17.6758  17.7958  17.9699
    18.4785  18.6835  19.4115  20.0829  21.1702  21.3388  21.5479  21.6675
    21.8618  22.1272  22.1899  22.5682  22.8279  23.0353  23.4237  23.9160
    24.1305  24.2969  24.4902  24.9343  24.9620  25.1377  25.3992  25.4042
    26.1266  26.3119  26.6475  26.9850  27.1582  27.1747  27.3301  27.5695
    27.8513  28.1075  28.2256  28.4482  28.6141  29.0692  29.2791  29.5362
    29.7177  29.9132  30.3497  30.5881  30.9261  31.0731  31.3060  31.7237
    31.9132  32.0421  32.0965  32.2225  32.5923  33.2961  33.4279  33.5283
    33.8808  33.9125  33.9890  34.1961  34.2310  34.3594  34.3724  34.5782
    34.6029  34.6582  35.1918  35.3548  35.7741  35.8199  36.1404  36.2451
    36.4618  36.8400  37.0624  37.2050  37.2981  37.5306  37.6125  38.1839
    38.3513  38.5872  38.6995  38.7821  38.8080  39.0520  39.1529  39.2386
    39.9057  40.5484  40.6432  40.6871  40.7051  40.8735  40.9433  41.3560
    41.3798  41.4137  41.4633  41.7539  41.9579  42.2181  42.3769  42.4236
    42.6927  42.8646  43.1918  43.2002  43.4211  43.4309  43.7093  43.8740
    43.9471  44.3268  44.3433  44.5321  44.5916  44.6501  44.8481  44.9563
    45.0275  45.2448  45.2558  45.7242  46.0272  46.1647  46.5499  46.6570
    46.7056  46.9145  46.9375  47.0010  47.0682  47.2522  47.3010  47.4506
    47.5250  47.7553  47.8756  48.3254  48.7011  48.8167  48.9255  48.9588

     occupation numbers 
     1.0000   1.0000   1.0000   1.0000   1.0000   1.0000   1.0000   1.0000
     1.0000   1.0000   1.0000   1.0000   1.0000   1.0000   1.0000   1.0000
     1.0000   1.0000   1.0000   1.0000   1.0000   1.0000   1.0000   1.0000
     1.0000   1.0000   1.0000   1.0000   1.0000   1.0000   1.0000   1.0000
     1.0000   1.0000   1.0000   1.0000   1.0000   1.0000   1.0000   1.0000
     1.0000   1.0000   1.0000   1.0000   1.0000   1.0000   1.0000   1.0000
     1.0000   1.0000   1.0000   1.0000   1.0000   1.0000   1.0000   1.0000
     1.0000   1.0000   1.0000   1.0000   1.0000   1.0000   1.0000   1.0000
     1.0000   1.0000   1.0000   1.0000   1.0000   1.0000   1.0000   1.0000
     1.0000   1.0000   1.0000   1.0000   1.0000   1.0000   1.0000   1.0000
     1.0000   1.0000   1.0000   0.0000   0.0000   0.0000   0.0000   0.0000
     0.0000   0.0000   0.0000   0.0000   0.0000   0.0000   0.0000   0.0000
     0.0000   0.0000   0.0000   0.0000   0.0000   0.0000   0.0000   0.0000
     0.0000   0.0000   0.0000   0.0000   0.0000   0.0000   0.0000   0.0000
     0.0000   0.0000   0.0000   0.0000   0.0000   0.0000   0.0000   0.0000
     0.0000   0.0000   0.0000   0.0000   0.0000   0.0000   0.0000   0.0000
     0.0000   0.0000   0.0000   0.0000   0.0000   0.0000   0.0000   0.0000
     0.0000   0.0000   0.0000   0.0000   0.0000   0.0000   0.0000   0.0000
     0.0000   0.0000   0.0000   0.0000   0.0000   0.0000   0.0000   0.0000
     0.0000   0.0000   0.0000   0.0000   0.0000   0.0000   0.0000   0.0000
     0.0000   0.0000   0.0000   0.0000   0.0000   0.0000   0.0000   0.0000
     0.0000   0.0000   0.0000   0.0000   0.0000   0.0000   0.0000   0.0000
     0.0000   0.0000   0.0000   0.0000   0.0000   0.0000   0.0000   0.0000
     0.0000   0.0000   0.0000   0.0000   0.0000   0.0000   0.0000   0.0000
     0.0000   0.0000   0.0000   0.0000   0.0000   0.0000   0.0000   0.0000
     0.0000   0.0000   0.0000   0.0000   0.0000   0.0000   0.0000   0.0000
     0.0000   0.0000   0.0000   0.0000   0.0000   0.0000   0.0000   0.0000
     0.0000   0.0000   0.0000   0.0000   0.0000   0.0000   0.0000   0.0000
     0.0000   0.0000   0.0000   0.0000   0.0000   0.0000   0.0000   0.0000
     0.0000   0.0000   0.0000   0.0000   0.0000   0.0000   0.0000   0.0000
     0.0000   0.0000   0.0000   0.0000   0.0000   0.0000   0.0000   0.0000
     0.0000   0.0000   0.0000   0.0000   0.0000   0.0000   0.0000   0.0000

          k = 0.3333 0.1718 0.0000 (  4547 PWs)   bands (ev):

   -76.2523 -76.2520 -75.9656 -75.9635 -41.8780 -41.8758 -41.8754 -41.8719
   -41.7842 -41.7763 -41.7191 -41.7152 -41.6412 -41.6322 -41.3522 -41.3424
   -30.7358 -30.7273 -15.8963 -15.8286 -11.1118 -11.0348 -11.0046 -10.9505
   -10.8141 -10.6856  -7.1255  -7.0336  -6.9084  -6.7175  -6.6440  -6.6216
    -6.5049  -6.4738  -6.3857  -6.2735  -1.3966  -1.3721  -1.1398  -1.1389
    -0.9445  -0.8017   4.8538   5.5284   5.8178   5.8826   6.1252   6.4012
     6.4549   6.4821   6.5896   6.6099   6.6160   6.7254   6.8421   6.9483
     7.0280   7.1826   7.3296   7.4329   7.6272   7.6765   7.7370   7.8296
     7.8345   8.0141   8.3499   8.7546   8.7968   8.9274   8.9440   9.2523
    10.3480  10.4698  10.4887  10.5898  10.7220  10.7853  10.7966  10.8433
    10.9456  11.0429  11.0558  11.0800  11.1588  11.1708  11.7856  12.0173
    12.1121  12.5183  13.6986  13.7983  14.9524  15.3000  15.4091  15.4731
    15.4852  15.7863  15.9344  16.0807  16.3115  16.6305  16.6650  16.9962
    17.0858  17.2045  17.4971  17.6333  17.8940  17.9138  18.3493  18.3873
    18.4188  18.6442  19.2883  20.1567  20.8981  20.9235  21.1690  21.2937
    22.0959  22.3203  22.7522  23.1417  23.5716  23.6109  23.6895  23.8397
    24.0760  24.0807  24.6552  24.8201  25.0590  25.0884  25.2587  25.7171
    25.8135  26.1050  26.1227  26.3656  26.9005  27.0330  27.2313  27.6353
    27.9165  28.1392  28.5788  28.8558  28.9009  29.1142  29.4937  29.7196
    29.9826  30.2892  30.4068  30.4505  30.7196  30.7252  30.8086  31.0156
    31.2347  32.0663  32.1074  32.5159  32.6371  32.6410  33.0997  33.1008
    33.1872  33.6251  33.7616  33.8791  34.3738  34.4594  34.5426  34.8256
    35.0511  35.1503  35.3078  35.5515  36.1632  36.1712  36.4777  36.9220
    36.9374  37.1623  37.1641  37.2984  37.5253  37.7151  37.8463  37.8822
    38.1016  38.4015  38.4030  38.6325  38.8768  39.1346  39.2744  39.3720
    39.7115  40.0303  40.2402  40.3795  40.5329  40.5585  40.8562  40.8771
    41.2835  41.4285  41.5255  41.6122  41.6491  42.1127  42.3362  42.6496
    42.8559  42.9492  43.0719  43.2942  43.4167  43.7892  43.8384  44.1100
    44.2504  44.3304  44.4535  44.4820  44.8887  44.9835  45.0286  45.1378
    45.4619  45.4743  45.5269  45.8322  46.0831  46.1808  46.2321  46.4678
    46.6934  46.8363  46.8591  46.9112  47.0650  47.3520  47.5112  47.5224
    47.9269  47.9466  48.0001  48.2539  48.2885  48.4869  48.5341  48.9497

     occupation numbers 
     1.0000   1.0000   1.0000   1.0000   1.0000   1.0000   1.0000   1.0000
     1.0000   1.0000   1.0000   1.0000   1.0000   1.0000   1.0000   1.0000
     1.0000   1.0000   1.0000   1.0000   1.0000   1.0000   1.0000   1.0000
     1.0000   1.0000   1.0000   1.0000   1.0000   1.0000   1.0000   1.0000
     1.0000   1.0000   1.0000   1.0000   1.0000   1.0000   1.0000   1.0000
     1.0000   1.0000   1.0000   1.0000   1.0000   1.0000   1.0000   1.0000
     1.0000   1.0000   1.0000   1.0000   1.0000   1.0000   1.0000   1.0000
     1.0000   1.0000   1.0000   1.0000   1.0000   1.0000   1.0000   1.0000
     1.0000   1.0000   1.0000   1.0000   1.0000   1.0000   1.0000   1.0000
     1.0000   1.0000   1.0000   1.0000   1.0000   1.0000   1.0000   1.0000
     1.0000   1.0000   1.0000   0.0000   0.0000   0.0000   0.0000   0.0000
     0.0000   0.0000   0.0000   0.0000   0.0000   0.0000   0.0000   0.0000
     0.0000   0.0000   0.0000   0.0000   0.0000   0.0000   0.0000   0.0000
     0.0000   0.0000   0.0000   0.0000   0.0000   0.0000   0.0000   0.0000
     0.0000   0.0000   0.0000   0.0000   0.0000   0.0000   0.0000   0.0000
     0.0000   0.0000   0.0000   0.0000   0.0000   0.0000   0.0000   0.0000
     0.0000   0.0000   0.0000   0.0000   0.0000   0.0000   0.0000   0.0000
     0.0000   0.0000   0.0000   0.0000   0.0000   0.0000   0.0000   0.0000
     0.0000   0.0000   0.0000   0.0000   0.0000   0.0000   0.0000   0.0000
     0.0000   0.0000   0.0000   0.0000   0.0000   0.0000   0.0000   0.0000
     0.0000   0.0000   0.0000   0.0000   0.0000   0.0000   0.0000   0.0000
     0.0000   0.0000   0.0000   0.0000   0.0000   0.0000   0.0000   0.0000
     0.0000   0.0000   0.0000   0.0000   0.0000   0.0000   0.0000   0.0000
     0.0000   0.0000   0.0000   0.0000   0.0000   0.0000   0.0000   0.0000
     0.0000   0.0000   0.0000   0.0000   0.0000   0.0000   0.0000   0.0000
     0.0000   0.0000   0.0000   0.0000   0.0000   0.0000   0.0000   0.0000
     0.0000   0.0000   0.0000   0.0000   0.0000   0.0000   0.0000   0.0000
     0.0000   0.0000   0.0000   0.0000   0.0000   0.0000   0.0000   0.0000
     0.0000   0.0000   0.0000   0.0000   0.0000   0.0000   0.0000   0.0000
     0.0000   0.0000   0.0000   0.0000   0.0000   0.0000   0.0000   0.0000
     0.0000   0.0000   0.0000   0.0000   0.0000   0.0000   0.0000   0.0000
     0.0000   0.0000   0.0000   0.0000   0.0000   0.0000   0.0000   0.0000

          k = 0.3333 0.1718 0.1665 (  4548 PWs)   bands (ev):

   -76.2526 -76.2520 -75.9654 -75.9641 -41.8811 -41.8787 -41.8765 -41.8708
   -41.7799 -41.7773 -41.7183 -41.7131 -41.6419 -41.6361 -41.3506 -41.3452
   -30.7337 -30.7294 -15.8796 -15.8457 -11.0275 -11.0228 -11.0094 -10.9124
   -10.8605 -10.7917  -7.0530  -6.9526  -6.8969  -6.6887  -6.6630  -6.6071
    -6.5793  -6.4580  -6.4465  -6.3316  -1.4005  -1.1606  -1.1450  -1.1364
    -1.1155  -0.8534   5.0904   5.5624   5.7506   6.0426   6.1408   6.4710
     6.4842   6.4883   6.5401   6.5932   6.6198   6.6972   6.7327   6.8780
     6.9535   7.0913   7.1502   7.2511   7.3431   7.4185   7.7539   7.8186
     8.3497   8.5052   8.5638   8.6349   8.8408   8.9269   8.9945   9.0778
    10.2856  10.3295  10.4842  10.5883  10.6655  10.7294  10.7340  10.7679
    10.8365  10.8812  10.9481  10.9932  11.1866  11.2396  11.9442  12.1230
    12.7085  12.9245  13.4627  13.5797  15.0710  15.2388  15.3384  15.4233
    15.8339  15.9704  16.0555  16.1184  16.2044  16.2734  16.6050  16.7697
    17.0612  17.1798  17.5630  17.6663  17.8260  17.9288  18.0137  18.1162
    18.3663  18.5276  19.3558  19.9775  20.7316  21.1251  21.5564  21.8357
    21.9991  22.3870  22.6597  22.9049  23.2818  23.3930  23.6639  24.1304
    24.5834  24.6683  24.7188  25.0348  25.0901  25.3352  25.4062  25.9720
    26.1035  26.1769  26.2924  26.6225  26.7281  26.8202  27.4647  27.5862
    27.7177  28.1257  28.3835  28.4755  28.7019  28.9767  29.0045  29.1544
    29.5685  29.8455  29.9411  30.0968  30.6719  30.7781  30.8408  30.9910
    31.0837  31.4200  31.8727  32.3597  32.5771  32.7539  33.1454  33.4064
    33.5232  34.0492  34.1650  34.2542  34.3739  34.4531  34.8738  35.0265
    35.0845  35.1459  35.3917  35.7846  35.9052  36.4012  36.5239  36.7029
    36.7379  37.0380  37.2389  37.3315  37.4883  37.8343  38.2165  38.2359
    38.5290  38.5742  38.6758  39.1855  39.2877  39.3554  39.5827  39.7338
    39.8346  40.1380  40.2192  40.2619  40.5326  40.6705  40.7701  40.9062
    41.1446  41.2125  41.3537  41.4703  41.7853  41.8610  42.0517  42.1004
    42.2714  42.6330  42.6447  42.8012  43.1093  43.2205  43.4244  43.7611
    44.0873  44.2506  44.5897  44.6896  44.8166  44.9112  45.0564  45.1649
    45.4513  45.5296  45.6809  45.7870  45.9285  46.1234  46.2624  46.4451
    46.5443  46.6127  46.8648  47.1485  47.2588  47.4264  47.6337  47.6775
    47.7549  48.0413  48.0822  48.3987  48.6791  48.8306  48.9855  49.0427

     occupation numbers 
     1.0000   1.0000   1.0000   1.0000   1.0000   1.0000   1.0000   1.0000
     1.0000   1.0000   1.0000   1.0000   1.0000   1.0000   1.0000   1.0000
     1.0000   1.0000   1.0000   1.0000   1.0000   1.0000   1.0000   1.0000
     1.0000   1.0000   1.0000   1.0000   1.0000   1.0000   1.0000   1.0000
     1.0000   1.0000   1.0000   1.0000   1.0000   1.0000   1.0000   1.0000
     1.0000   1.0000   1.0000   1.0000   1.0000   1.0000   1.0000   1.0000
     1.0000   1.0000   1.0000   1.0000   1.0000   1.0000   1.0000   1.0000
     1.0000   1.0000   1.0000   1.0000   1.0000   1.0000   1.0000   1.0000
     1.0000   1.0000   1.0000   1.0000   1.0000   1.0000   1.0000   1.0000
     1.0000   1.0000   1.0000   1.0000   1.0000   1.0000   1.0000   1.0000
     1.0000   1.0000   1.0000   0.0000   0.0000   0.0000   0.0000   0.0000
     0.0000   0.0000   0.0000   0.0000   0.0000   0.0000   0.0000   0.0000
     0.0000   0.0000   0.0000   0.0000   0.0000   0.0000   0.0000   0.0000
     0.0000   0.0000   0.0000   0.0000   0.0000   0.0000   0.0000   0.0000
     0.0000   0.0000   0.0000   0.0000   0.0000   0.0000   0.0000   0.0000
     0.0000   0.0000   0.0000   0.0000   0.0000   0.0000   0.0000   0.0000
     0.0000   0.0000   0.0000   0.0000   0.0000   0.0000   0.0000   0.0000
     0.0000   0.0000   0.0000   0.0000   0.0000   0.0000   0.0000   0.0000
     0.0000   0.0000   0.0000   0.0000   0.0000   0.0000   0.0000   0.0000
     0.0000   0.0000   0.0000   0.0000   0.0000   0.0000   0.0000   0.0000
     0.0000   0.0000   0.0000   0.0000   0.0000   0.0000   0.0000   0.0000
     0.0000   0.0000   0.0000   0.0000   0.0000   0.0000   0.0000   0.0000
     0.0000   0.0000   0.0000   0.0000   0.0000   0.0000   0.0000   0.0000
     0.0000   0.0000   0.0000   0.0000   0.0000   0.0000   0.0000   0.0000
     0.0000   0.0000   0.0000   0.0000   0.0000   0.0000   0.0000   0.0000
     0.0000   0.0000   0.0000   0.0000   0.0000   0.0000   0.0000   0.0000
     0.0000   0.0000   0.0000   0.0000   0.0000   0.0000   0.0000   0.0000
     0.0000   0.0000   0.0000   0.0000   0.0000   0.0000   0.0000   0.0000
     0.0000   0.0000   0.0000   0.0000   0.0000   0.0000   0.0000   0.0000
     0.0000   0.0000   0.0000   0.0000   0.0000   0.0000   0.0000   0.0000
     0.0000   0.0000   0.0000   0.0000   0.0000   0.0000   0.0000   0.0000
     0.0000   0.0000   0.0000   0.0000   0.0000   0.0000   0.0000   0.0000

     highest occupied, lowest unoccupied level (ev):    11.0858   10.9926

!    total energy              =   -2780.37504735 Ry
     estimated scf accuracy    <       0.00000022 Ry

     The total energy is the sum of the following terms:
     one-electron contribution =    -842.33353253 Ry
     hartree contribution      =     516.79699841 Ry
     xc contribution           =    -297.34906393 Ry
     ewald contribution        =   -1008.04282912 Ry
     one-center paw contrib.   =   -1149.44662017 Ry
      -> PAW hartree energy AE =      57.45396689 Ry
      -> PAW hartree energy PS =     -57.22981096 Ry
      -> PAW xc energy AE      =    -788.46299127 Ry
      -> PAW xc energy PS      =      38.32660764 Ry
      -> total E_H with PAW    =     517.02115433 Ry
      -> total E_XC with PAW   =   -1047.48544755 Ry

     convergence has been achieved in  32 iterations

     Writing all to output data dir bands_nm/myprefix.save/
 
     init_run     :      6.13s CPU      1.66s WALL (       1 calls)
     electrons    :    364.05s CPU     94.43s WALL (       1 calls)

     Called by init_run:
     wfcinit      :      3.83s CPU      0.99s WALL (       1 calls)
     wfcinit:atom :      0.01s CPU      0.00s WALL (       4 calls)
     wfcinit:wfcr :      3.73s CPU      0.96s WALL (       4 calls)
     potinit      :      0.65s CPU      0.17s WALL (       1 calls)
     hinit0       :      1.38s CPU      0.39s WALL (       1 calls)

     Called by electrons:
     c_bands      :    307.13s CPU     79.13s WALL (      32 calls)
     sum_band     :     34.91s CPU      9.34s WALL (      32 calls)
     v_of_rho     :      1.45s CPU      0.38s WALL (      33 calls)
     v_h          :      0.11s CPU      0.03s WALL (      33 calls)
     v_xc         :      1.34s CPU      0.35s WALL (      33 calls)
     newd         :      6.09s CPU      1.70s WALL (      33 calls)
     PAW_pot      :     12.99s CPU      3.38s WALL (      33 calls)
     mix_rho      :      0.51s CPU      0.13s WALL (      32 calls)

     Called by c_bands:
     init_us_2    :      0.53s CPU      0.14s WALL (     260 calls)
     init_us_2:cp :      0.53s CPU      0.14s WALL (     260 calls)
     cegterg      :    299.39s CPU     76.92s WALL (     128 calls)

     Called by sum_band:
     sum_band:wei :      0.01s CPU      0.00s WALL (      32 calls)
     sum_band:loo :     28.07s CPU      7.21s WALL (      32 calls)
     sum_band:buf :      0.43s CPU      0.10s WALL (     128 calls)
     sum_band:ini :      0.28s CPU      0.07s WALL (     128 calls)
     sum_band:cal :      7.21s CPU      1.82s WALL (     128 calls)
     sum_band:bec :      0.23s CPU      0.08s WALL (     128 calls)
     addusdens    :      6.03s CPU      1.92s WALL (      32 calls)
     addusd:skk   :      0.02s CPU      0.02s WALL (     128 calls)
     addusd:dgemm :      0.76s CPU      0.56s WALL (     128 calls)
     addusd:qvan2 :      3.18s CPU      0.84s WALL (     128 calls)

     Called by *egterg:
     cdiaghg      :     92.66s CPU     24.28s WALL (     332 calls)
     cegterg:over :     35.00s CPU      8.84s WALL (     204 calls)
     cegterg:upda :     17.69s CPU      4.48s WALL (     204 calls)
     cegterg:last :     25.80s CPU      6.52s WALL (     160 calls)
     cdiaghg:chol :      5.88s CPU      1.56s WALL (     332 calls)
     cdiaghg:inve :      2.06s CPU      0.54s WALL (     332 calls)
     cdiaghg:para :     21.09s CPU      5.62s WALL (     664 calls)
     h_psi        :    103.54s CPU     26.56s WALL (     336 calls)
     s_psi        :     13.70s CPU      3.46s WALL (     336 calls)
     g_psi        :      0.10s CPU      0.04s WALL (     204 calls)

     Called by h_psi:
     h_psi:calbec :     15.35s CPU      3.88s WALL (     336 calls)
     vloc_psi     :     74.35s CPU     19.13s WALL (     336 calls)
     add_vuspsi   :     13.64s CPU      3.46s WALL (     336 calls)

     General routines
     calbec       :     22.55s CPU      5.70s WALL (     464 calls)
     fft          :      1.18s CPU      0.33s WALL (     427 calls)
     ffts         :      0.08s CPU      0.02s WALL (      65 calls)
     fftw         :     91.14s CPU     21.52s WALL (  170796 calls)
     interpolate  :      0.18s CPU      0.05s WALL (      33 calls)
 
     Parallel routines

     PAW routines
     PAW_pot      :     12.99s CPU      3.38s WALL (      33 calls)
     PAW_symme    :      0.05s CPU      0.01s WALL (      65 calls)
 
     PWSCF        :   6m11.99s CPU   1m37.78s WALL

 
   This run was terminated on:  17:33:11  16Jul2023            

=------------------------------------------------------------------------------=
   JOB DONE.
=------------------------------------------------------------------------------=
