
     Program PWSCF v.7.1 starts on 16Jul2023 at 20:52:31 

     This program is part of the open-source Quantum ESPRESSO suite
     for quantum simulation of materials; please cite
         "P. Giannozzi et al., J. Phys.:Condens. Matter 21 395502 (2009);
         "P. Giannozzi et al., J. Phys.:Condens. Matter 29 465901 (2017);
         "P. Giannozzi et al., J. Chem. Phys. 152 154105 (2020);
          URL http://www.quantum-espresso.org", 
     in publications or presentations arising from this work. More details at
     http://www.quantum-espresso.org/quote

     Parallel version (MPI & OpenMP), running on      32 processor cores
     Number of MPI processes:                 8
     Threads/MPI process:                     4

     MPI processes distributed on     1 nodes
     189859 MiB available memory on the printing compute node when the environment starts
 
     Reading input from espresso_26974.pwi
Warning: card &CELL ignored
Warning: card / ignored

     Current dimensions of program PWSCF are:
     Max number of different atomic species (ntypx) = 10
     Max number of k-points (npk) =  40000
     Max angular momentum in pseudopotentials (lmaxx) =  4
     file O.pbe-n-kjpaw_psl.0.1.UPF: wavefunction(s)  2P renormalized
     Message from routine setup:
     using ibrav=0 with symmetry is DISCOURAGED, use correct ibrav instead
 
     K-points division:     npool     =       2
     R & G space division:  proc/nbgrp/npool/nimage =       4
     Subspace diagonalization in iterative solution of the eigenvalue problem:
     one sub-group per band group will be used
     scalapack distributed-memory algorithm (size of sub-group:  2*  2 procs)

 
     Parallelization info
     --------------------
     sticks:   dense  smooth     PW     G-vecs:    dense   smooth      PW
     Min         480     241     69                32013    11335    1720
     Max         481     242     72                32017    11336    1723
     Sum        1923     967    279               128061    45341    6889
 
     Using Slab Decomposition
 


     bravais-lattice index     =            0
     lattice parameter (alat)  =       6.7266  a.u.
     unit-cell volume          =    2040.0842 (a.u.)^3
     number of atoms/cell      =           14
     number of atomic types    =            2
     number of electrons       =       140.00
     number of Kohn-Sham states=          256
     kinetic-energy cutoff     =      30.0000  Ry
     charge density cutoff     =     240.0000  Ry
     scf convergence threshold =      1.0E-06
     mixing beta               =       0.7000
     number of iterations used =            8  plain     mixing
     Exchange-correlation= SLA  PW   PBX  PBC
                           (   1   4   3   4   0   0   0)

     celldm(1)=   6.726592  celldm(2)=   0.000000  celldm(3)=   0.000000
     celldm(4)=   0.000000  celldm(5)=   0.000000  celldm(6)=   0.000000

     crystal axes: (cart. coord. in units of alat)
               a(1) = (   1.000000   0.000000   0.000000 )  
               a(2) = (   0.000000   2.232294   0.000000 )  
               a(3) = (   0.000000   1.065219   3.002697 )  

     reciprocal axes: (cart. coord. in units 2 pi/alat)
               b(1) = (  1.000000  0.000000  0.000000 )  
               b(2) = (  0.000000  0.447970 -0.158919 )  
               b(3) = (  0.000000  0.000000  0.333034 )  


     PseudoPot. # 1 for Tl read from file:
     /lustre07/scratch/pragov/crystal_structure_design/utils/SSSP/Tl_pbe_v1.2.uspp.F.UPF
     MD5 check sum: b76cf1f7e72655a2b2c53cf6385d7059
     Pseudo is Ultrasoft + core correction, Zval = 13.0
     Generated by new atomic code, or converted to UPF format
     Using radial grid of  899 points,  6 beta functions with: 
                l(1) =   0
                l(2) =   0
                l(3) =   1
                l(4) =   1
                l(5) =   2
                l(6) =   2
     Q(r) pseudized with  6 coefficients,  rinner =    1.100   1.100   1.100
                                                       1.100   1.100

     PseudoPot. # 2 for O  read from file:
     /lustre07/scratch/pragov/crystal_structure_design/utils/SSSP/O.pbe-n-kjpaw_psl.0.1.UPF
     MD5 check sum: 0234752ac141de4415c5fc33072bef88
     Pseudo is Projector augmented-wave + core cor, Zval =  6.0
     Generated using "atomic" code by A. Dal Corso  v.5.0.99 svn rev. 10869
     Shape of augmentation charge: BESSEL
     Using radial grid of 1095 points,  4 beta functions with: 
                l(1) =   0
                l(2) =   0
                l(3) =   1
                l(4) =   1
     Q(r) pseudized with 0 coefficients 


     atomic species   valence    mass     pseudopotential
        Tl            13.00   204.38000     Tl( 1.00)
        O              6.00    15.99900     O ( 1.00)

      4 Sym. Ops., with inversion, found ( 2 have fractional translation)


                                    s                        frac. trans.

      isym =  1     identity                                     

 cryst.   s( 1) = (     1          0          0      )
                  (     0          1          0      )
                  (     0          0          1      )

 cart.    s( 1) = (  1.0000000  0.0000000  0.0000000 )
                  (  0.0000000  1.0000000  0.0000000 )
                  (  0.0000000  0.0000000  1.0000000 )


      isym =  2     180 deg rotation - cart. axis [1,0,0]        

 cryst.   s( 2) = (     1          0          0      )    f =( -0.5000000 )
                  (     0         -1          0      )       (  0.0000000 )
                  (     0          0         -1      )       ( -0.0000000 )

 cart.    s( 2) = (  1.0000000  0.0000000  0.0000000 )    f =( -0.5000000 )
                  (  0.0000000 -1.0000000  0.0000000 )       ( -0.0000000 )
                  (  0.0000000  0.0000000 -1.0000000 )       ( -0.0000000 )


      isym =  3     inversion                                    

 cryst.   s( 3) = (    -1          0          0      )
                  (     0         -1          0      )
                  (     0          0         -1      )

 cart.    s( 3) = ( -1.0000000  0.0000000  0.0000000 )
                  (  0.0000000 -1.0000000  0.0000000 )
                  (  0.0000000  0.0000000 -1.0000000 )


      isym =  4     inv. 180 deg rotation - cart. axis [1,0,0]   

 cryst.   s( 4) = (    -1          0          0      )    f =(  0.5000000 )
                  (     0          1          0      )       (  0.0000000 )
                  (     0          0          1      )       (  0.0000000 )

 cart.    s( 4) = ( -1.0000000  0.0000000  0.0000000 )    f =(  0.5000000 )
                  (  0.0000000  1.0000000  0.0000000 )       (  0.0000000 )
                  (  0.0000000  0.0000000  1.0000000 )       (  0.0000000 )


   Cartesian axes

     site n.     atom                  positions (alat units)
         1           Tl  tau(   1) = (   0.2500000   1.9174289   1.8245196  )
         2           Tl  tau(   2) = (   0.7500000   1.3800841   1.1781771  )
         3           Tl  tau(   3) = (   0.7500000   2.4447981   1.1275697  )
         4           Tl  tau(   4) = (   0.2500000   0.8527149   1.8751270  )
         5           Tl  tau(   5) = (   0.7500000   2.4457034   2.5206978  )
         6           Tl  tau(   6) = (   0.2500000   0.8518095   0.4819989  )
         7           Tl  tau(   7) = (   0.7500000   1.4436249   2.5917356  )
         8           Tl  tau(   8) = (   0.2500000   1.8538881   0.4109611  )
         9           O   tau(   9) = (   0.7500000   2.3393895   1.8023357  )
        10           O   tau(  10) = (   0.2500000   0.9581235   1.2003610  )
        11           O   tau(  11) = (   0.7500000   1.3647270   0.5434040  )
        12           O   tau(  12) = (   0.2500000   1.9327860   2.4592927  )
        13           O   tau(  13) = (   0.7500000   1.4551598   1.8244535  )
        14           O   tau(  14) = (   0.2500000   1.8423532   1.1782432  )

   Crystallographic axes

     site n.     atom                  positions (cryst. coord.)
         1           Tl  tau(   1) = (  0.2500000  0.5689990  0.6076270  )
         2           Tl  tau(   2) = (  0.7500000  0.4310010  0.3923730  )
         3           Tl  tau(   3) = (  0.7500000  0.9160030  0.3755190  )
         4           Tl  tau(   4) = (  0.2500000  0.0839970  0.6244810  )
         5           Tl  tau(   5) = (  0.7500000  0.6950140  0.8394780  )
         6           Tl  tau(   6) = (  0.2500000  0.3049860  0.1605220  )
         7           Tl  tau(   7) = (  0.7500000  0.2348240  0.8631360  )
         8           Tl  tau(   8) = (  0.2500000  0.7651760  0.1368640  )
         9           O   tau(   9) = (  0.7500000  0.7615500  0.6002390  )
        10           O   tau(  10) = (  0.2500000  0.2384500  0.3997610  )
        11           O   tau(  11) = (  0.7500000  0.5249990  0.1809720  )
        12           O   tau(  12) = (  0.2500000  0.4750010  0.8190280  )
        13           O   tau(  13) = (  0.7500000  0.3619270  0.6076050  )
        14           O   tau(  14) = (  0.2500000  0.6380730  0.3923950  )

     number of k points=    10
                       cart. coord. in units 2pi/alat
        k(    1) = (   0.0000000   0.0000000   0.0000000), wk =   0.0740741
        k(    2) = (   0.0000000   0.0000000   0.1110113), wk =   0.1481481
        k(    3) = (   0.0000000   0.1493232  -0.0529730), wk =   0.1481481
        k(    4) = (   0.0000000   0.1493232   0.0580383), wk =   0.1481481
        k(    5) = (   0.0000000   0.1493232  -0.1639843), wk =   0.1481481
        k(    6) = (   0.3333333   0.0000000   0.0000000), wk =   0.1481481
        k(    7) = (   0.3333333   0.0000000   0.1110113), wk =   0.2962963
        k(    8) = (   0.3333333   0.1493232  -0.0529730), wk =   0.2962963
        k(    9) = (   0.3333333   0.1493232   0.0580383), wk =   0.2962963
        k(   10) = (   0.3333333   0.1493232  -0.1639843), wk =   0.2962963

                       cryst. coord.
        k(    1) = (   0.0000000   0.0000000   0.0000000), wk =   0.0740741
        k(    2) = (   0.0000000   0.0000000   0.3333333), wk =   0.1481481
        k(    3) = (   0.0000000   0.3333333  -0.0000000), wk =   0.1481481
        k(    4) = (   0.0000000   0.3333333   0.3333333), wk =   0.1481481
        k(    5) = (   0.0000000   0.3333333  -0.3333333), wk =   0.1481481
        k(    6) = (   0.3333333   0.0000000   0.0000000), wk =   0.1481481
        k(    7) = (   0.3333333   0.0000000   0.3333333), wk =   0.2962963
        k(    8) = (   0.3333333   0.3333333  -0.0000000), wk =   0.2962963
        k(    9) = (   0.3333333   0.3333333   0.3333333), wk =   0.2962963
        k(   10) = (   0.3333333   0.3333333  -0.3333333), wk =   0.2962963

     Dense  grid:   128061 G-vectors     FFT dimensions: (  36,  75, 108)

     Smooth grid:    45341 G-vectors     FFT dimensions: (  24,  54,  75)

     Dynamical RAM for                 wfc:       5.53 MB

     Dynamical RAM for     wfc (w. buffer):      33.16 MB

     Dynamical RAM for           str. fact:       0.98 MB

     Dynamical RAM for           local pot:       0.00 MB

     Dynamical RAM for          nlocal pot:       4.15 MB

     Dynamical RAM for                qrad:       2.49 MB

     Dynamical RAM for          rho,v,vnew:       3.13 MB

     Dynamical RAM for               rhoin:       1.04 MB

     Dynamical RAM for            rho*nmix:       7.82 MB

     Dynamical RAM for           G-vectors:       1.92 MB

     Dynamical RAM for          h,s,v(r/c):       3.00 MB

     Dynamical RAM for          <psi|beta>:       0.75 MB

     Dynamical RAM for                 psi:      11.05 MB

     Dynamical RAM for                hpsi:      11.05 MB

     Dynamical RAM for                spsi:      11.05 MB

     Dynamical RAM for      wfcinit/wfcrot:      12.56 MB

     Dynamical RAM for           addusdens:      47.63 MB

     Estimated static dynamical RAM per process >      51.12 MB

     Estimated max dynamical RAM per process >     106.56 MB

     Estimated total dynamical RAM >     821.24 MB

     Check: negative core charge=   -0.000008

     Initial potential from superposition of free atoms

     starting charge     139.9611, renormalised to     140.0000

     negative rho (up, down):  3.993E-01 0.000E+00
     Starting wfcs are   96 randomized atomic wfcs +  160 random wfcs
     Checking if some PAW data can be deallocated... 
       PAW data deallocated on    4 nodes for type:  2

     total cpu time spent up to now is        1.8 secs

     Self-consistent Calculation

     iteration #  1     ecut=    30.00 Ry     beta= 0.70
     Davidson diagonalization with overlap

---- Real-time Memory Report at c_bands before calling an iterative solver
           259 MiB given to the printing process from OS
             0 MiB allocation reported by mallinfo(arena+hblkhd)
        189059 MiB available memory on the node where the printing process lives
------------------
     ethr =  1.00E-02,  avg # of iterations =  7.6

     negative rho (up, down):  4.172E-01 0.000E+00

     total cpu time spent up to now is       12.9 secs

     total energy              =   -1407.03053692 Ry
     estimated scf accuracy    <       3.53073830 Ry

     iteration #  2     ecut=    30.00 Ry     beta= 0.70
     Davidson diagonalization with overlap

---- Real-time Memory Report at c_bands before calling an iterative solver
           346 MiB given to the printing process from OS
             0 MiB allocation reported by mallinfo(arena+hblkhd)
        188795 MiB available memory on the node where the printing process lives
------------------
     ethr =  2.52E-03,  avg # of iterations =  3.0

     negative rho (up, down):  4.165E-01 0.000E+00

     total cpu time spent up to now is       17.5 secs

     total energy              =   -1402.70961832 Ry
     estimated scf accuracy    <      39.26099179 Ry

     iteration #  3     ecut=    30.00 Ry     beta= 0.70
     Davidson diagonalization with overlap

---- Real-time Memory Report at c_bands before calling an iterative solver
           353 MiB given to the printing process from OS
             0 MiB allocation reported by mallinfo(arena+hblkhd)
        188703 MiB available memory on the node where the printing process lives
------------------
     ethr =  2.52E-03,  avg # of iterations =  2.9

     negative rho (up, down):  4.163E-01 0.000E+00

     total cpu time spent up to now is       22.1 secs

     total energy              =   -1408.54022939 Ry
     estimated scf accuracy    <       5.03710200 Ry

     iteration #  4     ecut=    30.00 Ry     beta= 0.70
     Davidson diagonalization with overlap

---- Real-time Memory Report at c_bands before calling an iterative solver
           356 MiB given to the printing process from OS
             0 MiB allocation reported by mallinfo(arena+hblkhd)
        188684 MiB available memory on the node where the printing process lives
------------------
     ethr =  2.52E-03,  avg # of iterations =  1.0

     negative rho (up, down):  4.171E-01 0.000E+00

     total cpu time spent up to now is       25.5 secs

     total energy              =   -1409.04509705 Ry
     estimated scf accuracy    <       0.80176689 Ry

     iteration #  5     ecut=    30.00 Ry     beta= 0.70
     Davidson diagonalization with overlap

---- Real-time Memory Report at c_bands before calling an iterative solver
           356 MiB given to the printing process from OS
             0 MiB allocation reported by mallinfo(arena+hblkhd)
        188635 MiB available memory on the node where the printing process lives
------------------
     ethr =  5.73E-04,  avg # of iterations =  2.0

     negative rho (up, down):  4.205E-01 0.000E+00

     total cpu time spent up to now is       29.5 secs

     total energy              =   -1409.03448900 Ry
     estimated scf accuracy    <       0.27736772 Ry

     iteration #  6     ecut=    30.00 Ry     beta= 0.70
     Davidson diagonalization with overlap

---- Real-time Memory Report at c_bands before calling an iterative solver
           356 MiB given to the printing process from OS
             0 MiB allocation reported by mallinfo(arena+hblkhd)
        188466 MiB available memory on the node where the printing process lives
------------------
     ethr =  1.98E-04,  avg # of iterations =  2.4

     negative rho (up, down):  4.215E-01 0.000E+00

     total cpu time spent up to now is       33.7 secs

     total energy              =   -1409.04366172 Ry
     estimated scf accuracy    <       0.03805159 Ry

     iteration #  7     ecut=    30.00 Ry     beta= 0.70
     Davidson diagonalization with overlap

---- Real-time Memory Report at c_bands before calling an iterative solver
           356 MiB given to the printing process from OS
             0 MiB allocation reported by mallinfo(arena+hblkhd)
        188356 MiB available memory on the node where the printing process lives
------------------
     c_bands:  1 eigenvalues not converged
     ethr =  2.72E-05,  avg # of iterations = 16.2

     negative rho (up, down):  4.214E-01 0.000E+00

     total cpu time spent up to now is       42.8 secs

     total energy              =   -1409.04579770 Ry
     estimated scf accuracy    <       0.00899388 Ry

     iteration #  8     ecut=    30.00 Ry     beta= 0.70
     Davidson diagonalization with overlap

---- Real-time Memory Report at c_bands before calling an iterative solver
           396 MiB given to the printing process from OS
             0 MiB allocation reported by mallinfo(arena+hblkhd)
        187767 MiB available memory on the node where the printing process lives
------------------
     ethr =  6.42E-06,  avg # of iterations =  5.5

     negative rho (up, down):  4.215E-01 0.000E+00

     total cpu time spent up to now is       48.0 secs

     total energy              =   -1409.04677331 Ry
     estimated scf accuracy    <       0.00374105 Ry

     iteration #  9     ecut=    30.00 Ry     beta= 0.70
     Davidson diagonalization with overlap

---- Real-time Memory Report at c_bands before calling an iterative solver
           414 MiB given to the printing process from OS
             0 MiB allocation reported by mallinfo(arena+hblkhd)
        187634 MiB available memory on the node where the printing process lives
------------------
     ethr =  2.67E-06,  avg # of iterations =  6.9

     negative rho (up, down):  4.217E-01 0.000E+00

     total cpu time spent up to now is       53.4 secs

     total energy              =   -1409.04707559 Ry
     estimated scf accuracy    <       0.00066631 Ry

     iteration # 10     ecut=    30.00 Ry     beta= 0.70
     Davidson diagonalization with overlap

---- Real-time Memory Report at c_bands before calling an iterative solver
           416 MiB given to the printing process from OS
             0 MiB allocation reported by mallinfo(arena+hblkhd)
        187584 MiB available memory on the node where the printing process lives
------------------
     ethr =  4.76E-07,  avg # of iterations =  2.3

     negative rho (up, down):  4.217E-01 0.000E+00

     total cpu time spent up to now is       57.5 secs

     total energy              =   -1409.04713249 Ry
     estimated scf accuracy    <       0.00004529 Ry

     iteration # 11     ecut=    30.00 Ry     beta= 0.70
     Davidson diagonalization with overlap

---- Real-time Memory Report at c_bands before calling an iterative solver
           416 MiB given to the printing process from OS
             0 MiB allocation reported by mallinfo(arena+hblkhd)
        187509 MiB available memory on the node where the printing process lives
------------------
     ethr =  3.24E-08,  avg # of iterations =  1.3

     negative rho (up, down):  4.218E-01 0.000E+00

     total cpu time spent up to now is       61.3 secs

     End of self-consistent calculation

          k = 0.0000 0.0000 0.0000 (  5639 PWs)   bands (ev):

    -9.7574  -9.4132  -9.2767  -9.2425  -9.1178  -9.0804  -2.8688  -2.8356
    -2.8096  -2.8077  -2.7514  -2.7159  -2.6917  -2.6833  -2.6675  -2.6606
    -2.6563  -2.6336  -2.6310  -2.6267  -2.6013  -2.5851  -2.5765  -2.5663
    -2.5327  -2.5198  -2.5134  -2.4984  -2.4922  -2.4806  -2.4769  -2.4570
    -2.4009  -2.3960  -2.3851  -2.3840  -2.3693  -2.3323  -2.3275  -2.3160
    -2.3041  -2.2025  -2.1950  -2.1664  -2.0831  -1.8364   1.3643   1.6155
     2.0644   2.1934   2.3506   2.3818   2.8775   3.9410   3.9561   5.2259
     5.3119   5.6734   5.7885   5.9635   6.1003   6.1291   6.2157   6.2656
     6.7476   6.7907   6.8742   6.8966   6.9577   7.3217   8.6013   9.3961
     9.8942  10.3019  10.5747  10.6184  11.0670  13.0264  13.3727  13.4696
    13.6623  14.4397  14.5397  15.0034  15.4856  15.4865  15.6489  15.9590
    16.2021  16.2237  16.3419  16.3434  16.9181  17.2431  17.4395  17.5018
    18.1475  18.2646  18.4299  18.6678  18.9534  19.9802  20.1555  20.2350
    20.6519  20.6626  20.9768  21.1900  21.4779  21.5564  22.0151  22.0726
    22.5676  22.6081  22.7852  22.7971  22.9735  23.6439  23.7872  23.9012
    24.1964  24.3312  24.4839  24.8615  24.9212  24.9766  25.1151  25.1415
    25.3860  25.5207  25.5988  25.7707  25.9548  26.0401  26.2761  26.3371
    26.3592  26.5832  26.6424  26.6551  26.6922  26.7940  27.4140  27.4548
    27.4661  27.7396  28.1529  28.6491  28.7753  28.8075  28.8843  28.8950
    29.2140  29.8953  29.9069  30.0311  30.3060  30.3827  30.6801  30.7729
    30.9190  30.9271  30.9689  31.0288  31.3603  31.4959  31.6527  32.2370
    32.3397  32.3524  32.3541  32.4139  32.6962  32.8562  32.9345  33.2236
    33.4942  33.4978  33.7465  33.8152  34.0398  34.2931  34.3615  34.4788
    34.6808  34.7404  34.8463  34.9431  34.9749  35.0918  35.2346  35.6229
    36.0461  36.4025  36.5158  36.8071  36.8998  37.0873  37.1224  37.1832
    37.2973  37.5039  37.7309  37.8048  38.1022  38.4255  38.5061  38.7371
    38.7745  38.8186  39.1436  39.3585  39.3858  39.4674  39.6361  39.6457
    39.7409  39.7587  39.9346  40.3200  40.5570  40.6293  40.7824  40.9089
    41.0088  41.1790  41.8320  41.8537  41.9334  42.1151  42.1837  42.3955
    42.5815  42.6166  42.9168  42.9812  43.0587  43.1610  43.1831  43.5003
    43.7576  43.9493  44.2034  44.2765  44.3864  44.6097  44.7145  45.2295
    45.4198  45.4498  45.5101  45.6265  45.7404  46.0258  46.1317  46.1377

     occupation numbers 
     1.0000   1.0000   1.0000   1.0000   1.0000   1.0000   1.0000   1.0000
     1.0000   1.0000   1.0000   1.0000   1.0000   1.0000   1.0000   1.0000
     1.0000   1.0000   1.0000   1.0000   1.0000   1.0000   1.0000   1.0000
     1.0000   1.0000   1.0000   1.0000   1.0000   1.0000   1.0000   1.0000
     1.0000   1.0000   1.0000   1.0000   1.0000   1.0000   1.0000   1.0000
     1.0000   1.0000   1.0000   1.0000   1.0000   1.0000   1.0000   1.0000
     1.0000   1.0000   1.0000   1.0000   1.0000   1.0000   1.0000   1.0000
     1.0000   1.0000   1.0000   1.0000   1.0000   1.0000   1.0000   1.0000
     1.0000   1.0000   1.0000   1.0000   1.0000   1.0000   0.0000   0.0000
     0.0000   0.0000   0.0000   0.0000   0.0000   0.0000   0.0000   0.0000
     0.0000   0.0000   0.0000   0.0000   0.0000   0.0000   0.0000   0.0000
     0.0000   0.0000   0.0000   0.0000   0.0000   0.0000   0.0000   0.0000
     0.0000   0.0000   0.0000   0.0000   0.0000   0.0000   0.0000   0.0000
     0.0000   0.0000   0.0000   0.0000   0.0000   0.0000   0.0000   0.0000
     0.0000   0.0000   0.0000   0.0000   0.0000   0.0000   0.0000   0.0000
     0.0000   0.0000   0.0000   0.0000   0.0000   0.0000   0.0000   0.0000
     0.0000   0.0000   0.0000   0.0000   0.0000   0.0000   0.0000   0.0000
     0.0000   0.0000   0.0000   0.0000   0.0000   0.0000   0.0000   0.0000
     0.0000   0.0000   0.0000   0.0000   0.0000   0.0000   0.0000   0.0000
     0.0000   0.0000   0.0000   0.0000   0.0000   0.0000   0.0000   0.0000
     0.0000   0.0000   0.0000   0.0000   0.0000   0.0000   0.0000   0.0000
     0.0000   0.0000   0.0000   0.0000   0.0000   0.0000   0.0000   0.0000
     0.0000   0.0000   0.0000   0.0000   0.0000   0.0000   0.0000   0.0000
     0.0000   0.0000   0.0000   0.0000   0.0000   0.0000   0.0000   0.0000
     0.0000   0.0000   0.0000   0.0000   0.0000   0.0000   0.0000   0.0000
     0.0000   0.0000   0.0000   0.0000   0.0000   0.0000   0.0000   0.0000
     0.0000   0.0000   0.0000   0.0000   0.0000   0.0000   0.0000   0.0000
     0.0000   0.0000   0.0000   0.0000   0.0000   0.0000   0.0000   0.0000
     0.0000   0.0000   0.0000   0.0000   0.0000   0.0000   0.0000   0.0000
     0.0000   0.0000   0.0000   0.0000   0.0000   0.0000   0.0000   0.0000
     0.0000   0.0000   0.0000   0.0000   0.0000   0.0000   0.0000   0.0000
     0.0000   0.0000   0.0000   0.0000   0.0000   0.0000   0.0000   0.0000

          k = 0.0000 0.0000 0.1110 (  5647 PWs)   bands (ev):

    -9.7556  -9.4190  -9.2786  -9.2368  -9.1178  -9.0803  -2.8665  -2.8394
    -2.8101  -2.8063  -2.7492  -2.7178  -2.7011  -2.6767  -2.6687  -2.6631
    -2.6601  -2.6467  -2.6350  -2.6157  -2.5920  -2.5734  -2.5705  -2.5570
    -2.5555  -2.5364  -2.5100  -2.5027  -2.4883  -2.4809  -2.4613  -2.4577
    -2.4069  -2.3939  -2.3925  -2.3742  -2.3680  -2.3310  -2.3310  -2.3145
    -2.3027  -2.2049  -2.1930  -2.1493  -2.0846  -1.8498   1.3673   1.6236
     1.9759   2.1344   2.4476   2.6209   2.8961   3.2134   4.4994   5.2305
     5.3195   5.6305   5.7752   5.9556   6.1222   6.2281   6.2490   6.2766
     6.6901   6.7476   6.8735   6.8792   7.0528   7.3026   8.6121   9.2551
     9.7331  10.0527  10.3979  11.0552  11.3249  12.3230  13.2711  13.6078
    14.1111  14.8646  14.9092  15.0672  15.2516  15.3644  15.7559  15.8741
    16.1480  16.3428  16.4628  16.6731  16.6973  17.1313  17.1822  17.4497
    18.0056  18.3039  18.4061  18.6940  18.9146  19.3344  19.6237  19.7994
    20.8157  20.8183  21.0579  21.1871  21.7184  22.0539  22.3971  22.5715
    22.6148  22.6818  22.9676  23.0594  23.1719  23.3432  23.7044  23.7491
    23.8453  23.8835  23.9132  24.2451  24.6393  24.7772  24.9204  25.2401
    25.3429  25.4393  25.6797  26.1892  26.2829  26.4091  26.4410  26.5196
    26.6809  26.7140  26.9979  27.0712  27.2884  27.5672  27.7320  27.8496
    27.8508  28.0217  28.1048  28.2358  28.4930  28.6708  28.8328  28.9290
    28.9952  29.1108  29.2728  29.4395  29.7322  30.1559  30.3707  30.4700
    30.4981  30.6285  30.8918  30.9754  31.3360  31.5475  31.7149  31.7884
    31.9778  32.1111  32.2299  32.5589  32.8151  32.8573  32.8834  33.4036
    33.4644  33.6333  33.8630  34.0388  34.2331  34.2387  34.4386  34.5276
    34.6716  34.8707  34.9079  35.0842  35.1701  35.6007  35.8523  36.0459
    36.3769  36.5227  36.7807  36.9438  36.9443  37.2316  37.2839  37.6268
    37.7591  37.8867  37.9369  37.9645  38.2534  38.3514  38.4587  38.7852
    38.7943  38.9154  38.9601  39.0754  39.3166  39.3876  39.4119  39.6198
    39.8521  39.8805  40.0472  40.1104  40.2434  40.3010  40.6201  40.7084
    40.7911  40.9673  41.1105  41.2326  41.3910  41.6465  41.9042  41.9563
    42.0764  42.3259  42.5065  42.6289  42.6685  43.0359  43.4600  43.8302
    43.9357  44.1317  44.2003  44.6068  44.8449  45.0246  45.0288  45.1082
    45.3419  45.6627  45.7262  45.8954  46.0226  46.1843  46.3482  46.4510

     occupation numbers 
     1.0000   1.0000   1.0000   1.0000   1.0000   1.0000   1.0000   1.0000
     1.0000   1.0000   1.0000   1.0000   1.0000   1.0000   1.0000   1.0000
     1.0000   1.0000   1.0000   1.0000   1.0000   1.0000   1.0000   1.0000
     1.0000   1.0000   1.0000   1.0000   1.0000   1.0000   1.0000   1.0000
     1.0000   1.0000   1.0000   1.0000   1.0000   1.0000   1.0000   1.0000
     1.0000   1.0000   1.0000   1.0000   1.0000   1.0000   1.0000   1.0000
     1.0000   1.0000   1.0000   1.0000   1.0000   1.0000   1.0000   1.0000
     1.0000   1.0000   1.0000   1.0000   1.0000   1.0000   1.0000   1.0000
     1.0000   1.0000   1.0000   1.0000   1.0000   1.0000   0.0000   0.0000
     0.0000   0.0000   0.0000   0.0000   0.0000   0.0000   0.0000   0.0000
     0.0000   0.0000   0.0000   0.0000   0.0000   0.0000   0.0000   0.0000
     0.0000   0.0000   0.0000   0.0000   0.0000   0.0000   0.0000   0.0000
     0.0000   0.0000   0.0000   0.0000   0.0000   0.0000   0.0000   0.0000
     0.0000   0.0000   0.0000   0.0000   0.0000   0.0000   0.0000   0.0000
     0.0000   0.0000   0.0000   0.0000   0.0000   0.0000   0.0000   0.0000
     0.0000   0.0000   0.0000   0.0000   0.0000   0.0000   0.0000   0.0000
     0.0000   0.0000   0.0000   0.0000   0.0000   0.0000   0.0000   0.0000
     0.0000   0.0000   0.0000   0.0000   0.0000   0.0000   0.0000   0.0000
     0.0000   0.0000   0.0000   0.0000   0.0000   0.0000   0.0000   0.0000
     0.0000   0.0000   0.0000   0.0000   0.0000   0.0000   0.0000   0.0000
     0.0000   0.0000   0.0000   0.0000   0.0000   0.0000   0.0000   0.0000
     0.0000   0.0000   0.0000   0.0000   0.0000   0.0000   0.0000   0.0000
     0.0000   0.0000   0.0000   0.0000   0.0000   0.0000   0.0000   0.0000
     0.0000   0.0000   0.0000   0.0000   0.0000   0.0000   0.0000   0.0000
     0.0000   0.0000   0.0000   0.0000   0.0000   0.0000   0.0000   0.0000
     0.0000   0.0000   0.0000   0.0000   0.0000   0.0000   0.0000   0.0000
     0.0000   0.0000   0.0000   0.0000   0.0000   0.0000   0.0000   0.0000
     0.0000   0.0000   0.0000   0.0000   0.0000   0.0000   0.0000   0.0000
     0.0000   0.0000   0.0000   0.0000   0.0000   0.0000   0.0000   0.0000
     0.0000   0.0000   0.0000   0.0000   0.0000   0.0000   0.0000   0.0000
     0.0000   0.0000   0.0000   0.0000   0.0000   0.0000   0.0000   0.0000
     0.0000   0.0000   0.0000   0.0000   0.0000   0.0000   0.0000   0.0000

          k = 0.0000 0.1493-0.0530 (  5651 PWs)   bands (ev):

    -9.7461  -9.4164  -9.2747  -9.2406  -9.1418  -9.0719  -2.8614  -2.8441
    -2.8084  -2.7986  -2.7276  -2.7156  -2.6793  -2.6771  -2.6631  -2.6480
    -2.6374  -2.6349  -2.6221  -2.6010  -2.5982  -2.5810  -2.5662  -2.5584
    -2.5552  -2.5462  -2.5265  -2.5094  -2.4974  -2.4934  -2.4502  -2.4437
    -2.4275  -2.4113  -2.3860  -2.3832  -2.3722  -2.3300  -2.3278  -2.3257
    -2.3036  -2.2379  -2.1943  -2.1675  -2.0821  -1.8370   1.2882   1.5158
     2.0496   2.2887   2.3740   2.6573   2.9295   3.3602   4.1415   5.2755
     5.3483   5.7686   5.7935   6.0192   6.1335   6.2177   6.2324   6.2638
     6.5582   6.6679   6.6860   6.8575   7.0933   7.2026   8.9495   9.4464
     9.9114  10.3546  10.5261  11.2818  11.5770  12.2600  12.3768  13.0809
    13.5102  14.3776  14.8668  14.8915  15.1478  15.3071  15.3176  16.0221
    16.0999  16.3402  16.6715  16.7951  17.2453  17.4560  17.9399  18.1459
    18.2158  18.4869  18.5004  18.8188  18.9665  19.5273  19.7792  20.1265
    20.4356  20.7310  21.0326  21.4103  21.6163  21.8473  21.9833  22.2297
    22.4188  22.4326  22.7066  22.8019  22.8596  23.0788  23.4119  23.6303
    23.9049  24.0777  24.2448  24.3056  24.4760  24.5293  24.6604  24.7952
    25.3548  25.3977  25.6822  26.0038  26.1518  26.2328  26.4845  26.6284
    26.7662  26.8542  27.0677  27.0960  27.2012  27.3891  27.4137  27.7692
    27.9474  28.3171  28.4597  28.5337  28.8687  29.0178  29.1381  29.2966
    29.4649  29.5296  29.5944  29.7959  30.0805  30.2453  30.3858  30.4305
    30.6337  31.1459  31.2971  31.3363  31.6068  31.6310  31.6793  32.0529
    32.2140  32.2802  32.3717  32.3825  32.8279  32.8782  33.0241  33.1608
    33.1856  33.5800  33.5884  33.7145  33.8434  33.8728  33.9885  34.1526
    34.4068  34.4486  34.8026  34.9368  34.9880  35.4245  35.4954  35.6833
    35.9829  36.0913  36.2641  36.4604  36.8778  37.0539  37.0655  37.2423
    37.2776  37.4273  37.7271  38.0393  38.0749  38.1827  38.2570  38.7340
    38.8183  38.9047  39.0536  39.2165  39.2458  39.4314  39.5854  39.6162
    39.8898  39.9197  40.0897  40.1018  40.2973  40.4852  40.5942  40.6670
    40.9931  41.0801  41.2756  41.2778  42.0252  42.1085  42.2923  42.3713
    42.5496  42.8412  43.0506  43.1173  43.2329  43.5367  43.7691  44.1290
    44.3079  44.3494  44.4768  44.5642  44.7354  44.8160  45.2111  45.2909
    45.6125  45.6203  45.8143  45.8188  45.8962  46.0272  46.0817  46.3994

     occupation numbers 
     1.0000   1.0000   1.0000   1.0000   1.0000   1.0000   1.0000   1.0000
     1.0000   1.0000   1.0000   1.0000   1.0000   1.0000   1.0000   1.0000
     1.0000   1.0000   1.0000   1.0000   1.0000   1.0000   1.0000   1.0000
     1.0000   1.0000   1.0000   1.0000   1.0000   1.0000   1.0000   1.0000
     1.0000   1.0000   1.0000   1.0000   1.0000   1.0000   1.0000   1.0000
     1.0000   1.0000   1.0000   1.0000   1.0000   1.0000   1.0000   1.0000
     1.0000   1.0000   1.0000   1.0000   1.0000   1.0000   1.0000   1.0000
     1.0000   1.0000   1.0000   1.0000   1.0000   1.0000   1.0000   1.0000
     1.0000   1.0000   1.0000   1.0000   1.0000   1.0000   0.0000   0.0000
     0.0000   0.0000   0.0000   0.0000   0.0000   0.0000   0.0000   0.0000
     0.0000   0.0000   0.0000   0.0000   0.0000   0.0000   0.0000   0.0000
     0.0000   0.0000   0.0000   0.0000   0.0000   0.0000   0.0000   0.0000
     0.0000   0.0000   0.0000   0.0000   0.0000   0.0000   0.0000   0.0000
     0.0000   0.0000   0.0000   0.0000   0.0000   0.0000   0.0000   0.0000
     0.0000   0.0000   0.0000   0.0000   0.0000   0.0000   0.0000   0.0000
     0.0000   0.0000   0.0000   0.0000   0.0000   0.0000   0.0000   0.0000
     0.0000   0.0000   0.0000   0.0000   0.0000   0.0000   0.0000   0.0000
     0.0000   0.0000   0.0000   0.0000   0.0000   0.0000   0.0000   0.0000
     0.0000   0.0000   0.0000   0.0000   0.0000   0.0000   0.0000   0.0000
     0.0000   0.0000   0.0000   0.0000   0.0000   0.0000   0.0000   0.0000
     0.0000   0.0000   0.0000   0.0000   0.0000   0.0000   0.0000   0.0000
     0.0000   0.0000   0.0000   0.0000   0.0000   0.0000   0.0000   0.0000
     0.0000   0.0000   0.0000   0.0000   0.0000   0.0000   0.0000   0.0000
     0.0000   0.0000   0.0000   0.0000   0.0000   0.0000   0.0000   0.0000
     0.0000   0.0000   0.0000   0.0000   0.0000   0.0000   0.0000   0.0000
     0.0000   0.0000   0.0000   0.0000   0.0000   0.0000   0.0000   0.0000
     0.0000   0.0000   0.0000   0.0000   0.0000   0.0000   0.0000   0.0000
     0.0000   0.0000   0.0000   0.0000   0.0000   0.0000   0.0000   0.0000
     0.0000   0.0000   0.0000   0.0000   0.0000   0.0000   0.0000   0.0000
     0.0000   0.0000   0.0000   0.0000   0.0000   0.0000   0.0000   0.0000
     0.0000   0.0000   0.0000   0.0000   0.0000   0.0000   0.0000   0.0000
     0.0000   0.0000   0.0000   0.0000   0.0000   0.0000   0.0000   0.0000

          k = 0.0000 0.1493 0.0580 (  5637 PWs)   bands (ev):

    -9.7443  -9.4218  -9.2764  -9.2351  -9.1414  -9.0721  -2.8621  -2.8465
    -2.8052  -2.7977  -2.7299  -2.7167  -2.6801  -2.6689  -2.6628  -2.6479
    -2.6471  -2.6304  -2.6294  -2.6052  -2.5961  -2.5846  -2.5719  -2.5650
    -2.5554  -2.5357  -2.5275  -2.5096  -2.4911  -2.4829  -2.4570  -2.4403
    -2.4373  -2.4188  -2.3779  -2.3713  -2.3677  -2.3324  -2.3304  -2.3239
    -2.3013  -2.2403  -2.1933  -2.1526  -2.0830  -1.8552   1.2383   1.5919
     2.1392   2.2898   2.4073   2.5168   2.7722   3.4826   4.2752   5.1275
     5.2820   5.7857   5.8172   5.8724   6.2298   6.2612   6.2848   6.3162
     6.5618   6.6735   6.8340   6.8608   6.9184   7.3173   8.7706   9.4302
     9.9796  10.4335  10.4423  11.2903  11.6039  12.1828  12.6259  12.7953
    13.5845  14.5584  14.7800  14.8798  15.0306  15.2826  15.4325  16.0442
    16.1836  16.5335  16.5784  16.5943  17.3174  17.4274  17.9211  18.1401
    18.2167  18.3934  18.5054  18.9571  19.0118  19.1806  20.0911  20.2149
    20.2820  20.5975  21.1861  21.4091  21.5197  21.7685  22.0464  22.2608
    22.3503  22.3971  22.5734  22.7531  22.9347  23.4397  23.5063  23.6647
    23.8905  24.0633  24.1260  24.2909  24.5959  24.7088  24.7955  25.1577
    25.1969  25.2547  25.4065  25.5436  25.8926  25.9180  26.1206  26.6161
    26.6420  26.7568  27.1419  27.2294  27.4362  27.4529  27.7431  27.9191
    28.0255  28.2229  28.6633  28.7730  29.0760  29.1771  29.2399  29.3285
    29.4957  29.6266  29.8043  29.8416  30.1937  30.3968  30.5780  30.6971
    30.7896  30.8324  31.0060  31.2814  31.4156  31.5871  31.6525  31.9510
    32.1510  32.2480  32.2999  32.4224  32.5724  32.6279  32.8516  32.8882
    32.9056  33.0057  33.2324  33.5048  33.8138  33.9170  34.0834  34.3214
    34.4544  34.5377  34.6718  35.1601  35.3170  35.4682  35.7387  36.0454
    36.1135  36.2943  36.3539  36.4053  36.6404  36.6874  36.8765  37.3408
    37.4249  37.5360  37.8341  37.9607  38.0740  38.2602  38.3271  38.8276
    38.9088  38.9749  39.0360  39.0829  39.2195  39.2296  39.6956  39.7706
    39.8898  40.0679  40.1590  40.3451  40.3698  40.4556  40.8368  40.8924
    41.0876  41.2503  41.2720  41.6144  41.8363  42.0299  42.1567  42.2582
    42.3626  42.5427  42.6598  43.3811  43.5248  43.7585  43.8251  43.8580
    43.9865  44.1305  44.1680  44.5590  44.5944  44.8309  44.9692  45.2320
    45.2738  45.4517  45.6101  45.6236  46.0205  46.1023  46.4068  46.5437

     occupation numbers 
     1.0000   1.0000   1.0000   1.0000   1.0000   1.0000   1.0000   1.0000
     1.0000   1.0000   1.0000   1.0000   1.0000   1.0000   1.0000   1.0000
     1.0000   1.0000   1.0000   1.0000   1.0000   1.0000   1.0000   1.0000
     1.0000   1.0000   1.0000   1.0000   1.0000   1.0000   1.0000   1.0000
     1.0000   1.0000   1.0000   1.0000   1.0000   1.0000   1.0000   1.0000
     1.0000   1.0000   1.0000   1.0000   1.0000   1.0000   1.0000   1.0000
     1.0000   1.0000   1.0000   1.0000   1.0000   1.0000   1.0000   1.0000
     1.0000   1.0000   1.0000   1.0000   1.0000   1.0000   1.0000   1.0000
     1.0000   1.0000   1.0000   1.0000   1.0000   1.0000   0.0000   0.0000
     0.0000   0.0000   0.0000   0.0000   0.0000   0.0000   0.0000   0.0000
     0.0000   0.0000   0.0000   0.0000   0.0000   0.0000   0.0000   0.0000
     0.0000   0.0000   0.0000   0.0000   0.0000   0.0000   0.0000   0.0000
     0.0000   0.0000   0.0000   0.0000   0.0000   0.0000   0.0000   0.0000
     0.0000   0.0000   0.0000   0.0000   0.0000   0.0000   0.0000   0.0000
     0.0000   0.0000   0.0000   0.0000   0.0000   0.0000   0.0000   0.0000
     0.0000   0.0000   0.0000   0.0000   0.0000   0.0000   0.0000   0.0000
     0.0000   0.0000   0.0000   0.0000   0.0000   0.0000   0.0000   0.0000
     0.0000   0.0000   0.0000   0.0000   0.0000   0.0000   0.0000   0.0000
     0.0000   0.0000   0.0000   0.0000   0.0000   0.0000   0.0000   0.0000
     0.0000   0.0000   0.0000   0.0000   0.0000   0.0000   0.0000   0.0000
     0.0000   0.0000   0.0000   0.0000   0.0000   0.0000   0.0000   0.0000
     0.0000   0.0000   0.0000   0.0000   0.0000   0.0000   0.0000   0.0000
     0.0000   0.0000   0.0000   0.0000   0.0000   0.0000   0.0000   0.0000
     0.0000   0.0000   0.0000   0.0000   0.0000   0.0000   0.0000   0.0000
     0.0000   0.0000   0.0000   0.0000   0.0000   0.0000   0.0000   0.0000
     0.0000   0.0000   0.0000   0.0000   0.0000   0.0000   0.0000   0.0000
     0.0000   0.0000   0.0000   0.0000   0.0000   0.0000   0.0000   0.0000
     0.0000   0.0000   0.0000   0.0000   0.0000   0.0000   0.0000   0.0000
     0.0000   0.0000   0.0000   0.0000   0.0000   0.0000   0.0000   0.0000
     0.0000   0.0000   0.0000   0.0000   0.0000   0.0000   0.0000   0.0000
     0.0000   0.0000   0.0000   0.0000   0.0000   0.0000   0.0000   0.0000
     0.0000   0.0000   0.0000   0.0000   0.0000   0.0000   0.0000   0.0000

          k = 0.0000 0.1493-0.1640 (  5659 PWs)   bands (ev):

    -9.7441  -9.4222  -9.2765  -9.2348  -9.1419  -9.0720  -2.8583  -2.8500
    -2.8045  -2.7996  -2.7274  -2.7165  -2.6849  -2.6676  -2.6567  -2.6491
    -2.6453  -2.6378  -2.6336  -2.6000  -2.5944  -2.5805  -2.5787  -2.5708
    -2.5595  -2.5378  -2.5192  -2.5058  -2.4869  -2.4787  -2.4583  -2.4377
    -2.4305  -2.4173  -2.3871  -2.3782  -2.3738  -2.3320  -2.3296  -2.3240
    -2.2993  -2.2406  -2.1928  -2.1509  -2.0832  -1.8530   1.2615   1.5559
     2.0012   2.3808   2.5188   2.6072   2.7939   3.1717   4.3923   5.2101
     5.2804   5.7026   5.7814   6.0423   6.1908   6.2363   6.2520   6.3053
     6.6440   6.6679   6.6764   6.8573   7.0173   7.2787   8.9538   9.2576
     9.9437  10.1852  10.5234  11.2941  11.4428  12.2098  12.9738  13.3688
    13.5422  14.1066  14.3849  14.7440  14.9189  15.2444  15.6266  16.0395
    16.3770  16.4629  16.7815  16.9877  17.2795  17.5311  17.9652  18.1103
    18.2340  18.3116  18.3861  18.9162  19.2380  19.3293  19.7996  20.0089
    20.2198  20.5064  20.7865  21.0931  21.2026  21.4597  21.9333  22.2450
    22.3205  22.5371  22.7612  23.1364  23.3227  23.3464  23.5804  23.9074
    24.0526  24.1066  24.5589  24.5614  24.6234  24.8666  24.9758  25.1041
    25.2368  25.4383  25.5745  25.6682  25.8166  25.8858  26.1158  26.2400
    26.3778  26.6086  26.9867  27.1211  27.2176  27.4643  27.6635  28.0705
    28.1105  28.3935  28.5660  28.7521  28.8893  29.0435  29.0809  29.3768
    29.4068  29.5442  29.8107  29.9949  30.1270  30.1715  30.2880  30.5872
    30.6922  30.7970  31.2247  31.3790  31.4225  31.5244  31.7567  31.8121
    31.8459  32.0377  32.2118  32.3294  32.3745  32.5110  33.0872  33.1234
    33.1742  33.2760  33.4326  33.5839  33.6499  33.9164  34.1674  34.4613
    34.5501  34.6640  34.7827  35.2175  35.3732  35.7926  35.8333  35.9524
    36.0787  36.1603  36.5468  36.6660  36.7231  36.8423  37.1085  37.2208
    37.4823  37.5364  37.9062  37.9946  38.2037  38.3656  38.4582  38.6817
    38.7150  38.8834  38.9910  39.1310  39.1472  39.2686  39.4224  39.5731
    39.6505  40.0346  40.1305  40.2674  40.4212  40.6273  40.6894  40.8649
    41.0125  41.0325  41.2075  41.2294  41.5350  41.6586  41.9204  42.0293
    42.3303  42.9218  43.0155  43.1338  43.2896  43.6072  43.6911  43.8110
    44.0806  44.1683  44.3543  44.5772  44.6465  44.9294  45.0090  45.2183
    45.5514  45.5708  45.6727  45.7332  46.0192  46.3257  46.6353  46.7854

     occupation numbers 
     1.0000   1.0000   1.0000   1.0000   1.0000   1.0000   1.0000   1.0000
     1.0000   1.0000   1.0000   1.0000   1.0000   1.0000   1.0000   1.0000
     1.0000   1.0000   1.0000   1.0000   1.0000   1.0000   1.0000   1.0000
     1.0000   1.0000   1.0000   1.0000   1.0000   1.0000   1.0000   1.0000
     1.0000   1.0000   1.0000   1.0000   1.0000   1.0000   1.0000   1.0000
     1.0000   1.0000   1.0000   1.0000   1.0000   1.0000   1.0000   1.0000
     1.0000   1.0000   1.0000   1.0000   1.0000   1.0000   1.0000   1.0000
     1.0000   1.0000   1.0000   1.0000   1.0000   1.0000   1.0000   1.0000
     1.0000   1.0000   1.0000   1.0000   1.0000   1.0000   0.0000   0.0000
     0.0000   0.0000   0.0000   0.0000   0.0000   0.0000   0.0000   0.0000
     0.0000   0.0000   0.0000   0.0000   0.0000   0.0000   0.0000   0.0000
     0.0000   0.0000   0.0000   0.0000   0.0000   0.0000   0.0000   0.0000
     0.0000   0.0000   0.0000   0.0000   0.0000   0.0000   0.0000   0.0000
     0.0000   0.0000   0.0000   0.0000   0.0000   0.0000   0.0000   0.0000
     0.0000   0.0000   0.0000   0.0000   0.0000   0.0000   0.0000   0.0000
     0.0000   0.0000   0.0000   0.0000   0.0000   0.0000   0.0000   0.0000
     0.0000   0.0000   0.0000   0.0000   0.0000   0.0000   0.0000   0.0000
     0.0000   0.0000   0.0000   0.0000   0.0000   0.0000   0.0000   0.0000
     0.0000   0.0000   0.0000   0.0000   0.0000   0.0000   0.0000   0.0000
     0.0000   0.0000   0.0000   0.0000   0.0000   0.0000   0.0000   0.0000
     0.0000   0.0000   0.0000   0.0000   0.0000   0.0000   0.0000   0.0000
     0.0000   0.0000   0.0000   0.0000   0.0000   0.0000   0.0000   0.0000
     0.0000   0.0000   0.0000   0.0000   0.0000   0.0000   0.0000   0.0000
     0.0000   0.0000   0.0000   0.0000   0.0000   0.0000   0.0000   0.0000
     0.0000   0.0000   0.0000   0.0000   0.0000   0.0000   0.0000   0.0000
     0.0000   0.0000   0.0000   0.0000   0.0000   0.0000   0.0000   0.0000
     0.0000   0.0000   0.0000   0.0000   0.0000   0.0000   0.0000   0.0000
     0.0000   0.0000   0.0000   0.0000   0.0000   0.0000   0.0000   0.0000
     0.0000   0.0000   0.0000   0.0000   0.0000   0.0000   0.0000   0.0000
     0.0000   0.0000   0.0000   0.0000   0.0000   0.0000   0.0000   0.0000
     0.0000   0.0000   0.0000   0.0000   0.0000   0.0000   0.0000   0.0000
     0.0000   0.0000   0.0000   0.0000   0.0000   0.0000   0.0000   0.0000

          k = 0.3333 0.0000 0.0000 (  5656 PWs)   bands (ev):

    -9.4709  -9.2945  -9.2122  -9.1706  -9.1415  -9.1302  -2.7509  -2.7460
    -2.7264  -2.7130  -2.7106  -2.7078  -2.6992  -2.6814  -2.6764  -2.6700
    -2.6200  -2.6141  -2.6139  -2.5825  -2.5797  -2.5631  -2.5337  -2.5245
    -2.5196  -2.5018  -2.4900  -2.4833  -2.4575  -2.4325  -2.4270  -2.4046
    -2.3766  -2.3734  -2.3671  -2.3372  -2.3350  -2.3150  -2.2519  -2.2230
    -2.2047  -2.1540  -2.1171  -2.0128  -1.9425  -1.8780   2.0032   2.0427
     2.2763   2.5014   2.7489   2.9318   3.2799   3.2930   4.5228   4.8580
     5.0870   5.1979   5.3928   5.5066   5.8706   6.1762   6.1980   6.2800
     6.4447   6.5360   6.7397   6.8379   6.9911   7.0294   9.5152   9.8590
    10.1298  10.2685  10.6798  10.8937  11.4379  11.5017  11.7108  11.7891
    12.5245  12.5496  12.8125  13.8309  13.9373  14.3436  14.4842  14.6002
    14.7239  15.0807  15.7092  15.8231  16.2696  16.4593  16.7131  17.0129
    17.2938  17.3539  18.5474  18.6475  18.9332  19.1532  19.4786  19.7263
    20.2576  20.4676  20.5067  20.6519  21.3363  21.6506  21.6834  21.9898
    22.0345  22.2267  23.1455  23.3218  23.6204  23.7927  24.4241  24.5102
    24.7080  24.8214  24.9864  25.1693  25.3480  25.7131  25.8307  26.0692
    26.1024  26.2388  26.2561  26.8113  26.8468  27.2860  27.5551  27.7522
    27.7630  27.8109  27.9991  28.1334  28.3970  28.5373  28.7079  28.7793
    29.1766  29.3287  29.3400  29.5704  29.8737  29.9916  30.0806  30.1833
    30.1890  30.4182  30.5188  30.8059  30.8870  31.0085  31.1900  31.2018
    31.4538  31.6084  31.6578  31.7351  32.2636  32.5864  32.6610  32.7318
    32.7774  33.2204  33.2574  33.2817  33.3428  33.5703  33.7930  33.8151
    33.9851  34.1705  34.2688  34.4495  34.4881  34.7412  34.8764  35.0671
    35.1632  35.3102  35.5625  35.8294  35.9685  36.0318  36.3361  36.4327
    36.5168  36.6391  36.7700  36.8116  36.9348  36.9777  37.3193  37.4273
    37.5359  37.6173  37.7258  37.9445  38.0033  38.3434  38.3846  38.6235
    38.6621  38.8356  39.0107  39.1892  39.2094  39.4226  39.5237  39.6887
    39.7014  39.8843  40.1904  40.1993  40.3971  40.5055  40.8774  41.0798
    41.1078  41.1941  41.3338  41.6155  41.6996  41.7683  41.8397  41.8860
    42.3955  42.4052  42.5028  42.5757  42.6073  42.9236  43.1356  43.2768
    43.3945  43.5419  43.5438  43.7492  43.8587  44.0972  44.1564  44.2910
    44.3832  44.4828  44.5622  44.6601  44.7682  44.8486  45.2051  45.2971

     occupation numbers 
     1.0000   1.0000   1.0000   1.0000   1.0000   1.0000   1.0000   1.0000
     1.0000   1.0000   1.0000   1.0000   1.0000   1.0000   1.0000   1.0000
     1.0000   1.0000   1.0000   1.0000   1.0000   1.0000   1.0000   1.0000
     1.0000   1.0000   1.0000   1.0000   1.0000   1.0000   1.0000   1.0000
     1.0000   1.0000   1.0000   1.0000   1.0000   1.0000   1.0000   1.0000
     1.0000   1.0000   1.0000   1.0000   1.0000   1.0000   1.0000   1.0000
     1.0000   1.0000   1.0000   1.0000   1.0000   1.0000   1.0000   1.0000
     1.0000   1.0000   1.0000   1.0000   1.0000   1.0000   1.0000   1.0000
     1.0000   1.0000   1.0000   1.0000   1.0000   1.0000   0.0000   0.0000
     0.0000   0.0000   0.0000   0.0000   0.0000   0.0000   0.0000   0.0000
     0.0000   0.0000   0.0000   0.0000   0.0000   0.0000   0.0000   0.0000
     0.0000   0.0000   0.0000   0.0000   0.0000   0.0000   0.0000   0.0000
     0.0000   0.0000   0.0000   0.0000   0.0000   0.0000   0.0000   0.0000
     0.0000   0.0000   0.0000   0.0000   0.0000   0.0000   0.0000   0.0000
     0.0000   0.0000   0.0000   0.0000   0.0000   0.0000   0.0000   0.0000
     0.0000   0.0000   0.0000   0.0000   0.0000   0.0000   0.0000   0.0000
     0.0000   0.0000   0.0000   0.0000   0.0000   0.0000   0.0000   0.0000
     0.0000   0.0000   0.0000   0.0000   0.0000   0.0000   0.0000   0.0000
     0.0000   0.0000   0.0000   0.0000   0.0000   0.0000   0.0000   0.0000
     0.0000   0.0000   0.0000   0.0000   0.0000   0.0000   0.0000   0.0000
     0.0000   0.0000   0.0000   0.0000   0.0000   0.0000   0.0000   0.0000
     0.0000   0.0000   0.0000   0.0000   0.0000   0.0000   0.0000   0.0000
     0.0000   0.0000   0.0000   0.0000   0.0000   0.0000   0.0000   0.0000
     0.0000   0.0000   0.0000   0.0000   0.0000   0.0000   0.0000   0.0000
     0.0000   0.0000   0.0000   0.0000   0.0000   0.0000   0.0000   0.0000
     0.0000   0.0000   0.0000   0.0000   0.0000   0.0000   0.0000   0.0000
     0.0000   0.0000   0.0000   0.0000   0.0000   0.0000   0.0000   0.0000
     0.0000   0.0000   0.0000   0.0000   0.0000   0.0000   0.0000   0.0000
     0.0000   0.0000   0.0000   0.0000   0.0000   0.0000   0.0000   0.0000
     0.0000   0.0000   0.0000   0.0000   0.0000   0.0000   0.0000   0.0000
     0.0000   0.0000   0.0000   0.0000   0.0000   0.0000   0.0000   0.0000
     0.0000   0.0000   0.0000   0.0000   0.0000   0.0000   0.0000   0.0000

          k = 0.3333 0.0000 0.1110 (  5662 PWs)   bands (ev):

    -9.4696  -9.2972  -9.2140  -9.1675  -9.1425  -9.1293  -2.7612  -2.7561
    -2.7209  -2.7105  -2.7014  -2.6989  -2.6959  -2.6735  -2.6673  -2.6633
    -2.6305  -2.6230  -2.5973  -2.5932  -2.5788  -2.5599  -2.5522  -2.5314
    -2.5241  -2.5178  -2.4879  -2.4821  -2.4448  -2.4350  -2.4241  -2.4190
    -2.3832  -2.3738  -2.3582  -2.3381  -2.3322  -2.3124  -2.2357  -2.2186
    -2.2084  -2.1521  -2.1132  -2.0156  -1.9516  -1.8742   1.9687   2.0892
     2.2152   2.5637   2.7520   2.9625   3.1758   3.3188   4.6055   4.8430
     5.0987   5.1550   5.4571   5.4995   5.8964   6.1745   6.1952   6.2150
     6.3310   6.5394   6.7281   6.7859   6.9841   7.1637   9.6411   9.9029
    10.0341  10.3403  10.5734  11.0540  11.2813  11.4096  11.5318  12.0046
    12.0695  12.7444  13.3069  13.7043  13.9832  14.2412  14.3915  14.6005
    14.8401  15.1363  15.5828  15.8434  16.0997  16.3928  16.7985  17.2026
    17.3068  17.7336  18.1237  18.4741  18.8416  19.0635  19.5276  20.0854
    20.1075  20.3034  20.6394  20.8852  21.4545  21.6548  21.7603  22.0688
    22.3025  22.4809  22.6798  23.0056  23.3921  23.8207  23.9607  24.1076
    24.3221  24.9227  25.0938  25.2717  25.5442  25.8193  25.9626  26.1349
    26.1858  26.3259  26.4854  26.7796  27.0951  27.3391  27.4936  27.6111
    27.7889  27.8263  28.0863  28.3753  28.4355  28.5782  28.6608  29.1224
    29.2126  29.3372  29.5555  29.5808  29.6500  29.9309  30.0356  30.2354
    30.3637  30.5446  30.6166  30.6892  30.7535  30.9985  31.0661  31.2376
    31.3341  31.6169  31.7243  31.8509  32.1377  32.2569  32.3485  32.5684
    32.8087  33.0290  33.1959  33.2346  33.4516  33.5546  33.5972  33.7239
    33.9012  33.9791  34.2741  34.3843  34.4581  34.7180  34.9110  35.0334
    35.1106  35.2214  35.3342  35.6072  35.7659  36.1204  36.2043  36.4044
    36.6489  36.7428  36.7838  36.9890  37.1404  37.2040  37.4865  37.5674
    37.6602  37.8834  38.0336  38.0738  38.2793  38.3390  38.5112  38.5835
    38.7733  38.9548  39.0387  39.1276  39.2146  39.5267  39.5863  39.8260
    39.9408  40.1180  40.2401  40.3128  40.3718  40.5539  40.7728  40.8503
    40.9379  41.1189  41.3395  41.3983  41.4505  41.5895  41.7834  41.9389
    42.1285  42.2735  42.5387  42.6081  42.7629  42.9328  43.2157  43.2667
    43.3959  43.4670  43.6620  43.6745  43.8466  44.0042  44.0435  44.2372
    44.3556  44.4245  44.6024  44.6455  44.7765  45.0876  45.1646  45.2056

     occupation numbers 
     1.0000   1.0000   1.0000   1.0000   1.0000   1.0000   1.0000   1.0000
     1.0000   1.0000   1.0000   1.0000   1.0000   1.0000   1.0000   1.0000
     1.0000   1.0000   1.0000   1.0000   1.0000   1.0000   1.0000   1.0000
     1.0000   1.0000   1.0000   1.0000   1.0000   1.0000   1.0000   1.0000
     1.0000   1.0000   1.0000   1.0000   1.0000   1.0000   1.0000   1.0000
     1.0000   1.0000   1.0000   1.0000   1.0000   1.0000   1.0000   1.0000
     1.0000   1.0000   1.0000   1.0000   1.0000   1.0000   1.0000   1.0000
     1.0000   1.0000   1.0000   1.0000   1.0000   1.0000   1.0000   1.0000
     1.0000   1.0000   1.0000   1.0000   1.0000   1.0000   0.0000   0.0000
     0.0000   0.0000   0.0000   0.0000   0.0000   0.0000   0.0000   0.0000
     0.0000   0.0000   0.0000   0.0000   0.0000   0.0000   0.0000   0.0000
     0.0000   0.0000   0.0000   0.0000   0.0000   0.0000   0.0000   0.0000
     0.0000   0.0000   0.0000   0.0000   0.0000   0.0000   0.0000   0.0000
     0.0000   0.0000   0.0000   0.0000   0.0000   0.0000   0.0000   0.0000
     0.0000   0.0000   0.0000   0.0000   0.0000   0.0000   0.0000   0.0000
     0.0000   0.0000   0.0000   0.0000   0.0000   0.0000   0.0000   0.0000
     0.0000   0.0000   0.0000   0.0000   0.0000   0.0000   0.0000   0.0000
     0.0000   0.0000   0.0000   0.0000   0.0000   0.0000   0.0000   0.0000
     0.0000   0.0000   0.0000   0.0000   0.0000   0.0000   0.0000   0.0000
     0.0000   0.0000   0.0000   0.0000   0.0000   0.0000   0.0000   0.0000
     0.0000   0.0000   0.0000   0.0000   0.0000   0.0000   0.0000   0.0000
     0.0000   0.0000   0.0000   0.0000   0.0000   0.0000   0.0000   0.0000
     0.0000   0.0000   0.0000   0.0000   0.0000   0.0000   0.0000   0.0000
     0.0000   0.0000   0.0000   0.0000   0.0000   0.0000   0.0000   0.0000
     0.0000   0.0000   0.0000   0.0000   0.0000   0.0000   0.0000   0.0000
     0.0000   0.0000   0.0000   0.0000   0.0000   0.0000   0.0000   0.0000
     0.0000   0.0000   0.0000   0.0000   0.0000   0.0000   0.0000   0.0000
     0.0000   0.0000   0.0000   0.0000   0.0000   0.0000   0.0000   0.0000
     0.0000   0.0000   0.0000   0.0000   0.0000   0.0000   0.0000   0.0000
     0.0000   0.0000   0.0000   0.0000   0.0000   0.0000   0.0000   0.0000
     0.0000   0.0000   0.0000   0.0000   0.0000   0.0000   0.0000   0.0000
     0.0000   0.0000   0.0000   0.0000   0.0000   0.0000   0.0000   0.0000

          k = 0.3333 0.1493-0.0530 (  5684 PWs)   bands (ev):

    -9.4698  -9.2961  -9.2129  -9.1696  -9.1422  -9.1295  -2.7427  -2.7388
    -2.7337  -2.7244  -2.7024  -2.6994  -2.6969  -2.6727  -2.6488  -2.6434
    -2.6252  -2.6214  -2.5944  -2.5724  -2.5693  -2.5618  -2.5435  -2.5259
    -2.5198  -2.5137  -2.5075  -2.4902  -2.4734  -2.4458  -2.4177  -2.4040
    -2.3909  -2.3786  -2.3639  -2.3605  -2.3301  -2.3115  -2.2456  -2.2293
    -2.2153  -2.1554  -2.1139  -2.0413  -1.9395  -1.8641   2.0429   2.0772
     2.3320   2.4704   2.6247   2.9106   3.0372   3.7291   4.3349   4.7526
     4.8768   5.1638   5.4796   5.4848   5.9067   6.0983   6.1442   6.3813
     6.4888   6.5519   6.8422   6.8847   7.0992   7.1844   9.8446  10.0926
    10.2769  10.4573  10.6565  10.7562  10.9846  11.2051  11.5069  11.7277
    12.1843  13.0847  13.3231  13.4455  13.7113  14.0216  14.1128  14.1830
    14.8399  15.0659  15.5559  15.7634  15.9818  16.2724  16.7527  17.0843
    17.6119  18.0698  18.2816  18.5657  19.3169  19.5924  19.9537  20.0363
    20.2038  20.4734  20.8178  21.1369  21.6339  21.7641  21.8432  21.8704
    22.3913  22.4875  22.7561  22.8718  23.4142  23.5688  24.0323  24.2978
    24.4599  24.6637  24.8192  25.0903  25.3985  25.7494  25.9236  25.9734
    26.0476  26.3405  26.4977  26.5398  26.7494  26.9043  27.3151  27.5547
    27.6102  27.7434  27.9472  28.1050  28.1972  28.4942  28.6311  28.7983
    28.9702  29.1271  29.4255  29.4749  29.7971  29.8300  29.9963  30.1507
    30.2390  30.3906  30.5303  30.7140  30.7558  30.9021  31.1785  31.3430
    31.6385  31.7065  31.8098  31.9705  32.2078  32.2793  32.3942  32.6270
    32.7815  33.0379  33.0914  33.2503  33.4794  33.7473  33.9186  34.1303
    34.2164  34.5321  34.6722  34.7347  34.9184  35.0541  35.2323  35.5646
    35.5976  35.6964  36.0476  36.1779  36.2036  36.3760  36.4563  36.6044
    36.7046  36.8730  36.8847  37.0424  37.1026  37.2031  37.4432  37.5744
    37.6758  37.8574  38.0407  38.0810  38.1829  38.3330  38.4180  38.4414
    38.6462  38.7133  38.8409  39.0494  39.1038  39.1442  39.4853  39.6133
    39.6396  39.8619  39.9918  40.1216  40.3297  40.4179  40.5337  40.6066
    40.6801  40.7837  40.9628  41.2469  41.2553  41.5160  41.5568  41.5872
    41.8257  41.9528  42.0932  42.1824  42.3015  42.4532  42.5202  42.7887
    42.9386  43.0684  43.3900  43.5180  43.6195  43.6724  43.7866  43.9902
    44.0427  44.0623  44.1497  44.3990  44.5883  44.6975  44.9316  45.0650

     occupation numbers 
     1.0000   1.0000   1.0000   1.0000   1.0000   1.0000   1.0000   1.0000
     1.0000   1.0000   1.0000   1.0000   1.0000   1.0000   1.0000   1.0000
     1.0000   1.0000   1.0000   1.0000   1.0000   1.0000   1.0000   1.0000
     1.0000   1.0000   1.0000   1.0000   1.0000   1.0000   1.0000   1.0000
     1.0000   1.0000   1.0000   1.0000   1.0000   1.0000   1.0000   1.0000
     1.0000   1.0000   1.0000   1.0000   1.0000   1.0000   1.0000   1.0000
     1.0000   1.0000   1.0000   1.0000   1.0000   1.0000   1.0000   1.0000
     1.0000   1.0000   1.0000   1.0000   1.0000   1.0000   1.0000   1.0000
     1.0000   1.0000   1.0000   1.0000   1.0000   1.0000   0.0000   0.0000
     0.0000   0.0000   0.0000   0.0000   0.0000   0.0000   0.0000   0.0000
     0.0000   0.0000   0.0000   0.0000   0.0000   0.0000   0.0000   0.0000
     0.0000   0.0000   0.0000   0.0000   0.0000   0.0000   0.0000   0.0000
     0.0000   0.0000   0.0000   0.0000   0.0000   0.0000   0.0000   0.0000
     0.0000   0.0000   0.0000   0.0000   0.0000   0.0000   0.0000   0.0000
     0.0000   0.0000   0.0000   0.0000   0.0000   0.0000   0.0000   0.0000
     0.0000   0.0000   0.0000   0.0000   0.0000   0.0000   0.0000   0.0000
     0.0000   0.0000   0.0000   0.0000   0.0000   0.0000   0.0000   0.0000
     0.0000   0.0000   0.0000   0.0000   0.0000   0.0000   0.0000   0.0000
     0.0000   0.0000   0.0000   0.0000   0.0000   0.0000   0.0000   0.0000
     0.0000   0.0000   0.0000   0.0000   0.0000   0.0000   0.0000   0.0000
     0.0000   0.0000   0.0000   0.0000   0.0000   0.0000   0.0000   0.0000
     0.0000   0.0000   0.0000   0.0000   0.0000   0.0000   0.0000   0.0000
     0.0000   0.0000   0.0000   0.0000   0.0000   0.0000   0.0000   0.0000
     0.0000   0.0000   0.0000   0.0000   0.0000   0.0000   0.0000   0.0000
     0.0000   0.0000   0.0000   0.0000   0.0000   0.0000   0.0000   0.0000
     0.0000   0.0000   0.0000   0.0000   0.0000   0.0000   0.0000   0.0000
     0.0000   0.0000   0.0000   0.0000   0.0000   0.0000   0.0000   0.0000
     0.0000   0.0000   0.0000   0.0000   0.0000   0.0000   0.0000   0.0000
     0.0000   0.0000   0.0000   0.0000   0.0000   0.0000   0.0000   0.0000
     0.0000   0.0000   0.0000   0.0000   0.0000   0.0000   0.0000   0.0000
     0.0000   0.0000   0.0000   0.0000   0.0000   0.0000   0.0000   0.0000
     0.0000   0.0000   0.0000   0.0000   0.0000   0.0000   0.0000   0.0000

          k = 0.3333 0.1493 0.0580 (  5669 PWs)   bands (ev):

    -9.4685  -9.2988  -9.2146  -9.1664  -9.1412  -9.1303  -2.7507  -2.7381
    -2.7313  -2.7138  -2.7032  -2.7014  -2.6758  -2.6720  -2.6523  -2.6427
    -2.6323  -2.6256  -2.5965  -2.5843  -2.5752  -2.5626  -2.5374  -2.5314
    -2.5275  -2.5192  -2.5051  -2.4771  -2.4627  -2.4478  -2.4124  -2.4082
    -2.3990  -2.3732  -2.3663  -2.3627  -2.3325  -2.3127  -2.2346  -2.2262
    -2.2170  -2.1559  -2.1108  -2.0411  -1.9487  -1.8615   2.0595   2.1104
     2.3146   2.4776   2.5338   2.7893   3.2780   3.6967   4.3367   4.7548
     4.8521   5.1838   5.4442   5.4945   5.8777   6.0757   6.1946   6.3414
     6.5977   6.6200   6.7738   6.8512   7.0097   7.2492   9.7693  10.0164
    10.2210  10.4850  10.6755  10.9042  11.0134  11.2680  11.6056  11.8320
    12.3218  12.6800  13.1530  13.4173  13.8031  13.8428  14.1935  14.4981
    14.6624  14.9750  15.7036  15.8362  15.9975  16.1234  16.8914  17.1717
    17.5080  17.9738  18.2051  18.7151  19.2806  19.6837  19.8372  20.0365
    20.2748  20.3558  21.0197  21.2563  21.5289  21.6730  21.7668  21.9213
    22.4461  22.5189  22.6215  22.9819  23.3304  23.7795  23.9849  24.1684
    24.5276  24.6192  24.9120  25.2101  25.4644  25.5734  25.7690  25.9189
    25.9967  26.3004  26.5198  26.6814  26.8171  26.9397  27.0511  27.4418
    27.4863  27.7714  27.7956  28.0105  28.1071  28.5247  28.7089  28.9840
    29.0681  29.2141  29.3982  29.7724  29.8503  29.9068  30.0790  30.0973
    30.2087  30.3631  30.6177  30.7828  30.9081  30.9397  31.0858  31.3790
    31.4358  31.6631  31.8616  31.9395  32.0838  32.3558  32.5015  32.5875
    32.8770  32.9419  33.1126  33.4815  33.5827  33.7779  34.0194  34.1911
    34.2900  34.5257  34.6042  34.6710  34.7503  34.8157  35.1520  35.3221
    35.5155  35.6784  35.7095  35.9711  36.2275  36.3145  36.3714  36.4011
    36.6307  36.7859  36.9098  37.0954  37.1365  37.3833  37.4608  37.5985
    37.7551  37.9516  37.9983  38.1793  38.3160  38.4580  38.5102  38.5796
    38.6520  38.7564  38.9041  38.9427  39.2353  39.2927  39.3658  39.5391
    39.5836  39.7741  39.9224  40.1068  40.2994  40.4815  40.5759  40.7115
    40.7884  41.0001  41.0241  41.2139  41.4381  41.5147  41.5856  41.7507
    41.8617  41.9010  41.9702  42.2958  42.3461  42.5098  42.6384  42.6947
    42.8816  43.0310  43.1658  43.1981  43.3647  43.6071  43.7602  43.8255
    44.0692  44.2800  44.3069  44.5019  44.5853  44.6686  44.9350  45.0912

     occupation numbers 
     1.0000   1.0000   1.0000   1.0000   1.0000   1.0000   1.0000   1.0000
     1.0000   1.0000   1.0000   1.0000   1.0000   1.0000   1.0000   1.0000
     1.0000   1.0000   1.0000   1.0000   1.0000   1.0000   1.0000   1.0000
     1.0000   1.0000   1.0000   1.0000   1.0000   1.0000   1.0000   1.0000
     1.0000   1.0000   1.0000   1.0000   1.0000   1.0000   1.0000   1.0000
     1.0000   1.0000   1.0000   1.0000   1.0000   1.0000   1.0000   1.0000
     1.0000   1.0000   1.0000   1.0000   1.0000   1.0000   1.0000   1.0000
     1.0000   1.0000   1.0000   1.0000   1.0000   1.0000   1.0000   1.0000
     1.0000   1.0000   1.0000   1.0000   1.0000   1.0000   0.0000   0.0000
     0.0000   0.0000   0.0000   0.0000   0.0000   0.0000   0.0000   0.0000
     0.0000   0.0000   0.0000   0.0000   0.0000   0.0000   0.0000   0.0000
     0.0000   0.0000   0.0000   0.0000   0.0000   0.0000   0.0000   0.0000
     0.0000   0.0000   0.0000   0.0000   0.0000   0.0000   0.0000   0.0000
     0.0000   0.0000   0.0000   0.0000   0.0000   0.0000   0.0000   0.0000
     0.0000   0.0000   0.0000   0.0000   0.0000   0.0000   0.0000   0.0000
     0.0000   0.0000   0.0000   0.0000   0.0000   0.0000   0.0000   0.0000
     0.0000   0.0000   0.0000   0.0000   0.0000   0.0000   0.0000   0.0000
     0.0000   0.0000   0.0000   0.0000   0.0000   0.0000   0.0000   0.0000
     0.0000   0.0000   0.0000   0.0000   0.0000   0.0000   0.0000   0.0000
     0.0000   0.0000   0.0000   0.0000   0.0000   0.0000   0.0000   0.0000
     0.0000   0.0000   0.0000   0.0000   0.0000   0.0000   0.0000   0.0000
     0.0000   0.0000   0.0000   0.0000   0.0000   0.0000   0.0000   0.0000
     0.0000   0.0000   0.0000   0.0000   0.0000   0.0000   0.0000   0.0000
     0.0000   0.0000   0.0000   0.0000   0.0000   0.0000   0.0000   0.0000
     0.0000   0.0000   0.0000   0.0000   0.0000   0.0000   0.0000   0.0000
     0.0000   0.0000   0.0000   0.0000   0.0000   0.0000   0.0000   0.0000
     0.0000   0.0000   0.0000   0.0000   0.0000   0.0000   0.0000   0.0000
     0.0000   0.0000   0.0000   0.0000   0.0000   0.0000   0.0000   0.0000
     0.0000   0.0000   0.0000   0.0000   0.0000   0.0000   0.0000   0.0000
     0.0000   0.0000   0.0000   0.0000   0.0000   0.0000   0.0000   0.0000
     0.0000   0.0000   0.0000   0.0000   0.0000   0.0000   0.0000   0.0000
     0.0000   0.0000   0.0000   0.0000   0.0000   0.0000   0.0000   0.0000

          k = 0.3333 0.1493-0.1640 (  5673 PWs)   bands (ev):

    -9.4684  -9.2987  -9.2146  -9.1666  -9.1422  -9.1294  -2.7578  -2.7358
    -2.7300  -2.7145  -2.7064  -2.6913  -2.6738  -2.6727  -2.6648  -2.6401
    -2.6270  -2.6177  -2.5912  -2.5816  -2.5692  -2.5573  -2.5483  -2.5417
    -2.5323  -2.5239  -2.5067  -2.4753  -2.4690  -2.4436  -2.4141  -2.4090
    -2.4017  -2.3679  -2.3667  -2.3579  -2.3368  -2.3101  -2.2318  -2.2241
    -2.2190  -2.1549  -2.1105  -2.0420  -1.9495  -1.8607   2.0369   2.1102
     2.2457   2.5930   2.6714   2.7065   3.1052   3.7805   4.3450   4.7261
     4.9036   5.1984   5.4397   5.4859   5.8609   6.1340   6.2247   6.2686
     6.4357   6.5981   6.7379   6.9447   7.1212   7.2584   9.9282  10.0466
    10.2822  10.3597  10.5119  10.7614  11.0108  11.2549  11.6744  11.9776
    12.0922  12.8238  13.2072  13.4872  13.7085  13.8461  14.2746  14.4743
    14.8104  14.9242  15.6590  15.7467  15.9818  16.1270  16.8072  17.1237
    17.4156  18.0207  18.3104  19.0978  19.1406  19.5984  19.8773  20.1248
    20.2319  20.6158  20.7696  21.2543  21.3361  21.5044  21.8833  22.0454
    22.2261  22.4845  22.6012  22.8985  23.4530  23.5576  23.8432  24.3569
    24.5547  24.8343  25.1553  25.2414  25.3382  25.4986  25.7500  26.0052
    26.1072  26.2379  26.3780  26.4818  26.8232  27.0780  27.1800  27.3015
    27.4846  27.8214  28.1105  28.2955  28.4439  28.5421  28.7121  28.8137
    28.9691  29.1659  29.4557  29.5197  29.6851  29.7544  29.9056  30.1126
    30.2254  30.3724  30.4065  30.5660  30.9724  31.0864  31.2318  31.3087
    31.6490  31.6766  31.9172  32.1140  32.1680  32.4676  32.5362  32.7037
    32.7856  33.0275  33.1057  33.2767  33.3908  33.6038  33.7816  33.9307
    34.1850  34.3009  34.4007  34.6398  34.8357  34.9619  35.2194  35.2975
    35.4317  35.6385  35.7626  35.8425  36.1933  36.3649  36.5322  36.6388
    36.7675  36.9737  37.0665  37.1361  37.3111  37.4934  37.6392  37.7374
    37.7850  37.9689  38.0315  38.1682  38.2071  38.3912  38.5325  38.6049
    38.7127  38.8429  38.9659  39.0948  39.1568  39.4028  39.4793  39.5956
    39.6712  39.7530  39.8344  40.0039  40.0834  40.3101  40.3558  40.4927
    40.5574  40.6487  40.9323  41.1194  41.2698  41.3646  41.4649  41.7919
    41.8870  42.0478  42.1432  42.3481  42.4512  42.5516  42.8004  43.0220
    43.0459  43.1380  43.3766  43.4671  43.5699  43.6399  43.8327  44.0008
    44.0891  44.2071  44.3355  44.4525  44.4979  44.7562  44.8919  45.1580

     occupation numbers 
     1.0000   1.0000   1.0000   1.0000   1.0000   1.0000   1.0000   1.0000
     1.0000   1.0000   1.0000   1.0000   1.0000   1.0000   1.0000   1.0000
     1.0000   1.0000   1.0000   1.0000   1.0000   1.0000   1.0000   1.0000
     1.0000   1.0000   1.0000   1.0000   1.0000   1.0000   1.0000   1.0000
     1.0000   1.0000   1.0000   1.0000   1.0000   1.0000   1.0000   1.0000
     1.0000   1.0000   1.0000   1.0000   1.0000   1.0000   1.0000   1.0000
     1.0000   1.0000   1.0000   1.0000   1.0000   1.0000   1.0000   1.0000
     1.0000   1.0000   1.0000   1.0000   1.0000   1.0000   1.0000   1.0000
     1.0000   1.0000   1.0000   1.0000   1.0000   1.0000   0.0000   0.0000
     0.0000   0.0000   0.0000   0.0000   0.0000   0.0000   0.0000   0.0000
     0.0000   0.0000   0.0000   0.0000   0.0000   0.0000   0.0000   0.0000
     0.0000   0.0000   0.0000   0.0000   0.0000   0.0000   0.0000   0.0000
     0.0000   0.0000   0.0000   0.0000   0.0000   0.0000   0.0000   0.0000
     0.0000   0.0000   0.0000   0.0000   0.0000   0.0000   0.0000   0.0000
     0.0000   0.0000   0.0000   0.0000   0.0000   0.0000   0.0000   0.0000
     0.0000   0.0000   0.0000   0.0000   0.0000   0.0000   0.0000   0.0000
     0.0000   0.0000   0.0000   0.0000   0.0000   0.0000   0.0000   0.0000
     0.0000   0.0000   0.0000   0.0000   0.0000   0.0000   0.0000   0.0000
     0.0000   0.0000   0.0000   0.0000   0.0000   0.0000   0.0000   0.0000
     0.0000   0.0000   0.0000   0.0000   0.0000   0.0000   0.0000   0.0000
     0.0000   0.0000   0.0000   0.0000   0.0000   0.0000   0.0000   0.0000
     0.0000   0.0000   0.0000   0.0000   0.0000   0.0000   0.0000   0.0000
     0.0000   0.0000   0.0000   0.0000   0.0000   0.0000   0.0000   0.0000
     0.0000   0.0000   0.0000   0.0000   0.0000   0.0000   0.0000   0.0000
     0.0000   0.0000   0.0000   0.0000   0.0000   0.0000   0.0000   0.0000
     0.0000   0.0000   0.0000   0.0000   0.0000   0.0000   0.0000   0.0000
     0.0000   0.0000   0.0000   0.0000   0.0000   0.0000   0.0000   0.0000
     0.0000   0.0000   0.0000   0.0000   0.0000   0.0000   0.0000   0.0000
     0.0000   0.0000   0.0000   0.0000   0.0000   0.0000   0.0000   0.0000
     0.0000   0.0000   0.0000   0.0000   0.0000   0.0000   0.0000   0.0000
     0.0000   0.0000   0.0000   0.0000   0.0000   0.0000   0.0000   0.0000
     0.0000   0.0000   0.0000   0.0000   0.0000   0.0000   0.0000   0.0000

     highest occupied, lowest unoccupied level (ev):     7.3217    8.6013

!    total energy              =   -1409.04713922 Ry
     estimated scf accuracy    <       0.00000088 Ry

     The total energy is the sum of the following terms:
     one-electron contribution =    -407.22182453 Ry
     hartree contribution      =     315.42683832 Ry
     xc contribution           =    -541.04357753 Ry
     ewald contribution        =    -718.97362019 Ry
     one-center paw contrib.   =     -57.23495529 Ry
      -> PAW hartree energy AE =       0.00000000 Ry
      -> PAW hartree energy PS =       0.00000000 Ry
      -> PAW xc energy AE      =       0.00000000 Ry
      -> PAW xc energy PS      =       0.00000000 Ry
      -> total E_H with PAW    =     315.42683832 Ry
      -> total E_XC with PAW   =    -541.04357753 Ry

     convergence has been achieved in  11 iterations

     Writing all to output data dir bands_nm/myprefix.save/
 
     init_run     :      6.16s CPU      1.66s WALL (       1 calls)
     electrons    :    229.58s CPU     59.53s WALL (       1 calls)

     Called by init_run:
     wfcinit      :      4.22s CPU      1.08s WALL (       1 calls)
     wfcinit:atom :      0.01s CPU      0.00s WALL (       5 calls)
     wfcinit:wfcr :      4.05s CPU      1.04s WALL (       5 calls)
     potinit      :      0.44s CPU      0.12s WALL (       1 calls)
     hinit0       :      1.31s CPU      0.39s WALL (       1 calls)

     Called by electrons:
     c_bands      :    211.88s CPU     54.83s WALL (      11 calls)
     sum_band     :     14.82s CPU      3.90s WALL (      11 calls)
     v_of_rho     :      0.69s CPU      0.18s WALL (      12 calls)
     v_h          :      0.05s CPU      0.01s WALL (      12 calls)
     v_xc         :      0.64s CPU      0.17s WALL (      12 calls)
     newd         :      1.01s CPU      0.28s WALL (      12 calls)
     PAW_pot      :      0.85s CPU      0.23s WALL (      12 calls)
     mix_rho      :      0.18s CPU      0.05s WALL (      11 calls)

     Called by c_bands:
     init_us_2    :      0.26s CPU      0.07s WALL (     115 calls)
     init_us_2:cp :      0.26s CPU      0.07s WALL (     115 calls)
     cegterg      :    204.79s CPU     52.68s WALL (      55 calls)

     Called by sum_band:
     sum_band:wei :      0.00s CPU      0.00s WALL (      11 calls)
     sum_band:loo :     13.59s CPU      3.49s WALL (      11 calls)
     sum_band:buf :      0.27s CPU      0.06s WALL (      55 calls)
     sum_band:ini :      0.12s CPU      0.03s WALL (      55 calls)
     sum_band:cal :      3.10s CPU      0.78s WALL (      55 calls)
     sum_band:bec :      0.08s CPU      0.03s WALL (      55 calls)
     addusdens    :      0.90s CPU      0.32s WALL (      11 calls)
     addusd:skk   :      0.00s CPU      0.00s WALL (      22 calls)
     addusd:dgemm :      0.24s CPU      0.15s WALL (      22 calls)
     addusd:qvan2 :      0.53s CPU      0.13s WALL (      22 calls)

     Called by *egterg:
     cdiaghg      :     71.03s CPU     18.63s WALL (     317 calls)
     cegterg:over :     22.05s CPU      5.55s WALL (     262 calls)
     cegterg:upda :     11.97s CPU      3.06s WALL (     262 calls)
     cegterg:last :     30.71s CPU      7.77s WALL (     116 calls)
     cdiaghg:chol :      4.29s CPU      1.13s WALL (     317 calls)
     cdiaghg:inve :      1.46s CPU      0.38s WALL (     317 calls)
     cdiaghg:para :     15.70s CPU      4.22s WALL (     634 calls)
     h_psi        :     58.15s CPU     14.95s WALL (     322 calls)
     s_psi        :      6.87s CPU      1.74s WALL (     322 calls)
     g_psi        :      0.06s CPU      0.03s WALL (     262 calls)

     Called by h_psi:
     h_psi:calbec :      7.71s CPU      1.94s WALL (     322 calls)
     vloc_psi     :     43.34s CPU     11.16s WALL (     322 calls)
     add_vuspsi   :      6.89s CPU      1.78s WALL (     322 calls)

     General routines
     calbec       :     10.80s CPU      2.72s WALL (     377 calls)
     fft          :      0.61s CPU      0.16s WALL (     154 calls)
     ffts         :      0.03s CPU      0.01s WALL (      23 calls)
     fftw         :     50.13s CPU     12.12s WALL (   82928 calls)
     interpolate  :      0.06s CPU      0.02s WALL (      12 calls)
 
     Parallel routines

     PAW routines
     PAW_pot      :      0.85s CPU      0.23s WALL (      12 calls)
     PAW_symme    :      0.01s CPU      0.00s WALL (      23 calls)
 
     PWSCF        :   3m57.57s CPU   1m 2.00s WALL

 
   This run was terminated on:  20:53:33  16Jul2023            

=------------------------------------------------------------------------------=
   JOB DONE.
=------------------------------------------------------------------------------=
