
     Program PWSCF v.7.1 starts on 14Jul2023 at  2:19:36 

     This program is part of the open-source Quantum ESPRESSO suite
     for quantum simulation of materials; please cite
         "P. Giannozzi et al., J. Phys.:Condens. Matter 21 395502 (2009);
         "P. Giannozzi et al., J. Phys.:Condens. Matter 29 465901 (2017);
         "P. Giannozzi et al., J. Chem. Phys. 152 154105 (2020);
          URL http://www.quantum-espresso.org", 
     in publications or presentations arising from this work. More details at
     http://www.quantum-espresso.org/quote

     Parallel version (MPI & OpenMP), running on      32 processor cores
     Number of MPI processes:                 8
     Threads/MPI process:                     4

     MPI processes distributed on     1 nodes
     242329 MiB available memory on the printing compute node when the environment starts
 
     Reading input from espresso_7349.pwi
Warning: card &CELL ignored
Warning: card / ignored

     Current dimensions of program PWSCF are:
     Max number of different atomic species (ntypx) = 10
     Max number of k-points (npk) =  40000
     Max angular momentum in pseudopotentials (lmaxx) =  4
     Message from routine setup:
     using ibrav=0 with symmetry is DISCOURAGED, use correct ibrav instead
 
     K-points division:     npool     =       2
     R & G space division:  proc/nbgrp/npool/nimage =       4
     Subspace diagonalization in iterative solution of the eigenvalue problem:
     a serial algorithm will be used

 
     Parallelization info
     --------------------
     sticks:   dense  smooth     PW     G-vecs:    dense   smooth      PW
     Min         302     149     44                14268     5034     780
     Max         303     151     45                14272     5037     783
     Sum        1209     601    177                57079    20145    3123
 
     Using Slab Decomposition
 


     bravais-lattice index     =            0
     lattice parameter (alat)  =       7.9858  a.u.
     unit-cell volume          =     907.8812 (a.u.)^3
     number of atoms/cell      =            6
     number of atomic types    =            3
     number of electrons       =        36.00
     number of Kohn-Sham states=           64
     kinetic-energy cutoff     =      30.0000  Ry
     charge density cutoff     =     240.0000  Ry
     scf convergence threshold =      1.0E-06
     mixing beta               =       0.7000
     number of iterations used =            8  plain     mixing
     Exchange-correlation=  SLA  PW   PBX  PBC
                           (   1   4   3   4   0   0   0)

     celldm(1)=   7.985786  celldm(2)=   0.000000  celldm(3)=   0.000000
     celldm(4)=   0.000000  celldm(5)=   0.000000  celldm(6)=   0.000000

     crystal axes: (cart. coord. in units of alat)
               a(1) = (   1.000000   0.000000   0.000000 )  
               a(2) = (   0.000000   1.000000   0.000000 )  
               a(3) = (   0.000000   0.000000   1.782691 )  

     reciprocal axes: (cart. coord. in units 2 pi/alat)
               b(1) = (  1.000000  0.000000  0.000000 )  
               b(2) = (  0.000000  1.000000  0.000000 )  
               b(3) = (  0.000000  0.000000  0.560950 )  


     PseudoPot. # 1 for Sr read from file:
     /lustre07/scratch/pragov/crystal_structure_design/utils/SSSP/Sr_pbe_v1.uspp.F.UPF
     MD5 check sum: 6b418c05fbe9db5448babca5e47b7a5b
     Pseudo is Ultrasoft + core correction, Zval = 10.0
     Generated by new atomic code, or converted to UPF format
     Using radial grid of  883 points,  6 beta functions with: 
                l(1) =   0
                l(2) =   0
                l(3) =   1
                l(4) =   1
                l(5) =   2
                l(6) =   2
     Q(r) pseudized with  6 coefficients,  rinner =    1.400   1.400   1.400
                                                       1.400   1.400

     PseudoPot. # 2 for H  read from file:
     /lustre07/scratch/pragov/crystal_structure_design/utils/SSSP/H.pbe-rrkjus_psl.1.0.0.UPF
     MD5 check sum: f52b6d4d1c606e5624b1dc7b2218f220
     Pseudo is Ultrasoft, Zval =  1.0
     Generated using "atomic" code by A. Dal Corso  v.5.1
     Using radial grid of  929 points,  2 beta functions with: 
                l(1) =   0
                l(2) =   0
     Q(r) pseudized with 0 coefficients 


     PseudoPot. # 3 for Br read from file:
     /lustre07/scratch/pragov/crystal_structure_design/utils/SSSP/br_pbe_v1.4.uspp.F.UPF
     MD5 check sum: d3ffb7b29f6225aa16fe06858fb2a80b
     Pseudo is Ultrasoft + core correction, Zval =  7.0
     Generated by new atomic code, or converted to UPF format
     Using radial grid of  879 points,  6 beta functions with: 
                l(1) =   0
                l(2) =   0
                l(3) =   1
                l(4) =   1
                l(5) =   2
                l(6) =   2
     Q(r) pseudized with  8 coefficients,  rinner =    1.100   1.100   1.100
                                                       1.100   1.100

     atomic species   valence    mass     pseudopotential
        Sr            10.00    87.62000     Sr( 1.00)
        H              1.00     1.00800     H ( 1.00)
        Br             7.00    79.90400     Br( 1.00)

     16 Sym. Ops., with inversion, found ( 8 have fractional translation)


                                    s                        frac. trans.

      isym =  1     identity                                     

 cryst.   s( 1) = (     1          0          0      )
                  (     0          1          0      )
                  (     0          0          1      )

 cart.    s( 1) = (  1.0000000  0.0000000  0.0000000 )
                  (  0.0000000  1.0000000  0.0000000 )
                  (  0.0000000  0.0000000  1.0000000 )


      isym =  2     180 deg rotation - cart. axis [0,0,1]        

 cryst.   s( 2) = (    -1          0          0      )
                  (     0         -1          0      )
                  (     0          0          1      )

 cart.    s( 2) = ( -1.0000000  0.0000000  0.0000000 )
                  (  0.0000000 -1.0000000  0.0000000 )
                  (  0.0000000  0.0000000  1.0000000 )


      isym =  3     180 deg rotation - cart. axis [0,1,0]        

 cryst.   s( 3) = (    -1          0          0      )    f =(  0.5000000 )
                  (     0          1          0      )       ( -0.5000000 )
                  (     0          0         -1      )       ( -0.0000000 )

 cart.    s( 3) = ( -1.0000000  0.0000000  0.0000000 )    f =(  0.5000000 )
                  (  0.0000000  1.0000000  0.0000000 )       ( -0.5000000 )
                  (  0.0000000  0.0000000 -1.0000000 )       ( -0.0000000 )


      isym =  4     180 deg rotation - cart. axis [1,0,0]        

 cryst.   s( 4) = (     1          0          0      )    f =(  0.5000000 )
                  (     0         -1          0      )       (  0.5000000 )
                  (     0          0         -1      )       ( -0.0000000 )

 cart.    s( 4) = (  1.0000000  0.0000000  0.0000000 )    f =(  0.5000000 )
                  (  0.0000000 -1.0000000  0.0000000 )       (  0.5000000 )
                  (  0.0000000  0.0000000 -1.0000000 )       ( -0.0000000 )


      isym =  5     180 deg rotation - cart. axis [1,1,0]        

 cryst.   s( 5) = (     0          1          0      )
                  (     1          0          0      )
                  (     0          0         -1      )

 cart.    s( 5) = (  0.0000000  1.0000000  0.0000000 )
                  (  1.0000000  0.0000000  0.0000000 )
                  (  0.0000000  0.0000000 -1.0000000 )


      isym =  6     180 deg rotation - cart. axis [1,-1,0]       

 cryst.   s( 6) = (     0         -1          0      )
                  (    -1          0          0      )
                  (     0          0         -1      )

 cart.    s( 6) = (  0.0000000 -1.0000000  0.0000000 )
                  ( -1.0000000  0.0000000  0.0000000 )
                  (  0.0000000  0.0000000 -1.0000000 )


      isym =  7      90 deg rotation - cart. axis [0,0,-1]       

 cryst.   s( 7) = (     0         -1          0      )    f =(  0.5000000 )
                  (     1          0          0      )       (  0.5000000 )
                  (     0          0          1      )       (  0.0000000 )

 cart.    s( 7) = (  0.0000000  1.0000000  0.0000000 )    f =(  0.5000000 )
                  ( -1.0000000  0.0000000  0.0000000 )       (  0.5000000 )
                  (  0.0000000  0.0000000  1.0000000 )       (  0.0000000 )


      isym =  8      90 deg rotation - cart. axis [0,0,1]        

 cryst.   s( 8) = (     0          1          0      )    f =(  0.5000000 )
                  (    -1          0          0      )       ( -0.5000000 )
                  (     0          0          1      )       (  0.0000000 )

 cart.    s( 8) = (  0.0000000 -1.0000000  0.0000000 )    f =(  0.5000000 )
                  (  1.0000000  0.0000000  0.0000000 )       ( -0.5000000 )
                  (  0.0000000  0.0000000  1.0000000 )       (  0.0000000 )


      isym =  9     inversion                                    

 cryst.   s( 9) = (    -1          0          0      )    f =(  0.5000000 )
                  (     0         -1          0      )       (  0.5000000 )
                  (     0          0         -1      )       ( -0.0000000 )

 cart.    s( 9) = ( -1.0000000  0.0000000  0.0000000 )    f =(  0.5000000 )
                  (  0.0000000 -1.0000000  0.0000000 )       (  0.5000000 )
                  (  0.0000000  0.0000000 -1.0000000 )       ( -0.0000000 )


      isym = 10     inv. 180 deg rotation - cart. axis [0,0,1]   

 cryst.   s(10) = (     1          0          0      )    f =(  0.5000000 )
                  (     0          1          0      )       ( -0.5000000 )
                  (     0          0         -1      )       ( -0.0000000 )

 cart.    s(10) = (  1.0000000  0.0000000  0.0000000 )    f =(  0.5000000 )
                  (  0.0000000  1.0000000  0.0000000 )       ( -0.5000000 )
                  (  0.0000000  0.0000000 -1.0000000 )       ( -0.0000000 )


      isym = 11     inv. 180 deg rotation - cart. axis [0,1,0]   

 cryst.   s(11) = (     1          0          0      )
                  (     0         -1          0      )
                  (     0          0          1      )

 cart.    s(11) = (  1.0000000  0.0000000  0.0000000 )
                  (  0.0000000 -1.0000000  0.0000000 )
                  (  0.0000000  0.0000000  1.0000000 )


      isym = 12     inv. 180 deg rotation - cart. axis [1,0,0]   

 cryst.   s(12) = (    -1          0          0      )
                  (     0          1          0      )
                  (     0          0          1      )

 cart.    s(12) = ( -1.0000000  0.0000000  0.0000000 )
                  (  0.0000000  1.0000000  0.0000000 )
                  (  0.0000000  0.0000000  1.0000000 )


      isym = 13     inv. 180 deg rotation - cart. axis [1,1,0]   

 cryst.   s(13) = (     0         -1          0      )    f =(  0.5000000 )
                  (    -1          0          0      )       (  0.5000000 )
                  (     0          0          1      )       (  0.0000000 )

 cart.    s(13) = (  0.0000000 -1.0000000  0.0000000 )    f =(  0.5000000 )
                  ( -1.0000000  0.0000000  0.0000000 )       (  0.5000000 )
                  (  0.0000000  0.0000000  1.0000000 )       (  0.0000000 )


      isym = 14     inv. 180 deg rotation - cart. axis [1,-1,0]  

 cryst.   s(14) = (     0          1          0      )    f =(  0.5000000 )
                  (     1          0          0      )       ( -0.5000000 )
                  (     0          0          1      )       (  0.0000000 )

 cart.    s(14) = (  0.0000000  1.0000000  0.0000000 )    f =(  0.5000000 )
                  (  1.0000000  0.0000000  0.0000000 )       ( -0.5000000 )
                  (  0.0000000  0.0000000  1.0000000 )       (  0.0000000 )


      isym = 15     inv.  90 deg rotation - cart. axis [0,0,-1]  

 cryst.   s(15) = (     0          1          0      )
                  (    -1          0          0      )
                  (     0          0         -1      )

 cart.    s(15) = (  0.0000000 -1.0000000  0.0000000 )
                  (  1.0000000  0.0000000  0.0000000 )
                  (  0.0000000  0.0000000 -1.0000000 )


      isym = 16     inv.  90 deg rotation - cart. axis [0,0,1]   

 cryst.   s(16) = (     0         -1          0      )
                  (     1          0          0      )
                  (     0          0         -1      )

 cart.    s(16) = (  0.0000000  1.0000000  0.0000000 )
                  ( -1.0000000  0.0000000  0.0000000 )
                  (  0.0000000  0.0000000 -1.0000000 )


   Cartesian axes

     site n.     atom                  positions (alat units)
         1           Sr  tau(   1) = (   0.5000000   0.0000000   1.4586297  )
         2           Sr  tau(   2) = (   0.0000000   0.5000000   0.3240611  )
         3           H   tau(   3) = (   0.5000000   0.5000000   0.0000000  )
         4           H   tau(   4) = (   0.0000000   0.0000000   0.0000000  )
         5           Br  tau(   5) = (   0.0000000   0.5000000   1.1738573  )
         6           Br  tau(   6) = (   0.5000000   0.0000000   0.6088335  )

   Crystallographic axes

     site n.     atom                  positions (cryst. coord.)
         1           Sr  tau(   1) = (  0.5000000  0.0000000  0.8182180  )
         2           Sr  tau(   2) = (  0.0000000  0.5000000  0.1817820  )
         3           H   tau(   3) = (  0.5000000  0.5000000  0.0000000  )
         4           H   tau(   4) = (  0.0000000  0.0000000  0.0000000  )
         5           Br  tau(   5) = (  0.0000000  0.5000000  0.6584750  )
         6           Br  tau(   6) = (  0.5000000  0.0000000  0.3415250  )

     number of k points=     6
                       cart. coord. in units 2pi/alat
        k(    1) = (   0.0000000   0.0000000   0.0000000), wk =   0.0740741
        k(    2) = (   0.0000000   0.0000000   0.1869833), wk =   0.1481481
        k(    3) = (   0.0000000   0.3333333   0.0000000), wk =   0.2962963
        k(    4) = (   0.0000000   0.3333333   0.1869833), wk =   0.5925926
        k(    5) = (   0.3333333   0.3333333   0.0000000), wk =   0.2962963
        k(    6) = (   0.3333333   0.3333333   0.1869833), wk =   0.5925926

                       cryst. coord.
        k(    1) = (   0.0000000   0.0000000   0.0000000), wk =   0.0740741
        k(    2) = (   0.0000000   0.0000000   0.3333333), wk =   0.1481481
        k(    3) = (   0.0000000   0.3333333   0.0000000), wk =   0.2962963
        k(    4) = (   0.0000000   0.3333333   0.3333333), wk =   0.5925926
        k(    5) = (   0.3333333   0.3333333   0.0000000), wk =   0.2962963
        k(    6) = (   0.3333333   0.3333333   0.3333333), wk =   0.5925926

     Dense  grid:    57079 G-vectors     FFT dimensions: (  40,  40,  72)

     Smooth grid:    20145 G-vectors     FFT dimensions: (  30,  30,  50)

     Dynamical RAM for                 wfc:       0.61 MB

     Dynamical RAM for     wfc (w. buffer):       2.46 MB

     Dynamical RAM for           str. fact:       0.65 MB

     Dynamical RAM for           local pot:       0.00 MB

     Dynamical RAM for          nlocal pot:       0.73 MB

     Dynamical RAM for                qrad:       3.73 MB

     Dynamical RAM for          rho,v,vnew:       1.31 MB

     Dynamical RAM for               rhoin:       0.44 MB

     Dynamical RAM for            rho*nmix:       3.48 MB

     Dynamical RAM for           G-vectors:       0.85 MB

     Dynamical RAM for          h,s,v(r/c):       0.75 MB

     Dynamical RAM for          <psi|beta>:       0.07 MB

     Dynamical RAM for                 psi:       1.23 MB

     Dynamical RAM for                hpsi:       1.23 MB

     Dynamical RAM for                spsi:       1.23 MB

     Dynamical RAM for      wfcinit/wfcrot:       1.32 MB

     Dynamical RAM for           addusdens:      20.57 MB

     Estimated static dynamical RAM per process >      12.15 MB

     Estimated max dynamical RAM per process >      36.20 MB

     Estimated total dynamical RAM >     275.69 MB

     Check: negative core charge=   -0.000003

     Initial potential from superposition of free atoms

     starting charge      35.9326, renormalised to      36.0000

     negative rho (up, down):  1.231E-01 0.000E+00
     Starting wfcs are   36 randomized atomic wfcs +   28 random wfcs

     total cpu time spent up to now is        0.7 secs

     Self-consistent Calculation

     iteration #  1     ecut=    30.00 Ry     beta= 0.70
     Davidson diagonalization with overlap

---- Real-time Memory Report at c_bands before calling an iterative solver
           207 MiB given to the printing process from OS
             0 MiB allocation reported by mallinfo(arena+hblkhd)
        242114 MiB available memory on the node where the printing process lives
------------------
     ethr =  1.00E-02,  avg # of iterations =  7.3

     negative rho (up, down):  1.256E-01 0.000E+00

     total cpu time spent up to now is        1.7 secs

     total energy              =    -236.82970398 Ry
     estimated scf accuracy    <       0.37134461 Ry

     iteration #  2     ecut=    30.00 Ry     beta= 0.70
     Davidson diagonalization with overlap

---- Real-time Memory Report at c_bands before calling an iterative solver
           221 MiB given to the printing process from OS
             0 MiB allocation reported by mallinfo(arena+hblkhd)
        241919 MiB available memory on the node where the printing process lives
------------------
     ethr =  1.03E-03,  avg # of iterations =  2.0

     negative rho (up, down):  1.277E-01 0.000E+00

     total cpu time spent up to now is        2.0 secs

     total energy              =    -236.89842486 Ry
     estimated scf accuracy    <       0.08838110 Ry

     iteration #  3     ecut=    30.00 Ry     beta= 0.70
     Davidson diagonalization with overlap

---- Real-time Memory Report at c_bands before calling an iterative solver
           225 MiB given to the printing process from OS
             0 MiB allocation reported by mallinfo(arena+hblkhd)
        241881 MiB available memory on the node where the printing process lives
------------------
     ethr =  2.46E-04,  avg # of iterations =  2.0

     negative rho (up, down):  1.287E-01 0.000E+00

     total cpu time spent up to now is        2.2 secs

     total energy              =    -236.92380762 Ry
     estimated scf accuracy    <       0.01802924 Ry

     iteration #  4     ecut=    30.00 Ry     beta= 0.70
     Davidson diagonalization with overlap

---- Real-time Memory Report at c_bands before calling an iterative solver
           225 MiB given to the printing process from OS
             0 MiB allocation reported by mallinfo(arena+hblkhd)
        241919 MiB available memory on the node where the printing process lives
------------------
     ethr =  5.01E-05,  avg # of iterations =  3.7

     negative rho (up, down):  1.291E-01 0.000E+00

     total cpu time spent up to now is        2.4 secs

     total energy              =    -236.92789074 Ry
     estimated scf accuracy    <       0.00042661 Ry

     iteration #  5     ecut=    30.00 Ry     beta= 0.70
     Davidson diagonalization with overlap

---- Real-time Memory Report at c_bands before calling an iterative solver
           225 MiB given to the printing process from OS
             0 MiB allocation reported by mallinfo(arena+hblkhd)
        241880 MiB available memory on the node where the printing process lives
------------------
     ethr =  1.19E-06,  avg # of iterations =  6.5

     negative rho (up, down):  1.292E-01 0.000E+00

     total cpu time spent up to now is        2.7 secs

     total energy              =    -236.92797658 Ry
     estimated scf accuracy    <       0.00002675 Ry

     iteration #  6     ecut=    30.00 Ry     beta= 0.70
     Davidson diagonalization with overlap

---- Real-time Memory Report at c_bands before calling an iterative solver
           225 MiB given to the printing process from OS
             0 MiB allocation reported by mallinfo(arena+hblkhd)
        241881 MiB available memory on the node where the printing process lives
------------------
     ethr =  7.43E-08,  avg # of iterations =  2.0

     negative rho (up, down):  1.292E-01 0.000E+00

     total cpu time spent up to now is        2.9 secs

     End of self-consistent calculation

          k = 0.0000 0.0000 0.0000 (  2497 PWs)   bands (ev):

   -28.8403 -28.8197 -11.0324 -10.8356 -10.8246 -10.8246 -10.7528 -10.7528
    -9.1236  -8.7955   1.4066   2.8935   2.8935   3.0902   3.5456   3.5559
     3.5559   4.2092   8.8241   9.3758  10.0009  10.0009  10.3706  10.4074
    10.4819  10.9672  11.6798  11.7111  12.4219  12.4219  15.5498  15.5616
    15.5616  16.7618  16.7618  16.9023  16.9023  16.9817  17.0987  17.7063
    17.9150  18.1789  18.8826  19.9469  19.9469  20.7962  21.0640  22.7726
    23.0053  23.1518  24.3583  25.4812  25.4812  26.2564  26.2564  26.5099
    26.5099  26.6793  26.7044  26.7044  28.0536  29.0862  29.6415  29.6416

     occupation numbers 
     1.0000   1.0000   1.0000   1.0000   1.0000   1.0000   1.0000   1.0000
     1.0000   1.0000   1.0000   1.0000   1.0000   1.0000   1.0000   1.0000
     1.0000   1.0000   0.0000   0.0000   0.0000   0.0000   0.0000   0.0000
     0.0000   0.0000   0.0000   0.0000   0.0000   0.0000   0.0000   0.0000
     0.0000   0.0000   0.0000   0.0000   0.0000   0.0000   0.0000   0.0000
     0.0000   0.0000   0.0000   0.0000   0.0000   0.0000   0.0000   0.0000
     0.0000   0.0000   0.0000   0.0000   0.0000   0.0000   0.0000   0.0000
     0.0000   0.0000   0.0000   0.0000   0.0000   0.0000   0.0000   0.0000

          k = 0.0000 0.0000 0.1870 (  2489 PWs)   bands (ev):

   -28.8401 -28.8199 -11.0002 -10.8842 -10.8233 -10.8233 -10.7541 -10.7541
    -9.0725  -8.8212   1.5101   2.2582   2.8785   2.8785   3.5722   3.5722
     4.2183   4.4448   8.5555   8.9237  10.0456  10.0456  10.4277  11.0370
    11.1645  11.2763  11.6066  11.6598  12.5968  12.5968  14.2689  14.9440
    14.9440  15.5021  15.5021  15.5492  16.6953  17.1713  17.9325  18.1303
    19.2922  19.2922  20.0123  20.9378  20.9378  21.9073  22.3838  22.8209
    22.8209  23.0298  23.6126  24.1636  24.1636  24.3635  24.9684  26.3879
    27.3901  27.3901  27.4929  27.7205  28.3898  28.6846  28.6847  28.9116

     occupation numbers 
     1.0000   1.0000   1.0000   1.0000   1.0000   1.0000   1.0000   1.0000
     1.0000   1.0000   1.0000   1.0000   1.0000   1.0000   1.0000   1.0000
     1.0000   1.0000   0.0000   0.0000   0.0000   0.0000   0.0000   0.0000
     0.0000   0.0000   0.0000   0.0000   0.0000   0.0000   0.0000   0.0000
     0.0000   0.0000   0.0000   0.0000   0.0000   0.0000   0.0000   0.0000
     0.0000   0.0000   0.0000   0.0000   0.0000   0.0000   0.0000   0.0000
     0.0000   0.0000   0.0000   0.0000   0.0000   0.0000   0.0000   0.0000
     0.0000   0.0000   0.0000   0.0000   0.0000   0.0000   0.0000   0.0000

          k = 0.0000 0.3333 0.0000 (  2520 PWs)   bands (ev):

   -28.8302 -28.8199 -11.0427 -11.0004 -10.9267 -10.8044 -10.7931 -10.7571
    -8.8713  -8.7217   1.8627   1.9622   2.1414   2.9604   3.2213   3.2637
     4.3142   4.3821   9.1606   9.4723   9.6075   9.6788  10.6470  10.8955
    11.2189  11.6622  12.0945  12.7951  13.6592  13.7648  14.0125  14.8593
    14.9324  15.0977  16.1433  16.6498  17.2398  17.2540  17.2619  18.1562
    18.6137  19.1475  19.1553  19.2004  21.3898  21.9038  22.1662  22.3923
    22.6716  22.8234  23.1728  24.6202  24.9619  25.3099  25.3583  25.9285
    26.3890  26.6113  26.6539  26.7120  27.6458  28.2384  28.4291  28.8250

     occupation numbers 
     1.0000   1.0000   1.0000   1.0000   1.0000   1.0000   1.0000   1.0000
     1.0000   1.0000   1.0000   1.0000   1.0000   1.0000   1.0000   1.0000
     1.0000   1.0000   0.0000   0.0000   0.0000   0.0000   0.0000   0.0000
     0.0000   0.0000   0.0000   0.0000   0.0000   0.0000   0.0000   0.0000
     0.0000   0.0000   0.0000   0.0000   0.0000   0.0000   0.0000   0.0000
     0.0000   0.0000   0.0000   0.0000   0.0000   0.0000   0.0000   0.0000
     0.0000   0.0000   0.0000   0.0000   0.0000   0.0000   0.0000   0.0000
     0.0000   0.0000   0.0000   0.0000   0.0000   0.0000   0.0000   0.0000

          k = 0.0000 0.3333 0.1870 (  2501 PWs)   bands (ev):

   -28.8301 -28.8200 -11.0729 -11.0180 -10.8856 -10.8003 -10.7925 -10.7577
    -8.8604  -8.7219   1.4221   1.9732   2.6498   2.9431   3.2654   3.2752
     4.0743   4.3634   9.5155   9.7504   9.8894  10.0405  10.4732  11.0407
    11.3956  11.3982  11.9192  12.5447  13.0033  13.4326  14.3503  14.3520
    14.5375  14.7044  16.1229  16.3721  16.8431  17.1893  17.4901  18.2518
    18.9792  19.3768  20.0539  21.1745  21.2348  21.3653  21.4896  22.5018
    23.1907  23.7726  24.0467  24.4301  24.4718  24.7160  25.1475  25.5879
    26.1076  26.2583  26.9322  27.0165  27.3606  27.7514  28.4013  28.9291

     occupation numbers 
     1.0000   1.0000   1.0000   1.0000   1.0000   1.0000   1.0000   1.0000
     1.0000   1.0000   1.0000   1.0000   1.0000   1.0000   1.0000   1.0000
     1.0000   1.0000   0.0000   0.0000   0.0000   0.0000   0.0000   0.0000
     0.0000   0.0000   0.0000   0.0000   0.0000   0.0000   0.0000   0.0000
     0.0000   0.0000   0.0000   0.0000   0.0000   0.0000   0.0000   0.0000
     0.0000   0.0000   0.0000   0.0000   0.0000   0.0000   0.0000   0.0000
     0.0000   0.0000   0.0000   0.0000   0.0000   0.0000   0.0000   0.0000
     0.0000   0.0000   0.0000   0.0000   0.0000   0.0000   0.0000   0.0000

          k = 0.3333 0.3333 0.0000 (  2536 PWs)   bands (ev):

   -28.8229 -28.8178 -10.9938 -10.9509 -10.9243 -10.8812 -10.8280 -10.8107
    -8.8688  -8.7877   1.9098   2.0577   2.5358   2.5371   3.0254   3.1609
     3.9522   3.9734   9.0711   9.1831  10.8434  11.2995  11.3332  11.5987
    11.6443  12.0291  12.2068  12.4646  13.1221  13.4318  13.9762  14.3372
    14.7769  15.2811  15.8708  15.8930  16.0879  17.3477  17.5771  18.4045
    19.0572  19.1633  20.6132  21.5069  21.5282  21.8919  22.0320  22.1131
    22.5106  23.2313  23.5939  23.9012  24.0522  24.3686  24.4983  24.6902
    24.8631  26.0460  26.9161  27.2764  27.9020  28.0855  28.1972  28.7277

     occupation numbers 
     1.0000   1.0000   1.0000   1.0000   1.0000   1.0000   1.0000   1.0000
     1.0000   1.0000   1.0000   1.0000   1.0000   1.0000   1.0000   1.0000
     1.0000   1.0000   0.0000   0.0000   0.0000   0.0000   0.0000   0.0000
     0.0000   0.0000   0.0000   0.0000   0.0000   0.0000   0.0000   0.0000
     0.0000   0.0000   0.0000   0.0000   0.0000   0.0000   0.0000   0.0000
     0.0000   0.0000   0.0000   0.0000   0.0000   0.0000   0.0000   0.0000
     0.0000   0.0000   0.0000   0.0000   0.0000   0.0000   0.0000   0.0000
     0.0000   0.0000   0.0000   0.0000   0.0000   0.0000   0.0000   0.0000

          k = 0.3333 0.3333 0.1870 (  2536 PWs)   bands (ev):

   -28.8229 -28.8178 -11.0031 -10.9518 -10.9489 -10.8587 -10.8301 -10.8015
    -8.8545  -8.7885   1.8544   2.0559   2.1632   2.8708   2.9776   3.1395
     4.0018   4.0347   9.4846   9.9280  10.7574  11.1453  11.1554  11.2903
    11.4012  11.7740  12.3796  12.4775  12.7654  13.6348  13.9987  14.0811
    14.5752  15.3761  15.4893  15.9248  15.9899  17.0589  17.9598  18.2251
    19.2085  19.9088  20.8267  21.3894  21.4631  22.1667  22.1685  22.5576
    23.0260  23.0836  23.3731  23.3825  24.1418  24.4178  24.4836  25.1912
    25.6663  26.2485  26.7323  26.7925  26.8971  27.1855  28.0002  28.3442

     occupation numbers 
     1.0000   1.0000   1.0000   1.0000   1.0000   1.0000   1.0000   1.0000
     1.0000   1.0000   1.0000   1.0000   1.0000   1.0000   1.0000   1.0000
     1.0000   1.0000   0.0000   0.0000   0.0000   0.0000   0.0000   0.0000
     0.0000   0.0000   0.0000   0.0000   0.0000   0.0000   0.0000   0.0000
     0.0000   0.0000   0.0000   0.0000   0.0000   0.0000   0.0000   0.0000
     0.0000   0.0000   0.0000   0.0000   0.0000   0.0000   0.0000   0.0000
     0.0000   0.0000   0.0000   0.0000   0.0000   0.0000   0.0000   0.0000
     0.0000   0.0000   0.0000   0.0000   0.0000   0.0000   0.0000   0.0000

     highest occupied, lowest unoccupied level (ev):     4.4448    8.5555

!    total energy              =    -236.92798257 Ry
     estimated scf accuracy    <       0.00000056 Ry

     The total energy is the sum of the following terms:
     one-electron contribution =     -33.42475196 Ry
     hartree contribution      =      29.03693048 Ry
     xc contribution           =     -90.36551701 Ry
     ewald contribution        =    -142.17464408 Ry

     convergence has been achieved in   6 iterations

     Writing all to output data dir bands_nm/myprefix.save/
 
     init_run     :      1.60s CPU      0.53s WALL (       1 calls)
     electrons    :      8.25s CPU      2.19s WALL (       1 calls)

     Called by init_run:
     wfcinit      :      0.55s CPU      0.14s WALL (       1 calls)
     wfcinit:atom :      0.00s CPU      0.00s WALL (       3 calls)
     wfcinit:wfcr :      0.53s CPU      0.14s WALL (       3 calls)
     potinit      :      0.12s CPU      0.03s WALL (       1 calls)
     hinit0       :      0.61s CPU      0.18s WALL (       1 calls)

     Called by electrons:
     c_bands      :      6.35s CPU      1.66s WALL (       6 calls)
     sum_band     :      1.15s CPU      0.32s WALL (       6 calls)
     v_of_rho     :      0.16s CPU      0.04s WALL (       7 calls)
     v_h          :      0.01s CPU      0.00s WALL (       7 calls)
     v_xc         :      0.15s CPU      0.04s WALL (       7 calls)
     newd         :      0.59s CPU      0.16s WALL (       7 calls)
     mix_rho      :      0.03s CPU      0.01s WALL (       6 calls)

     Called by c_bands:
     init_us_2    :      0.02s CPU      0.01s WALL (      39 calls)
     init_us_2:cp :      0.02s CPU      0.01s WALL (      39 calls)
     cegterg      :      5.68s CPU      1.48s WALL (      18 calls)

     Called by sum_band:
     sum_band:wei :      0.00s CPU      0.00s WALL (       6 calls)
     sum_band:loo :      0.62s CPU      0.16s WALL (       6 calls)
     sum_band:buf :      0.01s CPU      0.00s WALL (      18 calls)
     sum_band:ini :      0.01s CPU      0.00s WALL (      18 calls)
     sum_band:cal :      0.06s CPU      0.02s WALL (      18 calls)
     sum_band:bec :      0.00s CPU      0.00s WALL (      18 calls)
     addusdens    :      0.32s CPU      0.11s WALL (       6 calls)
     addusd:skk   :      0.00s CPU      0.00s WALL (      18 calls)
     addusd:dgemm :      0.05s CPU      0.04s WALL (      18 calls)
     addusd:qvan2 :      0.22s CPU      0.06s WALL (      18 calls)

     Called by *egterg:
     cdiaghg      :      1.16s CPU      0.30s WALL (      85 calls)
     cegterg:over :      0.47s CPU      0.11s WALL (      67 calls)
     cegterg:upda :      0.09s CPU      0.03s WALL (      67 calls)
     cegterg:last :      0.30s CPU      0.08s WALL (      41 calls)
     h_psi        :      3.37s CPU      0.89s WALL (      88 calls)
     s_psi        :      0.11s CPU      0.03s WALL (      88 calls)
     g_psi        :      0.00s CPU      0.00s WALL (      67 calls)

     Called by h_psi:
     h_psi:calbec :      0.20s CPU      0.05s WALL (      88 calls)
     vloc_psi     :      3.10s CPU      0.80s WALL (      88 calls)
     add_vuspsi   :      0.07s CPU      0.03s WALL (      88 calls)

     General routines
     calbec       :      0.26s CPU      0.07s WALL (     106 calls)
     fft          :      0.17s CPU      0.05s WALL (      89 calls)
     ffts         :      0.01s CPU      0.00s WALL (      13 calls)
     fftw         :      3.51s CPU      0.83s WALL (    7338 calls)
     interpolate  :      0.02s CPU      0.00s WALL (       7 calls)
 
     Parallel routines
 
     PWSCF        :     10.72s CPU      3.16s WALL

 
   This run was terminated on:   2:19:39  14Jul2023            

=------------------------------------------------------------------------------=
   JOB DONE.
=------------------------------------------------------------------------------=
