
     Program PWSCF v.7.1 starts on 13Jul2023 at  1:55:26 

     This program is part of the open-source Quantum ESPRESSO suite
     for quantum simulation of materials; please cite
         "P. Giannozzi et al., J. Phys.:Condens. Matter 21 395502 (2009);
         "P. Giannozzi et al., J. Phys.:Condens. Matter 29 465901 (2017);
         "P. Giannozzi et al., J. Chem. Phys. 152 154105 (2020);
          URL http://www.quantum-espresso.org", 
     in publications or presentations arising from this work. More details at
     http://www.quantum-espresso.org/quote

     Parallel version (MPI & OpenMP), running on      64 processor cores
     Number of MPI processes:                16
     Threads/MPI process:                     4

     MPI processes distributed on     2 nodes
     184414 MiB available memory on the printing compute node when the environment starts
 
     Reading input from espresso_4558.pwi
Warning: card &CELL ignored
Warning: card / ignored

     Current dimensions of program PWSCF are:
     Max number of different atomic species (ntypx) = 10
     Max number of k-points (npk) =  40000
     Max angular momentum in pseudopotentials (lmaxx) =  4
     Message from routine setup:
     using ibrav=0 with symmetry is DISCOURAGED, use correct ibrav instead
 
     K-points division:     npool     =       2
     R & G space division:  proc/nbgrp/npool/nimage =       8
     Subspace diagonalization in iterative solution of the eigenvalue problem:
     a serial algorithm will be used

 
     Parallelization info
     --------------------
     sticks:   dense  smooth     PW     G-vecs:    dense   smooth      PW
     Min         320     160     44                21072     7454    1076
     Max         321     162     45                21076     7458    1080
     Sum        2561    1283    353               168583    59651    8617
 
     Using Slab Decomposition
 


     bravais-lattice index     =            0
     lattice parameter (alat)  =      11.3210  a.u.
     unit-cell volume          =    2684.5238 (a.u.)^3
     number of atoms/cell      =           16
     number of atomic types    =            2
     number of electrons       =       112.00
     number of Kohn-Sham states=           64
     kinetic-energy cutoff     =      30.0000  Ry
     charge density cutoff     =     240.0000  Ry
     scf convergence threshold =      1.0E-06
     mixing beta               =       0.7000
     number of iterations used =            8  plain     mixing
     Exchange-correlation= PBE
                           (   1   4   3   4   0   0   0)

     celldm(1)=  11.321002  celldm(2)=   0.000000  celldm(3)=   0.000000
     celldm(4)=   0.000000  celldm(5)=   0.000000  celldm(6)=   0.000000

     crystal axes: (cart. coord. in units of alat)
               a(1) = (   1.000000   0.000000   0.000000 )  
               a(2) = (   0.000000   1.047644   0.000000 )  
               a(3) = (   0.000000   0.000000   1.766034 )  

     reciprocal axes: (cart. coord. in units 2 pi/alat)
               b(1) = (  1.000000  0.000000  0.000000 )  
               b(2) = (  0.000000  0.954523  0.000000 )  
               b(3) = (  0.000000  0.000000  0.566241 )  


     PseudoPot. # 1 for Na read from file:
     /lustre07/scratch/pragov/crystal_structure_design/utils/SSSP/na_pbe_v1.5.uspp.F.UPF
     MD5 check sum: 44600605ef58000f06b90626533354dc
     Pseudo is Ultrasoft, Zval =  9.0
     Generated by new atomic code, or converted to UPF format
     Using radial grid of  819 points,  5 beta functions with: 
                l(1) =   0
                l(2) =   0
                l(3) =   1
                l(4) =   1
                l(5) =   2
     Q(r) pseudized with  8 coefficients,  rinner =    1.250   1.250   1.250
                                                       1.250   1.250

     PseudoPot. # 2 for As read from file:
     /lustre07/scratch/pragov/crystal_structure_design/utils/SSSP/As.pbe-n-rrkjus_psl.0.2.UPF
     MD5 check sum: 767315de957beeeb34f87d97bf945c8f
     Pseudo is Ultrasoft + core correction, Zval =  5.0
     Generated using "atomic" code by A. Dal Corso  v.5.0.99 svn rev. 10869
     Using radial grid of 1209 points,  4 beta functions with: 
                l(1) =   0
                l(2) =   0
                l(3) =   1
                l(4) =   1
     Q(r) pseudized with 0 coefficients 


     atomic species   valence    mass     pseudopotential
        Na             9.00    22.98977     Na( 1.00)
        As             5.00    74.92159     As( 1.00)

      4 Sym. Ops. (no inversion) found ( 3 have fractional translation)


                                    s                        frac. trans.

      isym =  1     identity                                     

 cryst.   s( 1) = (     1          0          0      )
                  (     0          1          0      )
                  (     0          0          1      )

 cart.    s( 1) = (  1.0000000  0.0000000  0.0000000 )
                  (  0.0000000  1.0000000  0.0000000 )
                  (  0.0000000  0.0000000  1.0000000 )


      isym =  2     180 deg rotation - cart. axis [0,0,1]        

 cryst.   s( 2) = (    -1          0          0      )    f =(  0.5000000 )
                  (     0         -1          0      )       (  0.0000000 )
                  (     0          0          1      )       ( -0.5000000 )

 cart.    s( 2) = ( -1.0000000  0.0000000  0.0000000 )    f =(  0.5000000 )
                  (  0.0000000 -1.0000000  0.0000000 )       (  0.0000000 )
                  (  0.0000000  0.0000000  1.0000000 )       ( -0.8830168 )


      isym =  3     180 deg rotation - cart. axis [0,1,0]        

 cryst.   s( 3) = (    -1          0          0      )    f =(  0.0000000 )
                  (     0          1          0      )       ( -0.5000000 )
                  (     0          0         -1      )       (  0.5000000 )

 cart.    s( 3) = ( -1.0000000  0.0000000  0.0000000 )    f =(  0.0000000 )
                  (  0.0000000  1.0000000  0.0000000 )       ( -0.5238220 )
                  (  0.0000000  0.0000000 -1.0000000 )       (  0.8830168 )


      isym =  4     180 deg rotation - cart. axis [1,0,0]        

 cryst.   s( 4) = (     1          0          0      )    f =(  0.5000000 )
                  (     0         -1          0      )       (  0.5000000 )
                  (     0          0         -1      )       (  0.0000000 )

 cart.    s( 4) = (  1.0000000  0.0000000  0.0000000 )    f =(  0.5000000 )
                  (  0.0000000 -1.0000000  0.0000000 )       (  0.5238220 )
                  (  0.0000000  0.0000000 -1.0000000 )       (  0.0000000 )


   Cartesian axes

     site n.     atom                  positions (alat units)
         1           Na  tau(   1) = (   0.8474610   0.3576049   1.2452921  )
         2           Na  tau(   2) = (   0.6525390   0.6900392   0.3622753  )
         3           Na  tau(   3) = (   0.1525390   0.8814270   1.4037583  )
         4           Na  tau(   4) = (   0.3474610   0.1662171   0.5207415  )
         5           Na  tau(   5) = (   0.1129080   0.6300521   0.7455911  )
         6           Na  tau(   6) = (   0.3870920   0.4175920   1.6286079  )
         7           Na  tau(   7) = (   0.8870920   0.1062301   0.1374257  )
         8           Na  tau(   8) = (   0.6129080   0.9414140   1.0204424  )
         9           As  tau(   9) = (   0.6151800   0.4853379   0.8114659  )
        10           As  tau(  10) = (   0.8848200   0.5623062   1.6944827  )
        11           As  tau(  11) = (   0.3848200   1.0091599   0.0715508  )
        12           As  tau(  12) = (   0.1151800   0.0384842   0.9545676  )
        13           As  tau(  13) = (   0.3474400   0.3480777   1.1075256  )
        14           As  tau(  14) = (   0.1525600   0.6995664   0.2245088  )
        15           As  tau(  15) = (   0.6525600   0.8718997   1.5415248  )
        16           As  tau(  16) = (   0.8474400   0.1757444   0.6585080  )

   Crystallographic axes

     site n.     atom                  positions (cryst. coord.)
         1           Na  tau(   1) = (  0.8474610  0.3413420  0.7051350  )
         2           Na  tau(   2) = (  0.6525390  0.6586580  0.2051350  )
         3           Na  tau(   3) = (  0.1525390  0.8413420  0.7948650  )
         4           Na  tau(   4) = (  0.3474610  0.1586580  0.2948650  )
         5           Na  tau(   5) = (  0.1129080  0.6013990  0.4221840  )
         6           Na  tau(   6) = (  0.3870920  0.3986010  0.9221840  )
         7           Na  tau(   7) = (  0.8870920  0.1013990  0.0778160  )
         8           Na  tau(   8) = (  0.6129080  0.8986010  0.5778160  )
         9           As  tau(   9) = (  0.6151800  0.4632660  0.4594850  )
        10           As  tau(  10) = (  0.8848200  0.5367340  0.9594850  )
        11           As  tau(  11) = (  0.3848200  0.9632660  0.0405150  )
        12           As  tau(  12) = (  0.1151800  0.0367340  0.5405150  )
        13           As  tau(  13) = (  0.3474400  0.3322480  0.6271260  )
        14           As  tau(  14) = (  0.1525600  0.6677520  0.1271260  )
        15           As  tau(  15) = (  0.6525600  0.8322480  0.8728740  )
        16           As  tau(  16) = (  0.8474400  0.1677520  0.3728740  )

     number of k points=     8
                       cart. coord. in units 2pi/alat
        k(    1) = (   0.0000000   0.0000000   0.0000000), wk =   0.0740741
        k(    2) = (   0.0000000   0.0000000   0.1887469), wk =   0.1481481
        k(    3) = (   0.0000000   0.3181742   0.0000000), wk =   0.1481481
        k(    4) = (   0.0000000   0.3181742   0.1887469), wk =   0.2962963
        k(    5) = (   0.3333333   0.0000000   0.0000000), wk =   0.1481481
        k(    6) = (   0.3333333   0.0000000   0.1887469), wk =   0.2962963
        k(    7) = (   0.3333333   0.3181742   0.0000000), wk =   0.2962963
        k(    8) = (   0.3333333   0.3181742   0.1887469), wk =   0.5925926

                       cryst. coord.
        k(    1) = (   0.0000000   0.0000000   0.0000000), wk =   0.0740741
        k(    2) = (   0.0000000   0.0000000   0.3333333), wk =   0.1481481
        k(    3) = (   0.0000000   0.3333333   0.0000000), wk =   0.1481481
        k(    4) = (   0.0000000   0.3333333   0.3333333), wk =   0.2962963
        k(    5) = (   0.3333333   0.0000000   0.0000000), wk =   0.1481481
        k(    6) = (   0.3333333   0.0000000   0.3333333), wk =   0.2962963
        k(    7) = (   0.3333333   0.3333333   0.0000000), wk =   0.2962963
        k(    8) = (   0.3333333   0.3333333   0.3333333), wk =   0.5925926

     Dense  grid:   168583 G-vectors     FFT dimensions: (  60,  60, 100)

     Smooth grid:    59651 G-vectors     FFT dimensions: (  40,  48,  72)

     Dynamical RAM for                 wfc:       0.91 MB

     Dynamical RAM for     wfc (w. buffer):       4.55 MB

     Dynamical RAM for           str. fact:       0.64 MB

     Dynamical RAM for           local pot:       0.00 MB

     Dynamical RAM for          nlocal pot:       2.39 MB

     Dynamical RAM for                qrad:       1.78 MB

     Dynamical RAM for          rho,v,vnew:       2.04 MB

     Dynamical RAM for               rhoin:       0.68 MB

     Dynamical RAM for            rho*nmix:       5.15 MB

     Dynamical RAM for           G-vectors:       1.26 MB

     Dynamical RAM for          h,s,v(r/c):       0.75 MB

     Dynamical RAM for          <psi|beta>:       0.16 MB

     Dynamical RAM for                 psi:       1.82 MB

     Dynamical RAM for                hpsi:       1.82 MB

     Dynamical RAM for                spsi:       1.82 MB

     Dynamical RAM for      wfcinit/wfcrot:       2.16 MB

     Dynamical RAM for           addusdens:      18.49 MB

     Estimated static dynamical RAM per process >      16.08 MB

     Estimated max dynamical RAM per process >      39.72 MB

     Estimated total dynamical RAM >     594.28 MB

     Initial potential from superposition of free atoms

     starting charge     111.9478, renormalised to     112.0000
     Starting wfcs are   72 randomized atomic wfcs

     total cpu time spent up to now is        0.7 secs

     Self-consistent Calculation

     iteration #  1     ecut=    30.00 Ry     beta= 0.70
     Davidson diagonalization with overlap

---- Real-time Memory Report at c_bands before calling an iterative solver
           227 MiB given to the printing process from OS
             0 MiB allocation reported by mallinfo(arena+hblkhd)
        184075 MiB available memory on the node where the printing process lives
------------------
     ethr =  1.00E-02,  avg # of iterations =  3.0

     Threshold (ethr) on eigenvalues was too large:
     Diagonalizing with lowered threshold

     Davidson diagonalization with overlap

---- Real-time Memory Report at c_bands before calling an iterative solver
           245 MiB given to the printing process from OS
             0 MiB allocation reported by mallinfo(arena+hblkhd)
        183992 MiB available memory on the node where the printing process lives
------------------
     ethr =  3.08E-04,  avg # of iterations =  2.8

     total cpu time spent up to now is        1.5 secs

     total energy              =    -908.66953944 Ry
     estimated scf accuracy    <       0.33937213 Ry

     iteration #  2     ecut=    30.00 Ry     beta= 0.70
     Davidson diagonalization with overlap

---- Real-time Memory Report at c_bands before calling an iterative solver
           248 MiB given to the printing process from OS
             0 MiB allocation reported by mallinfo(arena+hblkhd)
        183925 MiB available memory on the node where the printing process lives
------------------
     ethr =  3.03E-04,  avg # of iterations =  4.5

     total cpu time spent up to now is        2.1 secs

     total energy              =    -908.73364011 Ry
     estimated scf accuracy    <       0.09674409 Ry

     iteration #  3     ecut=    30.00 Ry     beta= 0.70
     Davidson diagonalization with overlap

---- Real-time Memory Report at c_bands before calling an iterative solver
           255 MiB given to the printing process from OS
             0 MiB allocation reported by mallinfo(arena+hblkhd)
        183876 MiB available memory on the node where the printing process lives
------------------
     ethr =  8.64E-05,  avg # of iterations =  2.1

     total cpu time spent up to now is        2.5 secs

     total energy              =    -908.75677468 Ry
     estimated scf accuracy    <       0.00572298 Ry

     iteration #  4     ecut=    30.00 Ry     beta= 0.70
     Davidson diagonalization with overlap

---- Real-time Memory Report at c_bands before calling an iterative solver
           255 MiB given to the printing process from OS
             0 MiB allocation reported by mallinfo(arena+hblkhd)
        184024 MiB available memory on the node where the printing process lives
------------------
     ethr =  5.11E-06,  avg # of iterations =  7.2

     total cpu time spent up to now is        3.1 secs

     total energy              =    -908.75790980 Ry
     estimated scf accuracy    <       0.00037122 Ry

     iteration #  5     ecut=    30.00 Ry     beta= 0.70
     Davidson diagonalization with overlap

---- Real-time Memory Report at c_bands before calling an iterative solver
           256 MiB given to the printing process from OS
             0 MiB allocation reported by mallinfo(arena+hblkhd)
        185276 MiB available memory on the node where the printing process lives
------------------
     ethr =  3.31E-07,  avg # of iterations =  3.4

     total cpu time spent up to now is        3.6 secs

     total energy              =    -908.75797879 Ry
     estimated scf accuracy    <       0.00008882 Ry

     iteration #  6     ecut=    30.00 Ry     beta= 0.70
     Davidson diagonalization with overlap

---- Real-time Memory Report at c_bands before calling an iterative solver
           256 MiB given to the printing process from OS
             0 MiB allocation reported by mallinfo(arena+hblkhd)
        185252 MiB available memory on the node where the printing process lives
------------------
     ethr =  7.93E-08,  avg # of iterations =  2.0

     total cpu time spent up to now is        4.0 secs

     total energy              =    -908.75799733 Ry
     estimated scf accuracy    <       0.00000388 Ry

     iteration #  7     ecut=    30.00 Ry     beta= 0.70
     Davidson diagonalization with overlap

---- Real-time Memory Report at c_bands before calling an iterative solver
           256 MiB given to the printing process from OS
             0 MiB allocation reported by mallinfo(arena+hblkhd)
        185231 MiB available memory on the node where the printing process lives
------------------
     ethr =  3.47E-09,  avg # of iterations =  3.8

     total cpu time spent up to now is        4.4 secs

     End of self-consistent calculation

          k = 0.0000 0.0000 0.0000 (  7461 PWs)   bands (ev):

   -48.1783 -48.1782 -48.1779 -48.1779 -48.1406 -48.1405 -48.1403 -48.1400
   -20.1094 -20.1088 -20.0966 -20.0958 -20.0934 -20.0923 -20.0914 -20.0911
   -20.0853 -20.0835 -20.0831 -20.0813 -20.0630 -20.0621 -20.0592 -20.0588
   -20.0458 -20.0456 -20.0448 -20.0438 -20.0437 -20.0437 -20.0424 -20.0423
    -8.2894  -8.1634  -6.3961  -6.2818  -6.1594  -6.1282  -3.5122  -3.4452
    -0.0724   0.1630   0.5597   0.7942   1.1470   1.3374   1.4907   1.4992
     2.2901   2.6888   2.7048   2.9910   3.1633   3.2908   3.5432   4.0750
     4.6924   5.1955   5.4175   5.7056   6.0231   6.0715   6.0888   7.0549

     occupation numbers 
     1.0000   1.0000   1.0000   1.0000   1.0000   1.0000   1.0000   1.0000
     1.0000   1.0000   1.0000   1.0000   1.0000   1.0000   1.0000   1.0000
     1.0000   1.0000   1.0000   1.0000   1.0000   1.0000   1.0000   1.0000
     1.0000   1.0000   1.0000   1.0000   1.0000   1.0000   1.0000   1.0000
     1.0000   1.0000   1.0000   1.0000   1.0000   1.0000   1.0000   1.0000
     1.0000   1.0000   1.0000   1.0000   1.0000   1.0000   1.0000   1.0000
     1.0000   1.0000   1.0000   1.0000   1.0000   1.0000   1.0000   1.0000
     0.0000   0.0000   0.0000   0.0000   0.0000   0.0000   0.0000   0.0000

          k = 0.0000 0.0000 0.1887 (  7457 PWs)   bands (ev):

   -48.1784 -48.1781 -48.1779 -48.1778 -48.1406 -48.1405 -48.1402 -48.1402
   -20.1103 -20.1093 -20.0969 -20.0962 -20.0929 -20.0929 -20.0914 -20.0913
   -20.0846 -20.0840 -20.0820 -20.0820 -20.0623 -20.0621 -20.0588 -20.0587
   -20.0454 -20.0446 -20.0444 -20.0439 -20.0434 -20.0433 -20.0432 -20.0428
    -8.2598  -8.1970  -6.3600  -6.3020  -6.1568  -6.1423  -3.4962  -3.4627
    -0.0220   0.0951   0.5815   0.6853   1.2015   1.2877   1.5835   1.5896
     2.3663   2.5637   2.7898   3.0218   3.0618   3.1909   3.6710   3.9288
     4.9678   5.0908   5.2188   5.5626   5.8228   6.0374   6.4814   7.1121

     occupation numbers 
     1.0000   1.0000   1.0000   1.0000   1.0000   1.0000   1.0000   1.0000
     1.0000   1.0000   1.0000   1.0000   1.0000   1.0000   1.0000   1.0000
     1.0000   1.0000   1.0000   1.0000   1.0000   1.0000   1.0000   1.0000
     1.0000   1.0000   1.0000   1.0000   1.0000   1.0000   1.0000   1.0000
     1.0000   1.0000   1.0000   1.0000   1.0000   1.0000   1.0000   1.0000
     1.0000   1.0000   1.0000   1.0000   1.0000   1.0000   1.0000   1.0000
     1.0000   1.0000   1.0000   1.0000   1.0000   1.0000   1.0000   1.0000
     0.0000   0.0000   0.0000   0.0000   0.0000   0.0000   0.0000   0.0000

          k = 0.0000 0.3182 0.0000 (  7429 PWs)   bands (ev):

   -48.1783 -48.1780 -48.1778 -48.1778 -48.1405 -48.1405 -48.1401 -48.1401
   -20.1062 -20.1055 -20.1011 -20.1002 -20.0925 -20.0914 -20.0914 -20.0909
   -20.0834 -20.0825 -20.0824 -20.0815 -20.0623 -20.0622 -20.0586 -20.0581
   -20.0454 -20.0454 -20.0440 -20.0433 -20.0428 -20.0426 -20.0423 -20.0419
    -8.2190  -8.1531  -6.3609  -6.3262  -6.2216  -6.1871  -3.5021  -3.4673
    -0.0804   0.0335   0.5973   0.7985   0.8468   1.2995   1.5580   1.6638
     2.2203   2.3783   2.8639   3.0878   3.2510   3.5238   3.6259   4.0697
     5.0002   5.1734   5.4170   5.9130   6.2012   6.2733   7.0204   7.2083

     occupation numbers 
     1.0000   1.0000   1.0000   1.0000   1.0000   1.0000   1.0000   1.0000
     1.0000   1.0000   1.0000   1.0000   1.0000   1.0000   1.0000   1.0000
     1.0000   1.0000   1.0000   1.0000   1.0000   1.0000   1.0000   1.0000
     1.0000   1.0000   1.0000   1.0000   1.0000   1.0000   1.0000   1.0000
     1.0000   1.0000   1.0000   1.0000   1.0000   1.0000   1.0000   1.0000
     1.0000   1.0000   1.0000   1.0000   1.0000   1.0000   1.0000   1.0000
     1.0000   1.0000   1.0000   1.0000   1.0000   1.0000   1.0000   1.0000
     0.0000   0.0000   0.0000   0.0000   0.0000   0.0000   0.0000   0.0000

          k = 0.0000 0.3182 0.1887 (  7432 PWs)   bands (ev):

   -48.1783 -48.1780 -48.1779 -48.1777 -48.1406 -48.1405 -48.1400 -48.1400
   -20.1057 -20.1051 -20.1009 -20.1003 -20.0930 -20.0921 -20.0914 -20.0908
   -20.0835 -20.0829 -20.0827 -20.0818 -20.0620 -20.0617 -20.0590 -20.0582
   -20.0458 -20.0451 -20.0447 -20.0440 -20.0426 -20.0425 -20.0420 -20.0418
    -8.2027  -8.1698  -6.3632  -6.3435  -6.2031  -6.1837  -3.4948  -3.4774
    -0.0435   0.0142   0.5587   0.5992   1.1245   1.3246   1.5369   1.6265
     2.2591   2.3605   2.9352   3.0669   3.2464   3.3859   3.7244   3.9062
     5.0433   5.2007   5.4173   5.7571   6.1920   6.3758   7.0702   7.2312

     occupation numbers 
     1.0000   1.0000   1.0000   1.0000   1.0000   1.0000   1.0000   1.0000
     1.0000   1.0000   1.0000   1.0000   1.0000   1.0000   1.0000   1.0000
     1.0000   1.0000   1.0000   1.0000   1.0000   1.0000   1.0000   1.0000
     1.0000   1.0000   1.0000   1.0000   1.0000   1.0000   1.0000   1.0000
     1.0000   1.0000   1.0000   1.0000   1.0000   1.0000   1.0000   1.0000
     1.0000   1.0000   1.0000   1.0000   1.0000   1.0000   1.0000   1.0000
     1.0000   1.0000   1.0000   1.0000   1.0000   1.0000   1.0000   1.0000
     0.0000   0.0000   0.0000   0.0000   0.0000   0.0000   0.0000   0.0000

          k = 0.3333 0.0000 0.0000 (  7456 PWs)   bands (ev):

   -48.1782 -48.1781 -48.1781 -48.1777 -48.1406 -48.1404 -48.1404 -48.1400
   -20.1088 -20.1075 -20.0973 -20.0972 -20.0945 -20.0943 -20.0913 -20.0903
   -20.0852 -20.0829 -20.0827 -20.0818 -20.0641 -20.0609 -20.0594 -20.0585
   -20.0457 -20.0452 -20.0439 -20.0438 -20.0430 -20.0429 -20.0426 -20.0416
    -8.0137  -7.9092  -7.2663  -7.2212  -5.1891  -5.0266  -4.0806  -3.9520
     0.3383   0.4517   0.5240   0.8680   1.0747   1.0756   1.4074   1.4838
     2.0452   2.3746   2.6496   2.7223   2.9756   3.3655   3.3847   3.8055
     5.4524   5.8763   5.8792   6.0100   6.4746   6.5799   6.7484   6.9943

     occupation numbers 
     1.0000   1.0000   1.0000   1.0000   1.0000   1.0000   1.0000   1.0000
     1.0000   1.0000   1.0000   1.0000   1.0000   1.0000   1.0000   1.0000
     1.0000   1.0000   1.0000   1.0000   1.0000   1.0000   1.0000   1.0000
     1.0000   1.0000   1.0000   1.0000   1.0000   1.0000   1.0000   1.0000
     1.0000   1.0000   1.0000   1.0000   1.0000   1.0000   1.0000   1.0000
     1.0000   1.0000   1.0000   1.0000   1.0000   1.0000   1.0000   1.0000
     1.0000   1.0000   1.0000   1.0000   1.0000   1.0000   1.0000   1.0000
     0.0000   0.0000   0.0000   0.0000   0.0000   0.0000   0.0000   0.0000

          k = 0.3333 0.0000 0.1887 (  7456 PWs)   bands (ev):

   -48.1783 -48.1782 -48.1780 -48.1777 -48.1405 -48.1404 -48.1403 -48.1401
   -20.1088 -20.1079 -20.0974 -20.0971 -20.0949 -20.0944 -20.0910 -20.0906
   -20.0838 -20.0835 -20.0827 -20.0821 -20.0636 -20.0619 -20.0593 -20.0588
   -20.0452 -20.0445 -20.0443 -20.0439 -20.0436 -20.0429 -20.0425 -20.0418
    -7.9890  -7.9369  -7.2542  -7.2317  -5.1489  -5.0678  -4.0479  -3.9836
     0.4214   0.4723   0.5227   0.7165   0.9653   1.1926   1.4081   1.4661
     2.1139   2.4016   2.6608   2.8300   3.0193   3.1071   3.5593   3.6635
     5.4317   5.6830   6.0857   6.1204   6.3204   6.3844   6.8198   6.9197

     occupation numbers 
     1.0000   1.0000   1.0000   1.0000   1.0000   1.0000   1.0000   1.0000
     1.0000   1.0000   1.0000   1.0000   1.0000   1.0000   1.0000   1.0000
     1.0000   1.0000   1.0000   1.0000   1.0000   1.0000   1.0000   1.0000
     1.0000   1.0000   1.0000   1.0000   1.0000   1.0000   1.0000   1.0000
     1.0000   1.0000   1.0000   1.0000   1.0000   1.0000   1.0000   1.0000
     1.0000   1.0000   1.0000   1.0000   1.0000   1.0000   1.0000   1.0000
     1.0000   1.0000   1.0000   1.0000   1.0000   1.0000   1.0000   1.0000
     0.0000   0.0000   0.0000   0.0000   0.0000   0.0000   0.0000   0.0000

          k = 0.3333 0.3182 0.0000 (  7466 PWs)   bands (ev):

   -48.1783 -48.1781 -48.1781 -48.1780 -48.1405 -48.1405 -48.1404 -48.1402
   -20.1062 -20.1056 -20.1012 -20.1005 -20.0942 -20.0937 -20.0921 -20.0918
   -20.0843 -20.0835 -20.0830 -20.0824 -20.0637 -20.0615 -20.0602 -20.0593
   -20.0456 -20.0453 -20.0443 -20.0440 -20.0434 -20.0429 -20.0423 -20.0420
    -7.9558  -7.9016  -7.2462  -7.2235  -5.2125  -5.1305  -4.0903  -4.0314
     0.0687   0.3709   0.6413   0.7113   0.8752   0.9993   1.5123   1.6521
     2.3146   2.6537   2.8531   3.0024   3.2326   3.3290   3.5569   3.7282
     5.4197   5.6717   6.0230   6.0326   6.1557   6.4619   6.9051   7.2634

     occupation numbers 
     1.0000   1.0000   1.0000   1.0000   1.0000   1.0000   1.0000   1.0000
     1.0000   1.0000   1.0000   1.0000   1.0000   1.0000   1.0000   1.0000
     1.0000   1.0000   1.0000   1.0000   1.0000   1.0000   1.0000   1.0000
     1.0000   1.0000   1.0000   1.0000   1.0000   1.0000   1.0000   1.0000
     1.0000   1.0000   1.0000   1.0000   1.0000   1.0000   1.0000   1.0000
     1.0000   1.0000   1.0000   1.0000   1.0000   1.0000   1.0000   1.0000
     1.0000   1.0000   1.0000   1.0000   1.0000   1.0000   1.0000   1.0000
     0.0000   0.0000   0.0000   0.0000   0.0000   0.0000   0.0000   0.0000

          k = 0.3333 0.3182 0.1887 (  7436 PWs)   bands (ev):

   -48.1781 -48.1780 -48.1779 -48.1778 -48.1404 -48.1403 -48.1402 -48.1401
   -20.1057 -20.1051 -20.1006 -20.0999 -20.0937 -20.0930 -20.0913 -20.0910
   -20.0835 -20.0827 -20.0824 -20.0819 -20.0622 -20.0616 -20.0594 -20.0590
   -20.0449 -20.0444 -20.0439 -20.0436 -20.0424 -20.0422 -20.0420 -20.0418
    -7.9424  -7.9153  -7.2407  -7.2293  -5.1918  -5.1509  -4.0766  -4.0472
     0.1868   0.4488   0.5015   0.6984   0.8367   1.0003   1.4864   1.5701
     2.4109   2.5737   2.8390   2.9297   3.3119   3.3788   3.6122   3.7547
     5.4935   5.7347   5.8636   5.9862   6.2967   6.4698   7.0071   7.2987

     occupation numbers 
     1.0000   1.0000   1.0000   1.0000   1.0000   1.0000   1.0000   1.0000
     1.0000   1.0000   1.0000   1.0000   1.0000   1.0000   1.0000   1.0000
     1.0000   1.0000   1.0000   1.0000   1.0000   1.0000   1.0000   1.0000
     1.0000   1.0000   1.0000   1.0000   1.0000   1.0000   1.0000   1.0000
     1.0000   1.0000   1.0000   1.0000   1.0000   1.0000   1.0000   1.0000
     1.0000   1.0000   1.0000   1.0000   1.0000   1.0000   1.0000   1.0000
     1.0000   1.0000   1.0000   1.0000   1.0000   1.0000   1.0000   1.0000
     0.0000   0.0000   0.0000   0.0000   0.0000   0.0000   0.0000   0.0000

     highest occupied, lowest unoccupied level (ev):     4.0750    4.6924

!    total energy              =    -908.75799839 Ry
     estimated scf accuracy    <       0.00000052 Ry

     The total energy is the sum of the following terms:
     one-electron contribution =    -648.40597570 Ry
     hartree contribution      =     352.23704527 Ry
     xc contribution           =    -188.49664133 Ry
     ewald contribution        =    -424.09242663 Ry

     convergence has been achieved in   7 iterations

     Writing all to output data dir bands_nm/myprefix.save/
 
     init_run     :      1.23s CPU      0.47s WALL (       1 calls)
     electrons    :     14.83s CPU      3.91s WALL (       1 calls)

     Called by init_run:
     wfcinit      :      0.54s CPU      0.15s WALL (       1 calls)
     wfcinit:atom :      0.00s CPU      0.00s WALL (       4 calls)
     wfcinit:wfcr :      0.51s CPU      0.14s WALL (       4 calls)
     potinit      :      0.18s CPU      0.06s WALL (       1 calls)
     hinit0       :      0.43s CPU      0.20s WALL (       1 calls)

     Called by electrons:
     c_bands      :     11.68s CPU      3.01s WALL (       8 calls)
     sum_band     :      1.95s CPU      0.54s WALL (       8 calls)
     v_of_rho     :      0.41s CPU      0.11s WALL (       8 calls)
     v_h          :      0.03s CPU      0.01s WALL (       8 calls)
     v_xc         :      0.38s CPU      0.10s WALL (       8 calls)
     newd         :      0.34s CPU      0.10s WALL (       8 calls)
     mix_rho      :      0.06s CPU      0.02s WALL (       8 calls)

     Called by c_bands:
     init_us_2    :      0.05s CPU      0.02s WALL (      68 calls)
     init_us_2:cp :      0.05s CPU      0.02s WALL (      68 calls)
     cegterg      :     10.55s CPU      2.72s WALL (      32 calls)

     Called by sum_band:
     sum_band:wei :      0.00s CPU      0.00s WALL (       8 calls)
     sum_band:loo :      1.47s CPU      0.38s WALL (       8 calls)
     sum_band:buf :      0.03s CPU      0.01s WALL (      32 calls)
     sum_band:ini :      0.02s CPU      0.01s WALL (      32 calls)
     sum_band:cal :      0.28s CPU      0.07s WALL (      32 calls)
     sum_band:bec :      0.01s CPU      0.00s WALL (      32 calls)
     addusdens    :      0.24s CPU      0.09s WALL (       8 calls)
     addusd:skk   :      0.00s CPU      0.00s WALL (      16 calls)
     addusd:dgemm :      0.04s CPU      0.04s WALL (      16 calls)
     addusd:qvan2 :      0.13s CPU      0.04s WALL (      16 calls)

     Called by *egterg:
     cdiaghg      :      1.86s CPU      0.48s WALL (     130 calls)
     cegterg:over :      0.66s CPU      0.15s WALL (     102 calls)
     cegterg:upda :      0.22s CPU      0.08s WALL (     102 calls)
     cegterg:last :      0.66s CPU      0.17s WALL (      64 calls)
     h_psi        :      6.49s CPU      1.70s WALL (     138 calls)
     s_psi        :      0.62s CPU      0.16s WALL (     138 calls)
     g_psi        :      0.01s CPU      0.00s WALL (     102 calls)

     Called by h_psi:
     h_psi:calbec :      0.72s CPU      0.18s WALL (     138 calls)
     vloc_psi     :      5.21s CPU      1.35s WALL (     138 calls)
     add_vuspsi   :      0.55s CPU      0.16s WALL (     138 calls)

     General routines
     calbec       :      1.01s CPU      0.25s WALL (     170 calls)
     fft          :      0.36s CPU      0.10s WALL (     103 calls)
     ffts         :      0.02s CPU      0.00s WALL (      16 calls)
     fftw         :      5.92s CPU      1.39s WALL (   12496 calls)
     interpolate  :      0.03s CPU      0.01s WALL (       8 calls)
 
     Parallel routines
 
     PWSCF        :     17.06s CPU      5.32s WALL

 
   This run was terminated on:   1:55:31  13Jul2023            

=------------------------------------------------------------------------------=
   JOB DONE.
=------------------------------------------------------------------------------=
