
     Program PWSCF v.7.1 starts on 15Jul2023 at 14: 9:59 

     This program is part of the open-source Quantum ESPRESSO suite
     for quantum simulation of materials; please cite
         "P. Giannozzi et al., J. Phys.:Condens. Matter 21 395502 (2009);
         "P. Giannozzi et al., J. Phys.:Condens. Matter 29 465901 (2017);
         "P. Giannozzi et al., J. Chem. Phys. 152 154105 (2020);
          URL http://www.quantum-espresso.org", 
     in publications or presentations arising from this work. More details at
     http://www.quantum-espresso.org/quote

     Parallel version (MPI & OpenMP), running on      32 processor cores
     Number of MPI processes:                 8
     Threads/MPI process:                     4

     MPI processes distributed on     1 nodes
     119381 MiB available memory on the printing compute node when the environment starts
 
     Reading input from espresso_1421.pwi
Warning: card &CELL ignored
Warning: card / ignored

     Current dimensions of program PWSCF are:
     Max number of different atomic species (ntypx) = 10
     Max number of k-points (npk) =  40000
     Max angular momentum in pseudopotentials (lmaxx) =  4
     file Ce.paw.z_12.atompaw.wentzcovitch.v1.2.upf: wavefunction(s)  6S 0P 5D 0D 4F 0F renormalized
     Message from routine setup:
     the system is metallic, specify occupations
     Message from routine setup:
     using ibrav=0 with symmetry is DISCOURAGED, use correct ibrav instead
 
     K-points division:     npool     =       2
     R & G space division:  proc/nbgrp/npool/nimage =       4
     Subspace diagonalization in iterative solution of the eigenvalue problem:
     a serial algorithm will be used

 
     Parallelization info
     --------------------
     sticks:   dense  smooth     PW     G-vecs:    dense   smooth      PW
     Min         865     433    118                33440    11831    1712
     Max         867     434    119                33442    11832    1715
     Sum        3463    1735    475               133763    47327    6855
 
     Using Slab Decomposition
 


     bravais-lattice index     =            0
     lattice parameter (alat)  =      14.4388  a.u.
     unit-cell volume          =    2128.5318 (a.u.)^3
     number of atoms/cell      =           10
     number of atomic types    =            4
     number of electrons       =        75.00 (up:  38.00, down:  37.00)
     number of Kohn-Sham states=           64
     kinetic-energy cutoff     =      30.0000  Ry
     charge density cutoff     =     240.0000  Ry
     scf convergence threshold =      1.0E-06
     mixing beta               =       0.7000
     number of iterations used =            8  plain     mixing
     Exchange-correlation=  SLA  PW   PBX  PBC
                           (   1   4   3   4   0   0   0)

     celldm(1)=  14.438820  celldm(2)=   0.000000  celldm(3)=   0.000000
     celldm(4)=   0.000000  celldm(5)=   0.000000  celldm(6)=   0.000000

     crystal axes: (cart. coord. in units of alat)
               a(1) = (   1.000000   0.000000   0.000000 )  
               a(2) = (   0.500000   0.866025   0.000000 )  
               a(3) = (   0.500000   0.288675   0.816497 )  

     reciprocal axes: (cart. coord. in units 2 pi/alat)
               b(1) = (  1.000000 -0.577350 -0.408248 )  
               b(2) = (  0.000000  1.154701 -0.408248 )  
               b(3) = (  0.000000  0.000000  1.224745 )  


     PseudoPot. # 1 for Cs read from file:
     /lustre07/scratch/pragov/crystal_structure_design/utils/SSSP/Cs_pbe_v1.uspp.F.UPF
     MD5 check sum: 3476d69cb178dfad3ffaa59df4e07ca4
     Pseudo is Ultrasoft + core correction, Zval =  9.0
     Generated by new atomic code, or converted to UPF format
     Using radial grid of  905 points,  6 beta functions with: 
                l(1) =   0
                l(2) =   0
                l(3) =   1
                l(4) =   1
                l(5) =   2
                l(6) =   2
     Q(r) pseudized with  6 coefficients,  rinner =    1.500   1.500   1.500
                                                       1.500   1.500

     PseudoPot. # 2 for Li read from file:
     /lustre07/scratch/pragov/crystal_structure_design/utils/SSSP/li_pbe_v1.4.uspp.F.UPF
     MD5 check sum: e912e257baa3777c20ea3d68f190483c
     Pseudo is Ultrasoft, Zval =  3.0
     Generated by new atomic code, or converted to UPF format
     Using radial grid of  751 points,  5 beta functions with: 
                l(1) =   0
                l(2) =   0
                l(3) =   0
                l(4) =   1
                l(5) =   1
     Q(r) pseudized with 10 coefficients,  rinner =    1.150   1.150   1.150


     PseudoPot. # 3 for Ce read from file:
     /lustre07/scratch/pragov/crystal_structure_design/utils/SSSP/Ce.paw.z_12.atompaw.wentzcovitch.v1.2.upf
     MD5 check sum: 2241420ff980c77e0c917a2dc8a7e08e
     Pseudo is Projector augmented-wave + core cor, Zval = 12.0
     Generated using ATOMPAW code
     Shape of augmentation charge: BESSEL
     Using radial grid of 1102 points,  8 beta functions with: 
                l(1) =   0
                l(2) =   0
                l(3) =   1
                l(4) =   1
                l(5) =   2
                l(6) =   2
                l(7) =   3
                l(8) =   3
     Q(r) pseudized with 0 coefficients 


     PseudoPot. # 4 for Cl read from file:
     /lustre07/scratch/pragov/crystal_structure_design/utils/SSSP/cl_pbe_v1.4.uspp.F.UPF
     MD5 check sum: fc6f6913ecf08c9257cb748ef0700058
     Pseudo is Ultrasoft + core correction, Zval =  7.0
     Generated by new atomic code, or converted to UPF format
     Using radial grid of  909 points,  6 beta functions with: 
                l(1) =   0
                l(2) =   0
                l(3) =   1
                l(4) =   1
                l(5) =   2
                l(6) =   2
     Q(r) pseudized with  8 coefficients,  rinner =    1.300   1.300   1.300
                                                       1.300   1.300

     atomic species   valence    mass     pseudopotential
        Cs             9.00   132.90545     Cs( 1.00)
        Li             3.00     6.94000     Li( 1.00)
        Ce            12.00   140.11600     Ce( 1.00)
        Cl             7.00    35.45000     Cl( 1.00)

     Starting magnetic structure 
     atomic species   magnetization
        Cs           0.000
        Li           0.000
        Ce           0.000
        Cl           0.000

     12 Sym. Ops., with inversion, found


                                    s                        frac. trans.

      isym =  1     identity                                     

 cryst.   s( 1) = (     1          0          0      )
                  (     0          1          0      )
                  (     0          0          1      )

 cart.    s( 1) = (  1.0000000  0.0000000  0.0000000 )
                  (  0.0000000  1.0000000  0.0000000 )
                  (  0.0000000  0.0000000  1.0000000 )


      isym =  2     180 deg rotation - cart. axis [1,0,0]        

 cryst.   s( 2) = (     1          0          0      )
                  (     1         -1          0      )
                  (     1          0         -1      )

 cart.    s( 2) = (  1.0000000  0.0000000  0.0000000 )
                  (  0.0000000 -1.0000000  0.0000000 )
                  (  0.0000000  0.0000000 -1.0000000 )


      isym =  3     120 deg rotation - cryst. axis [0,0,1]       

 cryst.   s( 3) = (    -1          1          0      )
                  (    -1          0          0      )
                  (    -1          0          1      )

 cart.    s( 3) = ( -0.5000000 -0.8660254  0.0000000 )
                  (  0.8660254 -0.5000000  0.0000000 )
                  (  0.0000000  0.0000000  1.0000000 )


      isym =  4     120 deg rotation - cryst. axis [0,0,-1]      

 cryst.   s( 4) = (     0         -1          0      )
                  (     1         -1          0      )
                  (     0         -1          1      )

 cart.    s( 4) = ( -0.5000000  0.8660254 -0.0000000 )
                  ( -0.8660254 -0.5000000  0.0000000 )
                  (  0.0000000  0.0000000  1.0000000 )


      isym =  5     180 deg rotation - cryst. axis [0,1,0]       

 cryst.   s( 5) = (     0         -1          0      )
                  (    -1          0          0      )
                  (     0          0         -1      )

 cart.    s( 5) = ( -0.5000000 -0.8660254  0.0000000 )
                  ( -0.8660254  0.5000000 -0.0000000 )
                  (  0.0000000  0.0000000 -1.0000000 )


      isym =  6     180 deg rotation - cryst. axis [1,1,0]       

 cryst.   s( 6) = (    -1          1          0      )
                  (     0          1          0      )
                  (     0          1         -1      )

 cart.    s( 6) = ( -0.5000000  0.8660254 -0.0000000 )
                  (  0.8660254  0.5000000 -0.0000000 )
                  (  0.0000000  0.0000000 -1.0000000 )


      isym =  7     inversion                                    

 cryst.   s( 7) = (    -1          0          0      )
                  (     0         -1          0      )
                  (     0          0         -1      )

 cart.    s( 7) = ( -1.0000000  0.0000000  0.0000000 )
                  (  0.0000000 -1.0000000  0.0000000 )
                  (  0.0000000  0.0000000 -1.0000000 )


      isym =  8     inv. 180 deg rotation - cart. axis [1,0,0]   

 cryst.   s( 8) = (    -1          0          0      )
                  (    -1          1          0      )
                  (    -1          0          1      )

 cart.    s( 8) = ( -1.0000000  0.0000000 -0.0000000 )
                  (  0.0000000  1.0000000  0.0000000 )
                  (  0.0000000  0.0000000  1.0000000 )


      isym =  9     inv. 120 deg rotation - cryst. axis [0,0,1]  

 cryst.   s( 9) = (     1         -1          0      )
                  (     1          0          0      )
                  (     1          0         -1      )

 cart.    s( 9) = (  0.5000000  0.8660254 -0.0000000 )
                  ( -0.8660254  0.5000000 -0.0000000 )
                  (  0.0000000  0.0000000 -1.0000000 )


      isym = 10     inv. 120 deg rotation - cryst. axis [0,0,-1] 

 cryst.   s(10) = (     0          1          0      )
                  (    -1          1          0      )
                  (     0          1         -1      )

 cart.    s(10) = (  0.5000000 -0.8660254  0.0000000 )
                  (  0.8660254  0.5000000 -0.0000000 )
                  (  0.0000000  0.0000000 -1.0000000 )


      isym = 11     inv. 180 deg rotation - cryst. axis [0,1,0]  

 cryst.   s(11) = (     0          1          0      )
                  (     1          0          0      )
                  (     0          0          1      )

 cart.    s(11) = (  0.5000000  0.8660254 -0.0000000 )
                  (  0.8660254 -0.5000000  0.0000000 )
                  (  0.0000000  0.0000000  1.0000000 )


      isym = 12     inv. 180 deg rotation - cryst. axis [1,1,0]  

 cryst.   s(12) = (     1         -1          0      )
                  (     0         -1          0      )
                  (     0         -1          1      )

 cart.    s(12) = (  0.5000000 -0.8660254  0.0000000 )
                  ( -0.8660254 -0.5000000  0.0000000 )
                  (  0.0000000  0.0000000  1.0000000 )


   Cartesian axes

     site n.     atom                  positions (alat units)
         1           Cs  tau(   1) = (   1.5000000   0.8660254   0.6123724  )
         2           Cs  tau(   2) = (   0.5000000   0.2886751   0.2041241  )
         3           Li  tau(   3) = (   1.0000000   0.5773503   0.4082483  )
         4           Ce  tau(   4) = (   0.0000000   0.0000000   0.0000000  )
         5           Cl  tau(   5) = (   1.0000000   0.2944071   0.2081772  )
         6           Cl  tau(   6) = (   0.7549640   0.4358787   0.6083193  )
         7           Cl  tau(   7) = (   1.0000000   0.8602935   0.6083193  )
         8           Cl  tau(   8) = (   0.7549640   0.7188219   0.2081772  )
         9           Cl  tau(   9) = (   1.2450360   0.4358787   0.6083193  )
        10           Cl  tau(  10) = (   1.2450360   0.7188219   0.2081772  )

   Crystallographic axes

     site n.     atom                  positions (cryst. coord.)
         1           Cs  tau(   1) = (  0.7500000  0.7500000  0.7500000  )
         2           Cs  tau(   2) = (  0.2500000  0.2500000  0.2500000  )
         3           Li  tau(   3) = (  0.5000000  0.5000000  0.5000000  )
         4           Ce  tau(   4) = (  0.0000000  0.0000000  0.0000000  )
         5           Cl  tau(   5) = (  0.7450360  0.2549640  0.2549640  )
         6           Cl  tau(   6) = (  0.2549640  0.2549640  0.7450360  )
         7           Cl  tau(   7) = (  0.2549640  0.7450360  0.7450360  )
         8           Cl  tau(   8) = (  0.2549640  0.7450360  0.2549640  )
         9           Cl  tau(   9) = (  0.7450360  0.2549640  0.7450360  )
        10           Cl  tau(  10) = (  0.7450360  0.7450360  0.2549640  )

     number of k points=     6
                       cart. coord. in units 2pi/alat
        k(    1) = (   0.0000000   0.0000000   0.0000000), wk =   0.0370370
        k(    2) = (   0.0000000   0.0000000   0.4082483), wk =   0.0740741
        k(    3) = (   0.0000000   0.3849002  -0.1360828), wk =   0.2222222
        k(    4) = (   0.0000000   0.3849002   0.2721655), wk =   0.2222222
        k(    5) = (   0.0000000   0.3849002  -0.5443311), wk =   0.2222222
        k(    6) = (   0.3333333  -0.5773503   0.0000000), wk =   0.2222222

                       cryst. coord.
        k(    1) = (   0.0000000   0.0000000   0.0000000), wk =   0.0370370
        k(    2) = (   0.0000000   0.0000000   0.3333333), wk =   0.0740741
        k(    3) = (   0.0000000   0.3333333   0.0000000), wk =   0.2222222
        k(    4) = (   0.0000000   0.3333333   0.3333333), wk =   0.2222222
        k(    5) = (   0.0000000   0.3333333  -0.3333333), wk =   0.2222222
        k(    6) = (   0.3333333  -0.3333333   0.0000000), wk =   0.2222222

     Dense  grid:   133763 G-vectors     FFT dimensions: (  72,  72,  72)

     Smooth grid:    47327 G-vectors     FFT dimensions: (  54,  54,  54)

     Dynamical RAM for                 wfc:       1.44 MB

     Dynamical RAM for     wfc (w. buffer):      10.09 MB

     Dynamical RAM for           str. fact:       2.04 MB

     Dynamical RAM for           local pot:       0.00 MB

     Dynamical RAM for          nlocal pot:       4.17 MB

     Dynamical RAM for                qrad:      11.94 MB

     Dynamical RAM for          rho,v,vnew:       7.33 MB

     Dynamical RAM for               rhoin:       2.44 MB

     Dynamical RAM for            rho*nmix:      16.33 MB

     Dynamical RAM for           G-vectors:       2.00 MB

     Dynamical RAM for          h,s,v(r/c):       0.75 MB

     Dynamical RAM for          <psi|beta>:       0.18 MB

     Dynamical RAM for                 psi:       2.88 MB

     Dynamical RAM for                hpsi:       2.88 MB

     Dynamical RAM for                spsi:       2.88 MB

     Dynamical RAM for      wfcinit/wfcrot:       4.09 MB

     Dynamical RAM for           addusdens:     143.90 MB

     Estimated static dynamical RAM per process >      46.85 MB

     Estimated max dynamical RAM per process >     207.07 MB

     Estimated total dynamical RAM >       1.55 GB
     Generating pointlists ...
     new r_m :   0.2063 (alat units)  2.9783 (a.u.) for type    1
     new r_m :   0.1429 (alat units)  2.0640 (a.u.) for type    2
     new r_m :   0.1487 (alat units)  2.1476 (a.u.) for type    3
     new r_m :   0.1429 (alat units)  2.0640 (a.u.) for type    4

     Initial potential from superposition of free atoms

     starting charge      74.4635, renormalised to      75.0000

     negative rho (up, down):  4.649E-02 4.649E-02
     Starting wfcs are   87 randomized atomic wfcs
     Checking if some PAW data can be deallocated... 
       PAW data deallocated on    7 nodes for type:  3

     total cpu time spent up to now is        2.1 secs

     Self-consistent Calculation

     iteration #  1     ecut=    30.00 Ry     beta= 0.70
     Davidson diagonalization with overlap

---- Real-time Memory Report at c_bands before calling an iterative solver
           368 MiB given to the printing process from OS
             0 MiB allocation reported by mallinfo(arena+hblkhd)
        118715 MiB available memory on the node where the printing process lives
------------------
     ethr =  1.00E-02,  avg # of iterations =  5.3

     Threshold (ethr) on eigenvalues was too large:
     Diagonalizing with lowered threshold

     Davidson diagonalization with overlap

---- Real-time Memory Report at c_bands before calling an iterative solver
           394 MiB given to the printing process from OS
             0 MiB allocation reported by mallinfo(arena+hblkhd)
        118684 MiB available memory on the node where the printing process lives
------------------
     ethr =  5.06E-04,  avg # of iterations =  2.7

     negative rho (up, down):  4.755E-02 4.759E-02

     total cpu time spent up to now is        5.8 secs

     total energy              =    -822.35876586 Ry
     estimated scf accuracy    <       0.37140668 Ry

     total magnetization       =     1.00 Bohr mag/cell
     absolute magnetization    =     1.26 Bohr mag/cell

     iteration #  2     ecut=    30.00 Ry     beta= 0.70
     Davidson diagonalization with overlap

---- Real-time Memory Report at c_bands before calling an iterative solver
           411 MiB given to the printing process from OS
             0 MiB allocation reported by mallinfo(arena+hblkhd)
        118146 MiB available memory on the node where the printing process lives
------------------
     ethr =  4.95E-04,  avg # of iterations =  6.8

     negative rho (up, down):  4.628E-02 4.634E-02

     total cpu time spent up to now is        7.9 secs

     total energy              =    -823.37308539 Ry
     estimated scf accuracy    <       0.29338311 Ry

     total magnetization       =     1.00 Bohr mag/cell
     absolute magnetization    =     1.12 Bohr mag/cell

     iteration #  3     ecut=    30.00 Ry     beta= 0.70
     Davidson diagonalization with overlap

---- Real-time Memory Report at c_bands before calling an iterative solver
           432 MiB given to the printing process from OS
             0 MiB allocation reported by mallinfo(arena+hblkhd)
        118010 MiB available memory on the node where the printing process lives
------------------
     ethr =  3.91E-04,  avg # of iterations =  2.1

     negative rho (up, down):  4.598E-02 4.649E-02

     total cpu time spent up to now is        9.7 secs

     total energy              =    -823.95230193 Ry
     estimated scf accuracy    <       0.04894247 Ry

     total magnetization       =     1.00 Bohr mag/cell
     absolute magnetization    =     1.05 Bohr mag/cell

     iteration #  4     ecut=    30.00 Ry     beta= 0.70
     Davidson diagonalization with overlap

---- Real-time Memory Report at c_bands before calling an iterative solver
           432 MiB given to the printing process from OS
             0 MiB allocation reported by mallinfo(arena+hblkhd)
        118008 MiB available memory on the node where the printing process lives
------------------
     ethr =  6.53E-05,  avg # of iterations = 10.3

     negative rho (up, down):  4.601E-02 4.738E-02

     total cpu time spent up to now is       11.9 secs

     total energy              =    -823.96762100 Ry
     estimated scf accuracy    <       0.00568691 Ry

     total magnetization       =     1.00 Bohr mag/cell
     absolute magnetization    =     1.03 Bohr mag/cell

     iteration #  5     ecut=    30.00 Ry     beta= 0.70
     Davidson diagonalization with overlap

---- Real-time Memory Report at c_bands before calling an iterative solver
           432 MiB given to the printing process from OS
             0 MiB allocation reported by mallinfo(arena+hblkhd)
        118035 MiB available memory on the node where the printing process lives
------------------
     c_bands:  1 eigenvalues not converged
     ethr =  7.58E-06,  avg # of iterations =  9.7

     negative rho (up, down):  4.608E-02 4.836E-02

     total cpu time spent up to now is       14.0 secs

     total energy              =    -823.93117039 Ry
     estimated scf accuracy    <       0.00365486 Ry

     total magnetization       =     1.00 Bohr mag/cell
     absolute magnetization    =     1.03 Bohr mag/cell

     iteration #  6     ecut=    30.00 Ry     beta= 0.70
     Davidson diagonalization with overlap

---- Real-time Memory Report at c_bands before calling an iterative solver
           433 MiB given to the printing process from OS
             0 MiB allocation reported by mallinfo(arena+hblkhd)
        118035 MiB available memory on the node where the printing process lives
------------------
     ethr =  4.87E-06,  avg # of iterations =  4.4

     negative rho (up, down):  4.607E-02 4.853E-02

     total cpu time spent up to now is       15.9 secs

     total energy              =    -823.93493472 Ry
     estimated scf accuracy    <       0.00055548 Ry

     total magnetization       =     1.00 Bohr mag/cell
     absolute magnetization    =     1.09 Bohr mag/cell

     iteration #  7     ecut=    30.00 Ry     beta= 0.70
     Davidson diagonalization with overlap

---- Real-time Memory Report at c_bands before calling an iterative solver
           435 MiB given to the printing process from OS
             0 MiB allocation reported by mallinfo(arena+hblkhd)
        118034 MiB available memory on the node where the printing process lives
------------------
     ethr =  7.41E-07,  avg # of iterations =  5.6

     negative rho (up, down):  4.608E-02 4.836E-02

     total cpu time spent up to now is       17.9 secs

     total energy              =    -823.93535379 Ry
     estimated scf accuracy    <       0.00010085 Ry

     total magnetization       =     1.00 Bohr mag/cell
     absolute magnetization    =     1.12 Bohr mag/cell

     iteration #  8     ecut=    30.00 Ry     beta= 0.70
     Davidson diagonalization with overlap

---- Real-time Memory Report at c_bands before calling an iterative solver
           437 MiB given to the printing process from OS
             0 MiB allocation reported by mallinfo(arena+hblkhd)
        118025 MiB available memory on the node where the printing process lives
------------------
     ethr =  1.34E-07,  avg # of iterations =  3.3

     negative rho (up, down):  4.609E-02 4.842E-02

     total cpu time spent up to now is       19.7 secs

     total energy              =    -823.93537149 Ry
     estimated scf accuracy    <       0.00009019 Ry

     total magnetization       =     1.00 Bohr mag/cell
     absolute magnetization    =     1.12 Bohr mag/cell

     iteration #  9     ecut=    30.00 Ry     beta= 0.70
     Davidson diagonalization with overlap

---- Real-time Memory Report at c_bands before calling an iterative solver
           437 MiB given to the printing process from OS
             0 MiB allocation reported by mallinfo(arena+hblkhd)
        118025 MiB available memory on the node where the printing process lives
------------------
     ethr =  1.20E-07,  avg # of iterations =  1.8

     negative rho (up, down):  4.610E-02 4.846E-02

     total cpu time spent up to now is       21.3 secs

     total energy              =    -823.93538028 Ry
     estimated scf accuracy    <       0.00000677 Ry

     total magnetization       =     1.00 Bohr mag/cell
     absolute magnetization    =     1.13 Bohr mag/cell

     iteration # 10     ecut=    30.00 Ry     beta= 0.70
     Davidson diagonalization with overlap

---- Real-time Memory Report at c_bands before calling an iterative solver
           438 MiB given to the printing process from OS
             0 MiB allocation reported by mallinfo(arena+hblkhd)
        118020 MiB available memory on the node where the printing process lives
------------------
     ethr =  9.02E-09,  avg # of iterations =  3.9

     negative rho (up, down):  4.610E-02 4.847E-02
 
     Magnetic moment per site  (integrated on atomic sphere of radius R)
     atom   1 (R=0.206)  charge=  7.6209  magn=  0.0005
     atom   2 (R=0.206)  charge=  7.6209  magn=  0.0005
     atom   3 (R=0.143)  charge=  2.2447  magn= -0.0009
     atom   4 (R=0.149)  charge=  8.5356  magn=  0.9762
     atom   5 (R=0.143)  charge=  5.8520  magn= -0.0060
     atom   6 (R=0.143)  charge=  5.8520  magn= -0.0060
     atom   7 (R=0.143)  charge=  5.8520  magn= -0.0060
     atom   8 (R=0.143)  charge=  5.8520  magn= -0.0060
     atom   9 (R=0.143)  charge=  5.8520  magn= -0.0060
     atom  10 (R=0.143)  charge=  5.8520  magn= -0.0060

     total cpu time spent up to now is       23.1 secs

     End of self-consistent calculation

 ------ SPIN UP ------------


          k = 0.0000 0.0000 0.0000 (  5961 PWs)   bands (ev):

   -41.7593 -29.9240 -16.9105 -16.8999 -13.1430 -13.1430 -13.1418 -10.7151
   -10.4347 -10.4347 -10.0801 -10.0801 -10.0799  -3.8453  -3.8453  -3.8453
    -3.7417  -3.7417  -3.7417  -0.3147   0.6937   0.6937   0.7301   0.7301
     0.7301   0.7410   0.7410   0.7410   1.5158   1.5158   1.5158   1.7742
     1.7742   1.7742   2.0559   2.0559   2.0559   5.1411   5.6860   5.6863
     5.6863   5.8934   5.8964   5.8964   7.1606   7.1606   7.1608   7.5527
     8.5105   8.5105   9.0388   9.0388   9.0389   9.6686  10.2232  10.2232
    10.3047  10.5268  10.5268  10.5268  11.3042  11.3042  12.2811  12.2811

     occupation numbers 
     1.0000   1.0000   1.0000   1.0000   1.0000   1.0000   1.0000   1.0000
     1.0000   1.0000   1.0000   1.0000   1.0000   1.0000   1.0000   1.0000
     1.0000   1.0000   1.0000   1.0000   1.0000   1.0000   1.0000   1.0000
     1.0000   1.0000   1.0000   1.0000   1.0000   1.0000   1.0000   1.0000
     1.0000   1.0000   1.0000   1.0000   1.0000   1.0000   0.0000   0.0000
     0.0000   0.0000   0.0000   0.0000   0.0000   0.0000   0.0000   0.0000
     0.0000   0.0000   0.0000   0.0000   0.0000   0.0000   0.0000   0.0000
     0.0000   0.0000   0.0000   0.0000   0.0000   0.0000   0.0000   0.0000

          k = 0.0000 0.0000 0.4082 (  5888 PWs)   bands (ev):

   -41.7586 -29.9240 -16.9075 -16.9022 -13.1478 -13.1408 -13.1408 -10.6276
   -10.4933 -10.4933 -10.1848 -10.0191 -10.0191  -3.8003  -3.8003  -3.7480
    -3.7480  -3.7467  -3.6991  -0.0448   0.2794   0.2794   0.4664   0.7363
     0.8523   0.8523   1.2076   1.2076   1.2406   1.3440   1.3440   1.6390
     1.7464   1.7464   1.8483   1.8483   1.9098   5.1441   5.6317   5.6893
     5.6893   5.8886   5.8886   5.9042   7.3192   7.3687   7.3687   8.4015
     9.1348   9.1348   9.2351   9.3689   9.3689   9.9314   9.9314  10.3290
    10.7185  10.7219  10.7219  10.8118  10.8118  10.9390  11.6935  12.3931

     occupation numbers 
     1.0000   1.0000   1.0000   1.0000   1.0000   1.0000   1.0000   1.0000
     1.0000   1.0000   1.0000   1.0000   1.0000   1.0000   1.0000   1.0000
     1.0000   1.0000   1.0000   1.0000   1.0000   1.0000   1.0000   1.0000
     1.0000   1.0000   1.0000   1.0000   1.0000   1.0000   1.0000   1.0000
     1.0000   1.0000   1.0000   1.0000   1.0000   1.0000   0.0000   0.0000
     0.0000   0.0000   0.0000   0.0000   0.0000   0.0000   0.0000   0.0000
     0.0000   0.0000   0.0000   0.0000   0.0000   0.0000   0.0000   0.0000
     0.0000   0.0000   0.0000   0.0000   0.0000   0.0000   0.0000   0.0000

          k = 0.0000 0.3849-0.1361 (  5888 PWs)   bands (ev):

   -41.7586 -29.9240 -16.9075 -16.9022 -13.1489 -13.1408 -13.1397 -10.6276
   -10.4933 -10.4933 -10.1850 -10.0191 -10.0189  -3.8003  -3.8003  -3.7480
    -3.7480  -3.7467  -3.6991  -0.0448   0.2794   0.2795   0.4663   0.7363
     0.8523   0.8523   1.2076   1.2077   1.2406   1.3440   1.3440   1.6390
     1.7464   1.7464   1.8483   1.8483   1.9098   5.1441   5.6319   5.6892
     5.6894   5.8858   5.8884   5.9069   7.3190   7.3686   7.3689   8.4015
     9.1348   9.1348   9.2352   9.3690   9.3690   9.9314   9.9314  10.3290
    10.7185  10.7219  10.7219  10.8118  10.8118  10.9389  11.6934  12.3929

     occupation numbers 
     1.0000   1.0000   1.0000   1.0000   1.0000   1.0000   1.0000   1.0000
     1.0000   1.0000   1.0000   1.0000   1.0000   1.0000   1.0000   1.0000
     1.0000   1.0000   1.0000   1.0000   1.0000   1.0000   1.0000   1.0000
     1.0000   1.0000   1.0000   1.0000   1.0000   1.0000   1.0000   1.0000
     1.0000   1.0000   1.0000   1.0000   1.0000   1.0000   0.0000   0.0000
     0.0000   0.0000   0.0000   0.0000   0.0000   0.0000   0.0000   0.0000
     0.0000   0.0000   0.0000   0.0000   0.0000   0.0000   0.0000   0.0000
     0.0000   0.0000   0.0000   0.0000   0.0000   0.0000   0.0000   0.0000

          k = 0.0000 0.3849 0.2722 (  5926 PWs)   bands (ev):

   -41.7589 -29.9240 -16.9075 -16.9020 -13.1440 -13.1436 -13.1424 -10.6512
   -10.5294 -10.4318 -10.0847 -10.0846 -10.0630  -3.7888  -3.7888  -3.7274
    -3.7217  -3.7217  -3.7190  -0.1904   0.2858   0.4756   0.6884   0.7347
     0.7347   0.9949   0.9949   1.2267   1.3201   1.3711   1.3711   1.4006
     1.5942   1.5942   1.7441   1.7441   2.0461   5.1447   5.6385   5.6699
     5.6699   5.8884   5.8904   5.8990   7.2712   7.5513   7.5515   8.5552
     8.9728   9.2683   9.3328   9.7806  10.0309  10.0309  10.1858  10.2318
    10.4208  10.5844  10.8976  10.8976  11.2680  11.6524  11.9553  11.9555

     occupation numbers 
     1.0000   1.0000   1.0000   1.0000   1.0000   1.0000   1.0000   1.0000
     1.0000   1.0000   1.0000   1.0000   1.0000   1.0000   1.0000   1.0000
     1.0000   1.0000   1.0000   1.0000   1.0000   1.0000   1.0000   1.0000
     1.0000   1.0000   1.0000   1.0000   1.0000   1.0000   1.0000   1.0000
     1.0000   1.0000   1.0000   1.0000   1.0000   1.0000   0.0000   0.0000
     0.0000   0.0000   0.0000   0.0000   0.0000   0.0000   0.0000   0.0000
     0.0000   0.0000   0.0000   0.0000   0.0000   0.0000   0.0000   0.0000
     0.0000   0.0000   0.0000   0.0000   0.0000   0.0000   0.0000   0.0000

          k = 0.0000 0.3849-0.5443 (  5902 PWs)   bands (ev):

   -41.7587 -29.9240 -16.9046 -16.9046 -13.1461 -13.1432 -13.1413 -10.5954
   -10.5421 -10.4924 -10.1156 -10.0822 -10.0213  -3.7622  -3.7477  -3.7418
    -3.7318  -3.7091  -3.7003  -0.0887   0.2799   0.2823   0.6325   0.6453
     0.9666   0.9939   0.9968   1.2701   1.2993   1.3100   1.3752   1.3973
     1.4557   1.6902   1.6976   1.7136   1.8863   5.1458   5.6405   5.6412
     5.6806   5.8847   5.8940   5.8969   7.4093   7.5633   7.5944   9.0291
     9.3678   9.4501   9.5569   9.6821   9.9127  10.1296  10.1852  10.5097
    10.5909  10.6725  10.7163  10.9795  11.2681  11.4100  11.5158  12.0311

     occupation numbers 
     1.0000   1.0000   1.0000   1.0000   1.0000   1.0000   1.0000   1.0000
     1.0000   1.0000   1.0000   1.0000   1.0000   1.0000   1.0000   1.0000
     1.0000   1.0000   1.0000   1.0000   1.0000   1.0000   1.0000   1.0000
     1.0000   1.0000   1.0000   1.0000   1.0000   1.0000   1.0000   1.0000
     1.0000   1.0000   1.0000   1.0000   1.0000   1.0000   0.0000   0.0000
     0.0000   0.0000   0.0000   0.0000   0.0000   0.0000   0.0000   0.0000
     0.0000   0.0000   0.0000   0.0000   0.0000   0.0000   0.0000   0.0000
     0.0000   0.0000   0.0000   0.0000   0.0000   0.0000   0.0000   0.0000

          k = 0.3333-0.5774 0.0000 (  5902 PWs)   bands (ev):

   -41.7587 -29.9240 -16.9046 -16.9046 -13.1468 -13.1434 -13.1404 -10.5954
   -10.5422 -10.4924 -10.1157 -10.0822 -10.0212  -3.7622  -3.7477  -3.7418
    -3.7318  -3.7091  -3.7003  -0.0888   0.2799   0.2823   0.6325   0.6453
     0.9666   0.9939   0.9968   1.2701   1.2993   1.3100   1.3752   1.3973
     1.4557   1.6902   1.6976   1.7136   1.8863   5.1458   5.6405   5.6413
     5.6805   5.8826   5.8954   5.8975   7.4093   7.5631   7.5946   9.0292
     9.3677   9.4501   9.5569   9.6822   9.9127  10.1296  10.1852  10.5097
    10.5909  10.6725  10.7163  10.9795  11.2680  11.4100  11.5158  12.0311

     occupation numbers 
     1.0000   1.0000   1.0000   1.0000   1.0000   1.0000   1.0000   1.0000
     1.0000   1.0000   1.0000   1.0000   1.0000   1.0000   1.0000   1.0000
     1.0000   1.0000   1.0000   1.0000   1.0000   1.0000   1.0000   1.0000
     1.0000   1.0000   1.0000   1.0000   1.0000   1.0000   1.0000   1.0000
     1.0000   1.0000   1.0000   1.0000   1.0000   1.0000   0.0000   0.0000
     0.0000   0.0000   0.0000   0.0000   0.0000   0.0000   0.0000   0.0000
     0.0000   0.0000   0.0000   0.0000   0.0000   0.0000   0.0000   0.0000
     0.0000   0.0000   0.0000   0.0000   0.0000   0.0000   0.0000   0.0000

 ------ SPIN DOWN ----------


          k = 0.0000 0.0000 0.0000 (  5961 PWs)   bands (ev):

   -41.7598 -29.4747 -16.9102 -16.8996 -12.8611 -12.8611 -12.8596 -10.7192
   -10.4422 -10.4422 -10.0297 -10.0297 -10.0294  -3.8449  -3.8449  -3.8449
    -3.7413  -3.7413  -3.7413  -0.3044   0.6884   0.6884   0.7359   0.7359
     0.7359   0.7555   0.7555   0.7556   1.5120   1.5121   1.5121   1.7881
     1.7881   1.7881   2.0498   2.0498   2.0498   6.2113   6.2132   6.2132
     6.2297   6.2297   6.2303   6.9312   7.3677   7.3677   7.3683   7.5634
     8.5086   8.5086   9.0664   9.0664   9.0665   9.7212  10.2295  10.2295
    10.3395  10.5776  10.5776  10.5777  11.3036  11.3036  12.2878  12.2878

     occupation numbers 
     1.0000   1.0000   1.0000   1.0000   1.0000   1.0000   1.0000   1.0000
     1.0000   1.0000   1.0000   1.0000   1.0000   1.0000   1.0000   1.0000
     1.0000   1.0000   1.0000   1.0000   1.0000   1.0000   1.0000   1.0000
     1.0000   1.0000   1.0000   1.0000   1.0000   1.0000   1.0000   1.0000
     1.0000   1.0000   1.0000   1.0000   1.0000   0.0000   0.0000   0.0000
     0.0000   0.0000   0.0000   0.0000   0.0000   0.0000   0.0000   0.0000
     0.0000   0.0000   0.0000   0.0000   0.0000   0.0000   0.0000   0.0000
     0.0000   0.0000   0.0000   0.0000   0.0000   0.0000   0.0000   0.0000

          k = 0.0000 0.0000 0.4082 (  5888 PWs)   bands (ev):

   -41.7591 -29.4747 -16.9072 -16.9019 -12.8680 -12.8580 -12.8580 -10.6304
   -10.5005 -10.5005 -10.1335  -9.9695  -9.9695  -3.8000  -3.8000  -3.7477
    -3.7477  -3.7465  -3.6988  -0.0333   0.2754   0.2754   0.4822   0.7414
     0.8578   0.8578   1.2104   1.2104   1.2496   1.3527   1.3527   1.6350
     1.7610   1.7610   1.8436   1.8436   1.9044   6.1834   6.1995   6.1995
     6.2224   6.2401   6.2401   6.9397   7.5371   7.5857   7.5857   8.4136
     9.1383   9.1383   9.2643   9.3861   9.3861   9.9410   9.9410  10.3700
    10.7492  10.7492  10.7570  10.8205  10.8205  10.9553  11.7048  12.4071

     occupation numbers 
     1.0000   1.0000   1.0000   1.0000   1.0000   1.0000   1.0000   1.0000
     1.0000   1.0000   1.0000   1.0000   1.0000   1.0000   1.0000   1.0000
     1.0000   1.0000   1.0000   1.0000   1.0000   1.0000   1.0000   1.0000
     1.0000   1.0000   1.0000   1.0000   1.0000   1.0000   1.0000   1.0000
     1.0000   1.0000   1.0000   1.0000   1.0000   0.0000   0.0000   0.0000
     0.0000   0.0000   0.0000   0.0000   0.0000   0.0000   0.0000   0.0000
     0.0000   0.0000   0.0000   0.0000   0.0000   0.0000   0.0000   0.0000
     0.0000   0.0000   0.0000   0.0000   0.0000   0.0000   0.0000   0.0000

          k = 0.0000 0.3849-0.1361 (  5888 PWs)   bands (ev):

   -41.7591 -29.4747 -16.9072 -16.9019 -12.8692 -12.8580 -12.8567 -10.6304
   -10.5005 -10.5005 -10.1338  -9.9695  -9.9692  -3.8000  -3.8000  -3.7477
    -3.7477  -3.7465  -3.6988  -0.0333   0.2754   0.2754   0.4821   0.7414
     0.8578   0.8578   1.2104   1.2104   1.2496   1.3527   1.3528   1.6350
     1.7609   1.7610   1.8436   1.8436   1.9044   6.1828   6.1984   6.2001
     6.2242   6.2394   6.2401   6.9397   7.5366   7.5857   7.5863   8.4136
     9.1383   9.1383   9.2643   9.3862   9.3862   9.9410   9.9410  10.3698
    10.7492  10.7493  10.7569  10.8205  10.8205  10.9553  11.7048  12.4071

     occupation numbers 
     1.0000   1.0000   1.0000   1.0000   1.0000   1.0000   1.0000   1.0000
     1.0000   1.0000   1.0000   1.0000   1.0000   1.0000   1.0000   1.0000
     1.0000   1.0000   1.0000   1.0000   1.0000   1.0000   1.0000   1.0000
     1.0000   1.0000   1.0000   1.0000   1.0000   1.0000   1.0000   1.0000
     1.0000   1.0000   1.0000   1.0000   1.0000   0.0000   0.0000   0.0000
     0.0000   0.0000   0.0000   0.0000   0.0000   0.0000   0.0000   0.0000
     0.0000   0.0000   0.0000   0.0000   0.0000   0.0000   0.0000   0.0000
     0.0000   0.0000   0.0000   0.0000   0.0000   0.0000   0.0000   0.0000

          k = 0.0000 0.3849 0.2722 (  5926 PWs)   bands (ev):

   -41.7594 -29.4747 -16.9072 -16.9017 -12.8623 -12.8619 -12.8605 -10.6555
   -10.5351 -10.4393 -10.0340 -10.0338 -10.0137  -3.7886  -3.7886  -3.7271
    -3.7213  -3.7213  -3.7188  -0.1901   0.2923   0.4813   0.6831   0.7479
     0.7479   1.0014   1.0014   1.2295   1.3437   1.3699   1.3699   1.3969
     1.5975   1.5975   1.7490   1.7490   2.0400   6.1865   6.1963   6.1981
     6.2166   6.2285   6.2286   6.9430   7.4961   7.7821   7.7825   8.5638
     8.9747   9.2664   9.3458   9.7866  10.0549  10.0549  10.2273  10.2382
    10.4263  10.5906  10.9224  10.9224  11.2951  11.6518  11.9644  11.9648

     occupation numbers 
     1.0000   1.0000   1.0000   1.0000   1.0000   1.0000   1.0000   1.0000
     1.0000   1.0000   1.0000   1.0000   1.0000   1.0000   1.0000   1.0000
     1.0000   1.0000   1.0000   1.0000   1.0000   1.0000   1.0000   1.0000
     1.0000   1.0000   1.0000   1.0000   1.0000   1.0000   1.0000   1.0000
     1.0000   1.0000   1.0000   1.0000   1.0000   0.0000   0.0000   0.0000
     0.0000   0.0000   0.0000   0.0000   0.0000   0.0000   0.0000   0.0000
     0.0000   0.0000   0.0000   0.0000   0.0000   0.0000   0.0000   0.0000
     0.0000   0.0000   0.0000   0.0000   0.0000   0.0000   0.0000   0.0000

          k = 0.0000 0.3849-0.5443 (  5902 PWs)   bands (ev):

   -41.7592 -29.4747 -16.9043 -16.9043 -12.8655 -12.8614 -12.8587 -10.6007
   -10.5452 -10.4996 -10.0669 -10.0314  -9.9716  -3.7620  -3.7473  -3.7416
    -3.7315  -3.7088  -3.6999  -0.0906   0.2777   0.2917   0.6409   0.6509
     0.9727   1.0030   1.0093   1.2683   1.3056   1.3229   1.3858   1.3985
     1.4530   1.6981   1.7043   1.7092   1.8812   6.1905   6.1931   6.2011
     6.2037   6.2127   6.2377   6.9460   7.6366   7.7999   7.8309   9.0389
     9.3809   9.4612   9.5622   9.6862   9.9113  10.1332  10.1936  10.5217
    10.6195  10.6811  10.7263  11.0010  11.2916  11.4130  11.5278  12.0510

     occupation numbers 
     1.0000   1.0000   1.0000   1.0000   1.0000   1.0000   1.0000   1.0000
     1.0000   1.0000   1.0000   1.0000   1.0000   1.0000   1.0000   1.0000
     1.0000   1.0000   1.0000   1.0000   1.0000   1.0000   1.0000   1.0000
     1.0000   1.0000   1.0000   1.0000   1.0000   1.0000   1.0000   1.0000
     1.0000   1.0000   1.0000   1.0000   1.0000   0.0000   0.0000   0.0000
     0.0000   0.0000   0.0000   0.0000   0.0000   0.0000   0.0000   0.0000
     0.0000   0.0000   0.0000   0.0000   0.0000   0.0000   0.0000   0.0000
     0.0000   0.0000   0.0000   0.0000   0.0000   0.0000   0.0000   0.0000

          k = 0.3333-0.5774 0.0000 (  5902 PWs)   bands (ev):

   -41.7592 -29.4747 -16.9043 -16.9043 -12.8663 -12.8616 -12.8576 -10.6007
   -10.5452 -10.4996 -10.0671 -10.0314  -9.9714  -3.7620  -3.7473  -3.7416
    -3.7315  -3.7089  -3.6999  -0.0906   0.2778   0.2917   0.6409   0.6509
     0.9727   1.0030   1.0092   1.2683   1.3056   1.3229   1.3858   1.3985
     1.4531   1.6981   1.7043   1.7093   1.8812   6.1906   6.1926   6.1996
     6.2055   6.2128   6.2377   6.9460   7.6366   7.7995   7.8313   9.0390
     9.3808   9.4612   9.5623   9.6862   9.9113  10.1332  10.1936  10.5217
    10.6195  10.6811  10.7262  11.0010  11.2916  11.4130  11.5282  12.0535

     occupation numbers 
     1.0000   1.0000   1.0000   1.0000   1.0000   1.0000   1.0000   1.0000
     1.0000   1.0000   1.0000   1.0000   1.0000   1.0000   1.0000   1.0000
     1.0000   1.0000   1.0000   1.0000   1.0000   1.0000   1.0000   1.0000
     1.0000   1.0000   1.0000   1.0000   1.0000   1.0000   1.0000   1.0000
     1.0000   1.0000   1.0000   1.0000   1.0000   0.0000   0.0000   0.0000
     0.0000   0.0000   0.0000   0.0000   0.0000   0.0000   0.0000   0.0000
     0.0000   0.0000   0.0000   0.0000   0.0000   0.0000   0.0000   0.0000
     0.0000   0.0000   0.0000   0.0000   0.0000   0.0000   0.0000   0.0000

     highest occupied, lowest unoccupied level (ev):     5.1458    5.6317

!    total energy              =    -823.93538081 Ry
     estimated scf accuracy    <       0.00000056 Ry

     The total energy is the sum of the following terms:
     one-electron contribution =     -84.98813750 Ry
     hartree contribution      =      71.43760524 Ry
     xc contribution           =    -134.66781219 Ry
     ewald contribution        =    -270.77681783 Ry
     one-center paw contrib.   =    -404.94021853 Ry
      -> PAW hartree energy AE =       0.00000000 Ry
      -> PAW hartree energy PS =       0.00000000 Ry
      -> PAW xc energy AE      =       0.00000000 Ry
      -> PAW xc energy PS      =       0.00000000 Ry
      -> total E_H with PAW    =      71.43760524 Ry
      -> total E_XC with PAW   =    -134.66781219 Ry

     total magnetization       =     1.00 Bohr mag/cell
     absolute magnetization    =     1.13 Bohr mag/cell

     convergence has been achieved in  10 iterations

     Writing all to output data dir bands_nm/myprefix.save/
 
     init_run     :      5.16s CPU      1.66s WALL (       1 calls)
     electrons    :     76.42s CPU     21.07s WALL (       1 calls)

     Called by init_run:
     wfcinit      :      1.68s CPU      0.43s WALL (       1 calls)
     wfcinit:atom :      0.02s CPU      0.01s WALL (       6 calls)
     wfcinit:wfcr :      1.56s CPU      0.40s WALL (       6 calls)
     potinit      :      1.21s CPU      0.45s WALL (       1 calls)
     hinit0       :      0.73s CPU      0.30s WALL (       1 calls)

     Called by electrons:
     c_bands      :     43.12s CPU     11.07s WALL (      11 calls)
     sum_band     :     16.54s CPU      4.43s WALL (      11 calls)
     v_of_rho     :      1.75s CPU      0.46s WALL (      11 calls)
     v_h          :      0.07s CPU      0.02s WALL (      11 calls)
     v_xc         :      1.67s CPU      0.44s WALL (      11 calls)
     newd         :      6.69s CPU      1.81s WALL (      11 calls)
     PAW_pot      :      9.00s CPU      3.57s WALL (      11 calls)
     mix_rho      :      0.42s CPU      0.11s WALL (      11 calls)

     Called by c_bands:
     init_us_2    :      0.28s CPU      0.08s WALL (     138 calls)
     init_us_2:cp :      0.27s CPU      0.08s WALL (     138 calls)
     cegterg      :     39.27s CPU     10.06s WALL (      66 calls)

     Called by sum_band:
     sum_band:wei :      0.01s CPU      0.00s WALL (      11 calls)
     sum_band:loo :      5.87s CPU      1.51s WALL (      11 calls)
     sum_band:buf :      0.10s CPU      0.02s WALL (      66 calls)
     sum_band:ini :      0.14s CPU      0.04s WALL (      66 calls)
     sum_band:cal :      0.99s CPU      0.25s WALL (      66 calls)
     sum_band:bec :      0.03s CPU      0.01s WALL (      66 calls)
     addusdens    :      8.23s CPU      2.28s WALL (      11 calls)
     addusd:skk   :      0.00s CPU      0.00s WALL (      44 calls)
     addusd:dgemm :      2.49s CPU      0.82s WALL (      88 calls)
     addusd:qvan2 :      5.55s CPU      1.41s WALL (      88 calls)

     Called by *egterg:
     cdiaghg      :      5.99s CPU      1.55s WALL (     405 calls)
     cegterg:over :      2.13s CPU      0.49s WALL (     345 calls)
     cegterg:upda :      0.96s CPU      0.30s WALL (     345 calls)
     cegterg:last :      2.43s CPU      0.63s WALL (     135 calls)
     h_psi        :     25.25s CPU      6.53s WALL (     417 calls)
     s_psi        :      2.47s CPU      0.64s WALL (     417 calls)
     g_psi        :      0.04s CPU      0.01s WALL (     345 calls)

     Called by h_psi:
     h_psi:calbec :      2.73s CPU      0.69s WALL (     417 calls)
     vloc_psi     :     20.17s CPU      5.18s WALL (     417 calls)
     add_vuspsi   :      2.27s CPU      0.64s WALL (     417 calls)

     General routines
     calbec       :      3.72s CPU      0.93s WALL (     483 calls)
     fft          :      1.22s CPU      0.34s WALL (     271 calls)
     ffts         :      0.14s CPU      0.04s WALL (      44 calls)
     fftw         :     22.59s CPU      5.48s WALL (   26026 calls)
     interpolate  :      0.17s CPU      0.05s WALL (      22 calls)
 
     Parallel routines

     PAW routines
     PAW_pot      :      9.00s CPU      3.57s WALL (      11 calls)
     PAW_symme    :      0.07s CPU      0.03s WALL (      22 calls)
 
     PWSCF        :   1m22.64s CPU     23.76s WALL

 
   This run was terminated on:  14:10:23  15Jul2023            

=------------------------------------------------------------------------------=
   JOB DONE.
=------------------------------------------------------------------------------=
