
     Program PWSCF v.7.1 starts on 16Jul2023 at 13:18: 7 

     This program is part of the open-source Quantum ESPRESSO suite
     for quantum simulation of materials; please cite
         "P. Giannozzi et al., J. Phys.:Condens. Matter 21 395502 (2009);
         "P. Giannozzi et al., J. Phys.:Condens. Matter 29 465901 (2017);
         "P. Giannozzi et al., J. Chem. Phys. 152 154105 (2020);
          URL http://www.quantum-espresso.org", 
     in publications or presentations arising from this work. More details at
     http://www.quantum-espresso.org/quote

     Parallel version (MPI & OpenMP), running on      32 processor cores
     Number of MPI processes:                 8
     Threads/MPI process:                     4

     MPI processes distributed on     1 nodes
     206980 MiB available memory on the printing compute node when the environment starts
 
     Reading input from espresso_26909.pwi
Warning: card &CELL ignored
Warning: card / ignored

     Current dimensions of program PWSCF are:
     Max number of different atomic species (ntypx) = 10
     Max number of k-points (npk) =  40000
     Max angular momentum in pseudopotentials (lmaxx) =  4
     file Ba.pbe-spn-kjpaw_psl.1.0.0.UPF: wavefunction(s)  5S 6S renormalized
     file In.pbe-dn-rrkjus_psl.0.2.2.UPF: wavefunction(s)  5S renormalized
     file O.pbe-n-kjpaw_psl.0.1.UPF: wavefunction(s)  2P renormalized
     Message from routine setup:
     using ibrav=0 with symmetry is DISCOURAGED, use correct ibrav instead
 
     K-points division:     npool     =       2
     R & G space division:  proc/nbgrp/npool/nimage =       4
     Subspace diagonalization in iterative solution of the eigenvalue problem:
     a serial algorithm will be used

 
     Parallelization info
     --------------------
     sticks:   dense  smooth     PW     G-vecs:    dense   smooth      PW
     Min         311     155     44                29703    10501    1604
     Max         312     156     45                29712    10510    1617
     Sum        1245     621    177               118827    42017    6429
 
     Using Slab Decomposition
 


     bravais-lattice index     =            0
     lattice parameter (alat)  =       8.1031  a.u.
     unit-cell volume          =    1894.8393 (a.u.)^3
     number of atoms/cell      =           14
     number of atomic types    =            4
     number of electrons       =       116.00
     number of Kohn-Sham states=           64
     kinetic-energy cutoff     =      30.0000  Ry
     charge density cutoff     =     240.0000  Ry
     scf convergence threshold =      1.0E-06
     mixing beta               =       0.7000
     number of iterations used =            8  plain     mixing
     Exchange-correlation= SLA  PW   PBX  PBC
                           (   1   4   3   4   0   0   0)

     celldm(1)=   8.103136  celldm(2)=   0.000000  celldm(3)=   0.000000
     celldm(4)=   0.000000  celldm(5)=   0.000000  celldm(6)=   0.000000

     crystal axes: (cart. coord. in units of alat)
               a(1) = (   1.000000   0.000000   0.000000 )  
               a(2) = (   0.000000   1.000000   0.000000 )  
               a(3) = (   0.000000   0.000000   3.561336 )  

     reciprocal axes: (cart. coord. in units 2 pi/alat)
               b(1) = (  1.000000  0.000000  0.000000 )  
               b(2) = (  0.000000  1.000000  0.000000 )  
               b(3) = (  0.000000  0.000000  0.280793 )  


     PseudoPot. # 1 for Ba read from file:
     /lustre07/scratch/pragov/crystal_structure_design/utils/SSSP/Ba.pbe-spn-kjpaw_psl.1.0.0.UPF
     MD5 check sum: c432291d3e53af55f19d5e8866385beb
     Pseudo is Projector augmented-wave + core cor, Zval = 10.0
     Generated using "atomic" code by A. Dal Corso  v.5.1
     Shape of augmentation charge: PSQ
     Using radial grid of 1251 points,  7 beta functions with: 
                l(1) =   0
                l(2) =   0
                l(3) =   0
                l(4) =   1
                l(5) =   1
                l(6) =   2
                l(7) =   2
     Q(r) pseudized with 0 coefficients 


     PseudoPot. # 2 for In read from file:
     /lustre07/scratch/pragov/crystal_structure_design/utils/SSSP/In.pbe-dn-rrkjus_psl.0.2.2.UPF
     MD5 check sum: 25e7c42c3b55b68f4bf926be2e7201a4
     Pseudo is Ultrasoft + core correction, Zval = 13.0
     Generated using "atomic" code by A. Dal Corso  v.5.0.99 svn rev. 10869
     Using radial grid of 1241 points,  6 beta functions with: 
                l(1) =   0
                l(2) =   0
                l(3) =   1
                l(4) =   1
                l(5) =   2
                l(6) =   2
     Q(r) pseudized with 0 coefficients 


     PseudoPot. # 3 for Cl read from file:
     /lustre07/scratch/pragov/crystal_structure_design/utils/SSSP/cl_pbe_v1.4.uspp.F.UPF
     MD5 check sum: fc6f6913ecf08c9257cb748ef0700058
     Pseudo is Ultrasoft + core correction, Zval =  7.0
     Generated by new atomic code, or converted to UPF format
     Using radial grid of  909 points,  6 beta functions with: 
                l(1) =   0
                l(2) =   0
                l(3) =   1
                l(4) =   1
                l(5) =   2
                l(6) =   2
     Q(r) pseudized with  8 coefficients,  rinner =    1.300   1.300   1.300
                                                       1.300   1.300

     PseudoPot. # 4 for O  read from file:
     /lustre07/scratch/pragov/crystal_structure_design/utils/SSSP/O.pbe-n-kjpaw_psl.0.1.UPF
     MD5 check sum: 0234752ac141de4415c5fc33072bef88
     Pseudo is Projector augmented-wave + core cor, Zval =  6.0
     Generated using "atomic" code by A. Dal Corso  v.5.0.99 svn rev. 10869
     Shape of augmentation charge: BESSEL
     Using radial grid of 1095 points,  4 beta functions with: 
                l(1) =   0
                l(2) =   0
                l(3) =   1
                l(4) =   1
     Q(r) pseudized with 0 coefficients 


     atomic species   valence    mass     pseudopotential
        Ba            10.00   137.32700     Ba( 1.00)
        In            13.00   114.81800     In( 1.00)
        Cl             7.00    35.45000     Cl( 1.00)
        O              6.00    15.99900     O ( 1.00)

     16 Sym. Ops., with inversion, found ( 8 have fractional translation)


                                    s                        frac. trans.

      isym =  1     identity                                     

 cryst.   s( 1) = (     1          0          0      )
                  (     0          1          0      )
                  (     0          0          1      )

 cart.    s( 1) = (  1.0000000  0.0000000  0.0000000 )
                  (  0.0000000  1.0000000  0.0000000 )
                  (  0.0000000  0.0000000  1.0000000 )


      isym =  2     180 deg rotation - cart. axis [0,0,1]        

 cryst.   s( 2) = (    -1          0          0      )
                  (     0         -1          0      )
                  (     0          0          1      )

 cart.    s( 2) = ( -1.0000000  0.0000000  0.0000000 )
                  (  0.0000000 -1.0000000  0.0000000 )
                  (  0.0000000  0.0000000  1.0000000 )


      isym =  3     180 deg rotation - cart. axis [0,1,0]        

 cryst.   s( 3) = (    -1          0          0      )    f =(  0.5000000 )
                  (     0          1          0      )       ( -0.5000000 )
                  (     0          0         -1      )       (  0.0000000 )

 cart.    s( 3) = ( -1.0000000  0.0000000  0.0000000 )    f =(  0.5000000 )
                  (  0.0000000  1.0000000  0.0000000 )       ( -0.5000000 )
                  (  0.0000000  0.0000000 -1.0000000 )       (  0.0000000 )


      isym =  4     180 deg rotation - cart. axis [1,0,0]        

 cryst.   s( 4) = (     1          0          0      )    f =(  0.5000000 )
                  (     0         -1          0      )       (  0.5000000 )
                  (     0          0         -1      )       (  0.0000000 )

 cart.    s( 4) = (  1.0000000  0.0000000  0.0000000 )    f =(  0.5000000 )
                  (  0.0000000 -1.0000000  0.0000000 )       (  0.5000000 )
                  (  0.0000000  0.0000000 -1.0000000 )       (  0.0000000 )


      isym =  5     180 deg rotation - cart. axis [1,1,0]        

 cryst.   s( 5) = (     0          1          0      )
                  (     1          0          0      )
                  (     0          0         -1      )

 cart.    s( 5) = (  0.0000000  1.0000000  0.0000000 )
                  (  1.0000000  0.0000000  0.0000000 )
                  (  0.0000000  0.0000000 -1.0000000 )


      isym =  6     180 deg rotation - cart. axis [1,-1,0]       

 cryst.   s( 6) = (     0         -1          0      )
                  (    -1          0          0      )
                  (     0          0         -1      )

 cart.    s( 6) = (  0.0000000 -1.0000000  0.0000000 )
                  ( -1.0000000  0.0000000  0.0000000 )
                  (  0.0000000  0.0000000 -1.0000000 )


      isym =  7      90 deg rotation - cart. axis [0,0,-1]       

 cryst.   s( 7) = (     0         -1          0      )    f =(  0.5000000 )
                  (     1          0          0      )       (  0.5000000 )
                  (     0          0          1      )       (  0.0000000 )

 cart.    s( 7) = (  0.0000000  1.0000000  0.0000000 )    f =(  0.5000000 )
                  ( -1.0000000  0.0000000  0.0000000 )       (  0.5000000 )
                  (  0.0000000  0.0000000  1.0000000 )       (  0.0000000 )


      isym =  8      90 deg rotation - cart. axis [0,0,1]        

 cryst.   s( 8) = (     0          1          0      )    f =(  0.5000000 )
                  (    -1          0          0      )       ( -0.5000000 )
                  (     0          0          1      )       (  0.0000000 )

 cart.    s( 8) = (  0.0000000 -1.0000000  0.0000000 )    f =(  0.5000000 )
                  (  1.0000000  0.0000000  0.0000000 )       ( -0.5000000 )
                  (  0.0000000  0.0000000  1.0000000 )       (  0.0000000 )


      isym =  9     inversion                                    

 cryst.   s( 9) = (    -1          0          0      )    f =(  0.5000000 )
                  (     0         -1          0      )       (  0.5000000 )
                  (     0          0         -1      )       (  0.0000000 )

 cart.    s( 9) = ( -1.0000000  0.0000000  0.0000000 )    f =(  0.5000000 )
                  (  0.0000000 -1.0000000  0.0000000 )       (  0.5000000 )
                  (  0.0000000  0.0000000 -1.0000000 )       (  0.0000000 )


      isym = 10     inv. 180 deg rotation - cart. axis [0,0,1]   

 cryst.   s(10) = (     1          0          0      )    f =(  0.5000000 )
                  (     0          1          0      )       ( -0.5000000 )
                  (     0          0         -1      )       (  0.0000000 )

 cart.    s(10) = (  1.0000000  0.0000000  0.0000000 )    f =(  0.5000000 )
                  (  0.0000000  1.0000000  0.0000000 )       ( -0.5000000 )
                  (  0.0000000  0.0000000 -1.0000000 )       (  0.0000000 )


      isym = 11     inv. 180 deg rotation - cart. axis [0,1,0]   

 cryst.   s(11) = (     1          0          0      )
                  (     0         -1          0      )
                  (     0          0          1      )

 cart.    s(11) = (  1.0000000  0.0000000  0.0000000 )
                  (  0.0000000 -1.0000000  0.0000000 )
                  (  0.0000000  0.0000000  1.0000000 )


      isym = 12     inv. 180 deg rotation - cart. axis [1,0,0]   

 cryst.   s(12) = (    -1          0          0      )
                  (     0          1          0      )
                  (     0          0          1      )

 cart.    s(12) = ( -1.0000000  0.0000000  0.0000000 )
                  (  0.0000000  1.0000000  0.0000000 )
                  (  0.0000000  0.0000000  1.0000000 )


      isym = 13     inv. 180 deg rotation - cart. axis [1,1,0]   

 cryst.   s(13) = (     0         -1          0      )    f =(  0.5000000 )
                  (    -1          0          0      )       (  0.5000000 )
                  (     0          0          1      )       (  0.0000000 )

 cart.    s(13) = (  0.0000000 -1.0000000  0.0000000 )    f =(  0.5000000 )
                  ( -1.0000000  0.0000000  0.0000000 )       (  0.5000000 )
                  (  0.0000000  0.0000000  1.0000000 )       (  0.0000000 )


      isym = 14     inv. 180 deg rotation - cart. axis [1,-1,0]  

 cryst.   s(14) = (     0          1          0      )    f =(  0.5000000 )
                  (     1          0          0      )       ( -0.5000000 )
                  (     0          0          1      )       (  0.0000000 )

 cart.    s(14) = (  0.0000000  1.0000000  0.0000000 )    f =(  0.5000000 )
                  (  1.0000000  0.0000000  0.0000000 )       ( -0.5000000 )
                  (  0.0000000  0.0000000  1.0000000 )       (  0.0000000 )


      isym = 15     inv.  90 deg rotation - cart. axis [0,0,-1]  

 cryst.   s(15) = (     0          1          0      )
                  (    -1          0          0      )
                  (     0          0         -1      )

 cart.    s(15) = (  0.0000000 -1.0000000  0.0000000 )
                  (  1.0000000  0.0000000  0.0000000 )
                  (  0.0000000  0.0000000 -1.0000000 )


      isym = 16     inv.  90 deg rotation - cart. axis [0,0,1]   

 cryst.   s(16) = (     0         -1          0      )
                  (     1          0          0      )
                  (     0          0         -1      )

 cart.    s(16) = (  0.0000000  1.0000000  0.0000000 )
                  ( -1.0000000  0.0000000  0.0000000 )
                  (  0.0000000  0.0000000 -1.0000000 )


   Cartesian axes

     site n.     atom                  positions (alat units)
         1           Ba  tau(   1) = (   0.5000000   0.0000000   0.3375969  )
         2           Ba  tau(   2) = (   0.5000000   0.0000000   1.2552036  )
         3           Ba  tau(   3) = (   0.0000000   0.5000000   2.3061326  )
         4           Ba  tau(   4) = (   0.0000000   0.5000000   3.2237394  )
         5           In  tau(   5) = (   0.5000000   0.0000000   2.8015073  )
         6           In  tau(   6) = (   0.0000000   0.5000000   0.7598289  )
         7           Cl  tau(   7) = (   0.5000000   0.0000000   2.0454820  )
         8           Cl  tau(   8) = (   0.0000000   0.5000000   1.5158543  )
         9           O   tau(   9) = (   0.0000000   0.5000000   0.2660852  )
        10           O   tau(  10) = (   0.0000000   0.0000000   0.8480111  )
        11           O   tau(  11) = (   0.5000000   0.5000000   2.7133251  )
        12           O   tau(  12) = (   0.5000000   0.0000000   3.2952510  )
        13           O   tau(  13) = (   0.0000000   0.0000000   2.7133251  )
        14           O   tau(  14) = (   0.5000000   0.5000000   0.8480111  )

   Crystallographic axes

     site n.     atom                  positions (cryst. coord.)
         1           Ba  tau(   1) = (  0.5000000  0.0000000  0.0947950  )
         2           Ba  tau(   2) = (  0.5000000  0.0000000  0.3524530  )
         3           Ba  tau(   3) = (  0.0000000  0.5000000  0.6475470  )
         4           Ba  tau(   4) = (  0.0000000  0.5000000  0.9052050  )
         5           In  tau(   5) = (  0.5000000  0.0000000  0.7866450  )
         6           In  tau(   6) = (  0.0000000  0.5000000  0.2133550  )
         7           Cl  tau(   7) = (  0.5000000  0.0000000  0.5743580  )
         8           Cl  tau(   8) = (  0.0000000  0.5000000  0.4256420  )
         9           O   tau(   9) = (  0.0000000  0.5000000  0.0747150  )
        10           O   tau(  10) = (  0.0000000  0.0000000  0.2381160  )
        11           O   tau(  11) = (  0.5000000  0.5000000  0.7618840  )
        12           O   tau(  12) = (  0.5000000  0.0000000  0.9252850  )
        13           O   tau(  13) = (  0.0000000  0.0000000  0.7618840  )
        14           O   tau(  14) = (  0.5000000  0.5000000  0.2381160  )

     number of k points=     6
                       cart. coord. in units 2pi/alat
        k(    1) = (   0.0000000   0.0000000   0.0000000), wk =   0.0740741
        k(    2) = (   0.0000000   0.0000000   0.0935978), wk =   0.1481481
        k(    3) = (   0.0000000   0.3333333   0.0000000), wk =   0.2962963
        k(    4) = (   0.0000000   0.3333333   0.0935978), wk =   0.5925926
        k(    5) = (   0.3333333   0.3333333   0.0000000), wk =   0.2962963
        k(    6) = (   0.3333333   0.3333333   0.0935978), wk =   0.5925926

                       cryst. coord.
        k(    1) = (   0.0000000   0.0000000   0.0000000), wk =   0.0740741
        k(    2) = (   0.0000000   0.0000000   0.3333333), wk =   0.1481481
        k(    3) = (   0.0000000   0.3333333   0.0000000), wk =   0.2962963
        k(    4) = (   0.0000000   0.3333333   0.3333333), wk =   0.5925926
        k(    5) = (   0.3333333   0.3333333   0.0000000), wk =   0.2962963
        k(    6) = (   0.3333333   0.3333333   0.3333333), wk =   0.5925926

     Dense  grid:   118827 G-vectors     FFT dimensions: (  40,  40, 144)

     Smooth grid:    42017 G-vectors     FFT dimensions: (  30,  30, 108)

     Dynamical RAM for                 wfc:       1.28 MB

     Dynamical RAM for     wfc (w. buffer):       5.13 MB

     Dynamical RAM for           str. fact:       1.81 MB

     Dynamical RAM for           local pot:       0.00 MB

     Dynamical RAM for          nlocal pot:       3.93 MB

     Dynamical RAM for                qrad:       6.64 MB

     Dynamical RAM for          rho,v,vnew:       2.68 MB

     Dynamical RAM for               rhoin:       0.89 MB

     Dynamical RAM for            rho*nmix:       7.25 MB

     Dynamical RAM for           G-vectors:       1.78 MB

     Dynamical RAM for          h,s,v(r/c):       0.75 MB

     Dynamical RAM for          <psi|beta>:       0.19 MB

     Dynamical RAM for                 psi:       2.57 MB

     Dynamical RAM for                hpsi:       2.57 MB

     Dynamical RAM for                spsi:       2.57 MB

     Dynamical RAM for      wfcinit/wfcrot:       2.92 MB

     Dynamical RAM for           addusdens:      48.04 MB

     Estimated static dynamical RAM per process >      27.32 MB

     Estimated max dynamical RAM per process >      82.62 MB

     Estimated total dynamical RAM >     631.93 MB

     Check: negative core charge=   -0.000006

     Initial potential from superposition of free atoms

     starting charge     115.9245, renormalised to     116.0000

     negative rho (up, down):  3.023E-02 0.000E+00
     Starting wfcs are   70 randomized atomic wfcs
     Checking if some PAW data can be deallocated... 
       PAW data deallocated on    6 nodes for type:  1
       PAW data deallocated on    4 nodes for type:  4

     total cpu time spent up to now is        1.2 secs

     Self-consistent Calculation

     iteration #  1     ecut=    30.00 Ry     beta= 0.70
     Davidson diagonalization with overlap

---- Real-time Memory Report at c_bands before calling an iterative solver
           274 MiB given to the printing process from OS
             0 MiB allocation reported by mallinfo(arena+hblkhd)
        206424 MiB available memory on the node where the printing process lives
------------------
     ethr =  1.00E-02,  avg # of iterations =  5.7

     negative rho (up, down):  3.752E-02 0.000E+00

     total cpu time spent up to now is        1.8 secs

     total energy              =   -2350.25823182 Ry
     estimated scf accuracy    <       3.33406409 Ry

     iteration #  2     ecut=    30.00 Ry     beta= 0.70
     Davidson diagonalization with overlap

---- Real-time Memory Report at c_bands before calling an iterative solver
           301 MiB given to the printing process from OS
             0 MiB allocation reported by mallinfo(arena+hblkhd)
        206105 MiB available memory on the node where the printing process lives
------------------
     ethr =  2.87E-03,  avg # of iterations =  7.8

     negative rho (up, down):  3.575E-02 0.000E+00

     total cpu time spent up to now is        2.7 secs

     total energy              =   -2348.88801313 Ry
     estimated scf accuracy    <      14.78632149 Ry

     iteration #  3     ecut=    30.00 Ry     beta= 0.70
     Davidson diagonalization with overlap

---- Real-time Memory Report at c_bands before calling an iterative solver
           315 MiB given to the printing process from OS
             0 MiB allocation reported by mallinfo(arena+hblkhd)
        206012 MiB available memory on the node where the printing process lives
------------------
     ethr =  2.87E-03,  avg # of iterations =  5.7

     negative rho (up, down):  3.286E-02 0.000E+00

     total cpu time spent up to now is        3.4 secs

     total energy              =   -2350.52060066 Ry
     estimated scf accuracy    <      13.28489014 Ry

     iteration #  4     ecut=    30.00 Ry     beta= 0.70
     Davidson diagonalization with overlap

---- Real-time Memory Report at c_bands before calling an iterative solver
           316 MiB given to the printing process from OS
             0 MiB allocation reported by mallinfo(arena+hblkhd)
        205970 MiB available memory on the node where the printing process lives
------------------
     ethr =  2.87E-03,  avg # of iterations =  2.5

     negative rho (up, down):  3.090E-02 0.000E+00

     total cpu time spent up to now is        4.0 secs

     total energy              =   -2352.03674225 Ry
     estimated scf accuracy    <       0.15963396 Ry

     iteration #  5     ecut=    30.00 Ry     beta= 0.70
     Davidson diagonalization with overlap

---- Real-time Memory Report at c_bands before calling an iterative solver
           316 MiB given to the printing process from OS
             0 MiB allocation reported by mallinfo(arena+hblkhd)
        205923 MiB available memory on the node where the printing process lives
------------------
     ethr =  1.38E-04,  avg # of iterations =  9.7

     negative rho (up, down):  3.048E-02 0.000E+00

     total cpu time spent up to now is        4.8 secs

     total energy              =   -2352.04459944 Ry
     estimated scf accuracy    <       0.04727928 Ry

     iteration #  6     ecut=    30.00 Ry     beta= 0.70
     Davidson diagonalization with overlap

---- Real-time Memory Report at c_bands before calling an iterative solver
           316 MiB given to the printing process from OS
             0 MiB allocation reported by mallinfo(arena+hblkhd)
        205874 MiB available memory on the node where the printing process lives
------------------
     ethr =  4.08E-05,  avg # of iterations =  2.5

     negative rho (up, down):  3.048E-02 0.000E+00

     total cpu time spent up to now is        5.4 secs

     total energy              =   -2352.04693606 Ry
     estimated scf accuracy    <       0.01791006 Ry

     iteration #  7     ecut=    30.00 Ry     beta= 0.70
     Davidson diagonalization with overlap

---- Real-time Memory Report at c_bands before calling an iterative solver
           316 MiB given to the printing process from OS
             0 MiB allocation reported by mallinfo(arena+hblkhd)
        205864 MiB available memory on the node where the printing process lives
------------------
     ethr =  1.54E-05,  avg # of iterations =  4.7

     negative rho (up, down):  3.045E-02 0.000E+00

     total cpu time spent up to now is        6.1 secs

     total energy              =   -2352.04954616 Ry
     estimated scf accuracy    <       0.00255993 Ry

     iteration #  8     ecut=    30.00 Ry     beta= 0.70
     Davidson diagonalization with overlap

---- Real-time Memory Report at c_bands before calling an iterative solver
           319 MiB given to the printing process from OS
             0 MiB allocation reported by mallinfo(arena+hblkhd)
        205753 MiB available memory on the node where the printing process lives
------------------
     ethr =  2.21E-06,  avg # of iterations =  6.8

     negative rho (up, down):  3.042E-02 0.000E+00

     total cpu time spent up to now is        6.8 secs

     total energy              =   -2352.04998242 Ry
     estimated scf accuracy    <       0.00034301 Ry

     iteration #  9     ecut=    30.00 Ry     beta= 0.70
     Davidson diagonalization with overlap

---- Real-time Memory Report at c_bands before calling an iterative solver
           319 MiB given to the printing process from OS
             0 MiB allocation reported by mallinfo(arena+hblkhd)
        204331 MiB available memory on the node where the printing process lives
------------------
     ethr =  2.96E-07,  avg # of iterations =  2.0

     negative rho (up, down):  3.040E-02 0.000E+00

     total cpu time spent up to now is        7.4 secs

     total energy              =   -2352.05001537 Ry
     estimated scf accuracy    <       0.00008969 Ry

     iteration # 10     ecut=    30.00 Ry     beta= 0.70
     Davidson diagonalization with overlap

---- Real-time Memory Report at c_bands before calling an iterative solver
           319 MiB given to the printing process from OS
             0 MiB allocation reported by mallinfo(arena+hblkhd)
        204448 MiB available memory on the node where the printing process lives
------------------
     ethr =  7.73E-08,  avg # of iterations =  2.0

     negative rho (up, down):  3.041E-02 0.000E+00

     total cpu time spent up to now is        8.0 secs

     total energy              =   -2352.05001710 Ry
     estimated scf accuracy    <       0.00004478 Ry

     iteration # 11     ecut=    30.00 Ry     beta= 0.70
     Davidson diagonalization with overlap

---- Real-time Memory Report at c_bands before calling an iterative solver
           319 MiB given to the printing process from OS
             0 MiB allocation reported by mallinfo(arena+hblkhd)
        204445 MiB available memory on the node where the printing process lives
------------------
     ethr =  3.86E-08,  avg # of iterations =  2.0

     negative rho (up, down):  3.041E-02 0.000E+00

     total cpu time spent up to now is        8.6 secs

     total energy              =   -2352.05001591 Ry
     estimated scf accuracy    <       0.00001658 Ry

     iteration # 12     ecut=    30.00 Ry     beta= 0.70
     Davidson diagonalization with overlap

---- Real-time Memory Report at c_bands before calling an iterative solver
           319 MiB given to the printing process from OS
             0 MiB allocation reported by mallinfo(arena+hblkhd)
        204442 MiB available memory on the node where the printing process lives
------------------
     ethr =  1.43E-08,  avg # of iterations =  2.3

     negative rho (up, down):  3.042E-02 0.000E+00

     total cpu time spent up to now is        9.2 secs

     total energy              =   -2352.05001594 Ry
     estimated scf accuracy    <       0.00000431 Ry

     iteration # 13     ecut=    30.00 Ry     beta= 0.70
     Davidson diagonalization with overlap

---- Real-time Memory Report at c_bands before calling an iterative solver
           320 MiB given to the printing process from OS
             0 MiB allocation reported by mallinfo(arena+hblkhd)
        204262 MiB available memory on the node where the printing process lives
------------------
     ethr =  3.72E-09,  avg # of iterations =  3.5

     negative rho (up, down):  3.042E-02 0.000E+00

     total cpu time spent up to now is        9.9 secs

     total energy              =   -2352.05001729 Ry
     estimated scf accuracy    <       0.00000120 Ry

     iteration # 14     ecut=    30.00 Ry     beta= 0.70
     Davidson diagonalization with overlap

---- Real-time Memory Report at c_bands before calling an iterative solver
           320 MiB given to the printing process from OS
             0 MiB allocation reported by mallinfo(arena+hblkhd)
        204164 MiB available memory on the node where the printing process lives
------------------
     ethr =  1.04E-09,  avg # of iterations =  2.0

     negative rho (up, down):  3.042E-02 0.000E+00

     total cpu time spent up to now is       10.4 secs

     End of self-consistent calculation

          k = 0.0000 0.0000 0.0000 (  5183 PWs)   bands (ev):

   -18.2526 -18.1790 -18.1240 -18.1143  -9.3322  -9.3305  -8.9179  -8.9175
    -8.4196  -8.4179  -6.8829  -6.5701  -5.1168  -5.1168  -5.1144  -5.1144
    -4.9960  -4.9960  -4.7727  -4.6782  -3.9994  -3.9990  -3.4294  -3.4294
    -3.3507  -3.3179  -3.3179  -3.2665  -3.2665  -3.1822  -3.1822  -3.1016
    -3.0181  -2.9472   4.2196   4.3140   4.3140   4.3266   4.3266   4.4310
     4.9985   5.0483   5.0483   5.0816   5.5582   5.5582   6.2060   6.2170
     6.4612   6.6425   6.6425   6.7915   6.7915   6.9904   7.0893   7.0893
     7.0965   7.0965   9.3477   9.7003  10.9098  11.8610  11.8676  11.8845

     occupation numbers 
     1.0000   1.0000   1.0000   1.0000   1.0000   1.0000   1.0000   1.0000
     1.0000   1.0000   1.0000   1.0000   1.0000   1.0000   1.0000   1.0000
     1.0000   1.0000   1.0000   1.0000   1.0000   1.0000   1.0000   1.0000
     1.0000   1.0000   1.0000   1.0000   1.0000   1.0000   1.0000   1.0000
     1.0000   1.0000   1.0000   1.0000   1.0000   1.0000   1.0000   1.0000
     1.0000   1.0000   1.0000   1.0000   1.0000   1.0000   1.0000   1.0000
     1.0000   1.0000   1.0000   1.0000   1.0000   1.0000   1.0000   1.0000
     1.0000   1.0000   0.0000   0.0000   0.0000   0.0000   0.0000   0.0000

          k = 0.0000 0.0000 0.0936 (  5186 PWs)   bands (ev):

   -18.2525 -18.1795 -18.1214 -18.1164  -9.3324  -9.3300  -8.9180  -8.9176
    -8.4198  -8.4178  -6.8829  -6.5698  -5.1168  -5.1168  -5.1144  -5.1144
    -4.9960  -4.9960  -4.7661  -4.6861  -3.9993  -3.9991  -3.4275  -3.4275
    -3.3508  -3.3270  -3.3270  -3.2559  -3.2559  -3.1856  -3.1856  -3.0802
    -3.0378  -2.9478   4.1794   4.3044   4.3044   4.3273   4.3273   4.5615
     4.7966   5.0486   5.0486   5.1828   5.5578   5.5578   6.1870   6.2009
     6.5652   6.6441   6.6441   6.7953   6.7953   6.8973   7.0966   7.0966
     7.1032   7.1032   9.4582   9.6440  10.9478  11.5540  11.8762  12.2820

     occupation numbers 
     1.0000   1.0000   1.0000   1.0000   1.0000   1.0000   1.0000   1.0000
     1.0000   1.0000   1.0000   1.0000   1.0000   1.0000   1.0000   1.0000
     1.0000   1.0000   1.0000   1.0000   1.0000   1.0000   1.0000   1.0000
     1.0000   1.0000   1.0000   1.0000   1.0000   1.0000   1.0000   1.0000
     1.0000   1.0000   1.0000   1.0000   1.0000   1.0000   1.0000   1.0000
     1.0000   1.0000   1.0000   1.0000   1.0000   1.0000   1.0000   1.0000
     1.0000   1.0000   1.0000   1.0000   1.0000   1.0000   1.0000   1.0000
     1.0000   1.0000   0.0000   0.0000   0.0000   0.0000   0.0000   0.0000

          k = 0.0000 0.3333 0.0000 (  5276 PWs)   bands (ev):

   -18.2094 -18.1714 -18.0958 -18.0917  -9.2073  -9.1972  -8.7988  -8.7921
    -8.4869  -8.4862  -6.8790  -6.7281  -5.1461  -5.1261  -5.1005  -5.0995
    -5.0467  -5.0462  -4.9372  -4.8692  -4.4808  -4.4788  -3.4148  -3.4130
    -3.3042  -3.2970  -3.2391  -3.2351  -3.2148  -3.1799  -3.1661  -3.0923
    -3.0477  -3.0349   3.5185   3.5754   4.2824   4.4348   4.4602   4.6383
     4.8174   5.0054   5.1545   5.2508   5.4630   5.6823   6.0558   6.1804
     6.3490   6.4083   6.4212   6.4813   6.6614   6.7050   6.7568   6.7569
     6.8188   7.0731  11.4177  11.4675  12.3295  12.7303  12.7420  12.9052

     occupation numbers 
     1.0000   1.0000   1.0000   1.0000   1.0000   1.0000   1.0000   1.0000
     1.0000   1.0000   1.0000   1.0000   1.0000   1.0000   1.0000   1.0000
     1.0000   1.0000   1.0000   1.0000   1.0000   1.0000   1.0000   1.0000
     1.0000   1.0000   1.0000   1.0000   1.0000   1.0000   1.0000   1.0000
     1.0000   1.0000   1.0000   1.0000   1.0000   1.0000   1.0000   1.0000
     1.0000   1.0000   1.0000   1.0000   1.0000   1.0000   1.0000   1.0000
     1.0000   1.0000   1.0000   1.0000   1.0000   1.0000   1.0000   1.0000
     1.0000   1.0000   0.0000   0.0000   0.0000   0.0000   0.0000   0.0000

          k = 0.0000 0.3333 0.0936 (  5261 PWs)   bands (ev):

   -18.2093 -18.1715 -18.0948 -18.0927  -9.2062  -9.1981  -8.7981  -8.7927
    -8.4868  -8.4861  -6.8792  -6.7275  -5.1460  -5.1262  -5.1005  -5.0995
    -5.0467  -5.0462  -4.9339  -4.8722  -4.4859  -4.4738  -3.4227  -3.4095
    -3.3035  -3.2881  -3.2432  -3.2277  -3.2092  -3.1819  -3.1700  -3.1096
    -3.0659  -3.0069   3.5315   3.5720   4.3081   4.4391   4.4592   4.5863
     4.7694   5.0026   5.2271   5.2536   5.4782   5.6341   6.1271   6.2024
     6.3362   6.3415   6.4725   6.4952   6.6641   6.7009   6.7388   6.7494
     6.8241   7.0773  11.4131  11.5241  12.3381  12.6890  12.7770  12.8865

     occupation numbers 
     1.0000   1.0000   1.0000   1.0000   1.0000   1.0000   1.0000   1.0000
     1.0000   1.0000   1.0000   1.0000   1.0000   1.0000   1.0000   1.0000
     1.0000   1.0000   1.0000   1.0000   1.0000   1.0000   1.0000   1.0000
     1.0000   1.0000   1.0000   1.0000   1.0000   1.0000   1.0000   1.0000
     1.0000   1.0000   1.0000   1.0000   1.0000   1.0000   1.0000   1.0000
     1.0000   1.0000   1.0000   1.0000   1.0000   1.0000   1.0000   1.0000
     1.0000   1.0000   1.0000   1.0000   1.0000   1.0000   1.0000   1.0000
     1.0000   1.0000   0.0000   0.0000   0.0000   0.0000   0.0000   0.0000

          k = 0.3333 0.3333 0.0000 (  5244 PWs)   bands (ev):

   -18.1785 -18.1591 -18.0705 -18.0687  -8.9302  -8.9203  -8.8062  -8.8058
    -8.4666  -8.4572  -6.7648  -6.6793  -5.2196  -5.2161  -5.1357  -5.1331
    -5.0979  -5.0862  -4.9144  -4.9068  -4.8856  -4.8400  -3.6219  -3.4990
    -3.4901  -3.4302  -3.4232  -3.3807  -3.3566  -3.3002  -3.2027  -3.1268
    -3.1093  -3.0505   2.0759   2.1044   4.3908   4.6522   4.8505   5.0300
     5.0862   5.4294   5.5406   5.7972   5.9180   6.0501   6.1163   6.2169
     6.4384   6.5146   6.6669   6.6953   6.7721   6.7903   6.9544   7.0279
     7.3207   7.3270  12.0428  12.3442  12.3851  12.4776  12.9052  12.9996

     occupation numbers 
     1.0000   1.0000   1.0000   1.0000   1.0000   1.0000   1.0000   1.0000
     1.0000   1.0000   1.0000   1.0000   1.0000   1.0000   1.0000   1.0000
     1.0000   1.0000   1.0000   1.0000   1.0000   1.0000   1.0000   1.0000
     1.0000   1.0000   1.0000   1.0000   1.0000   1.0000   1.0000   1.0000
     1.0000   1.0000   1.0000   1.0000   1.0000   1.0000   1.0000   1.0000
     1.0000   1.0000   1.0000   1.0000   1.0000   1.0000   1.0000   1.0000
     1.0000   1.0000   1.0000   1.0000   1.0000   1.0000   1.0000   1.0000
     1.0000   1.0000   0.0000   0.0000   0.0000   0.0000   0.0000   0.0000

          k = 0.3333 0.3333 0.0936 (  5259 PWs)   bands (ev):

   -18.1785 -18.1592 -18.0701 -18.0691  -8.9293  -8.9213  -8.8062  -8.8059
    -8.4666  -8.4573  -6.7655  -6.6789  -5.2194  -5.2163  -5.1349  -5.1333
    -5.0963  -5.0872  -4.9144  -4.9070  -4.8836  -4.8425  -3.6208  -3.5124
    -3.4773  -3.4427  -3.4278  -3.3620  -3.3578  -3.3078  -3.1844  -3.1451
    -3.1084  -3.0458   2.0840   2.1002   4.3570   4.6522   4.8099   5.0107
     5.1388   5.4292   5.5735   5.8776   5.9310   6.0484   6.1160   6.1537
     6.4183   6.4896   6.6663   6.7079   6.7748   6.7852   6.9433   7.0185
     7.3145   7.3225  12.0924  12.3222  12.3930  12.5178  12.7223  13.1194

     occupation numbers 
     1.0000   1.0000   1.0000   1.0000   1.0000   1.0000   1.0000   1.0000
     1.0000   1.0000   1.0000   1.0000   1.0000   1.0000   1.0000   1.0000
     1.0000   1.0000   1.0000   1.0000   1.0000   1.0000   1.0000   1.0000
     1.0000   1.0000   1.0000   1.0000   1.0000   1.0000   1.0000   1.0000
     1.0000   1.0000   1.0000   1.0000   1.0000   1.0000   1.0000   1.0000
     1.0000   1.0000   1.0000   1.0000   1.0000   1.0000   1.0000   1.0000
     1.0000   1.0000   1.0000   1.0000   1.0000   1.0000   1.0000   1.0000
     1.0000   1.0000   0.0000   0.0000   0.0000   0.0000   0.0000   0.0000

     highest occupied, lowest unoccupied level (ev):     7.3270    9.3477

!    total energy              =   -2352.05001733 Ry
     estimated scf accuracy    <       0.00000027 Ry

     The total energy is the sum of the following terms:
     one-electron contribution =    -313.91463508 Ry
     hartree contribution      =     237.13515631 Ry
     xc contribution           =    -240.56587287 Ry
     ewald contribution        =    -477.72368951 Ry
     one-center paw contrib.   =   -1556.98097618 Ry
      -> PAW hartree energy AE =      57.45430440 Ry
      -> PAW hartree energy PS =     -57.23152773 Ry
      -> PAW xc energy AE      =    -788.46169441 Ry
      -> PAW xc energy PS      =      38.32726181 Ry
      -> total E_H with PAW    =     237.35793298 Ry
      -> total E_XC with PAW   =    -990.70030546 Ry

     convergence has been achieved in  14 iterations

     Writing all to output data dir bands_nm/myprefix.save/
 
     init_run     :      2.58s CPU      0.78s WALL (       1 calls)
     electrons    :     34.84s CPU      9.32s WALL (       1 calls)

     Called by init_run:
     wfcinit      :      0.47s CPU      0.12s WALL (       1 calls)
     wfcinit:atom :      0.01s CPU      0.00s WALL (       3 calls)
     wfcinit:wfcr :      0.43s CPU      0.11s WALL (       3 calls)
     potinit      :      0.59s CPU      0.16s WALL (       1 calls)
     hinit0       :      1.10s CPU      0.38s WALL (       1 calls)

     Called by electrons:
     c_bands      :     20.29s CPU      5.22s WALL (      14 calls)
     sum_band     :      5.47s CPU      1.68s WALL (      14 calls)
     v_of_rho     :      0.59s CPU      0.15s WALL (      15 calls)
     v_h          :      0.05s CPU      0.01s WALL (      15 calls)
     v_xc         :      0.54s CPU      0.14s WALL (      15 calls)
     newd         :      3.05s CPU      0.84s WALL (      15 calls)
     PAW_pot      :      5.48s CPU      1.41s WALL (      15 calls)
     mix_rho      :      0.19s CPU      0.05s WALL (      14 calls)

     Called by c_bands:
     init_us_2    :      0.16s CPU      0.05s WALL (      87 calls)
     init_us_2:cp :      0.16s CPU      0.05s WALL (      87 calls)
     cegterg      :     18.04s CPU      4.62s WALL (      42 calls)

     Called by sum_band:
     sum_band:wei :      0.00s CPU      0.00s WALL (      14 calls)
     sum_band:loo :      2.34s CPU      0.60s WALL (      14 calls)
     sum_band:buf :      0.06s CPU      0.01s WALL (      42 calls)
     sum_band:ini :      0.08s CPU      0.02s WALL (      42 calls)
     sum_band:cal :      0.58s CPU      0.14s WALL (      42 calls)
     sum_band:bec :      0.01s CPU      0.01s WALL (      42 calls)
     addusdens    :      2.76s CPU      0.99s WALL (      14 calls)
     addusd:skk   :      0.01s CPU      0.00s WALL (      56 calls)
     addusd:dgemm :      0.82s CPU      0.49s WALL (      56 calls)
     addusd:qvan2 :      1.72s CPU      0.44s WALL (      56 calls)

     Called by *egterg:
     cdiaghg      :      3.06s CPU      0.79s WALL (     215 calls)
     cegterg:over :      1.26s CPU      0.29s WALL (     173 calls)
     cegterg:upda :      0.50s CPU      0.16s WALL (     173 calls)
     cegterg:last :      1.40s CPU      0.36s WALL (      89 calls)
     h_psi        :      9.91s CPU      2.57s WALL (     218 calls)
     s_psi        :      1.45s CPU      0.37s WALL (     218 calls)
     g_psi        :      0.02s CPU      0.01s WALL (     173 calls)

     Called by h_psi:
     h_psi:calbec :      1.52s CPU      0.38s WALL (     218 calls)
     vloc_psi     :      7.00s CPU      1.80s WALL (     218 calls)
     add_vuspsi   :      1.36s CPU      0.38s WALL (     218 calls)

     General routines
     calbec       :      2.10s CPU      0.53s WALL (     260 calls)
     fft          :      0.44s CPU      0.13s WALL (     193 calls)
     ffts         :      0.03s CPU      0.01s WALL (      29 calls)
     fftw         :      8.10s CPU      1.91s WALL (   16420 calls)
     interpolate  :      0.07s CPU      0.02s WALL (      15 calls)
 
     Parallel routines

     PAW routines
     PAW_pot      :      5.48s CPU      1.41s WALL (      15 calls)
     PAW_symme    :      0.03s CPU      0.01s WALL (      29 calls)
 
     PWSCF        :     38.62s CPU     11.02s WALL

 
   This run was terminated on:  13:18:18  16Jul2023            

=------------------------------------------------------------------------------=
   JOB DONE.
=------------------------------------------------------------------------------=
