
     Program PWSCF v.7.1 starts on 15Jul2023 at 14:11:10 

     This program is part of the open-source Quantum ESPRESSO suite
     for quantum simulation of materials; please cite
         "P. Giannozzi et al., J. Phys.:Condens. Matter 21 395502 (2009);
         "P. Giannozzi et al., J. Phys.:Condens. Matter 29 465901 (2017);
         "P. Giannozzi et al., J. Chem. Phys. 152 154105 (2020);
          URL http://www.quantum-espresso.org", 
     in publications or presentations arising from this work. More details at
     http://www.quantum-espresso.org/quote

     Parallel version (MPI & OpenMP), running on      32 processor cores
     Number of MPI processes:                 8
     Threads/MPI process:                     4

     MPI processes distributed on     1 nodes
     224474 MiB available memory on the printing compute node when the environment starts
 
     Reading input from espresso_20105.pwi
Warning: card &CELL ignored
Warning: card / ignored

     Current dimensions of program PWSCF are:
     Max number of different atomic species (ntypx) = 10
     Max number of k-points (npk) =  40000
     Max angular momentum in pseudopotentials (lmaxx) =  4
     file Al.pbe-n-kjpaw_psl.1.0.0.UPF: wavefunction(s)  3S 3P renormalized
     file O.pbe-n-kjpaw_psl.0.1.UPF: wavefunction(s)  2P renormalized
     Message from routine setup:
     the system is metallic, specify occupations
 
     K-points division:     npool     =       2
     R & G space division:  proc/nbgrp/npool/nimage =       4
     Subspace diagonalization in iterative solution of the eigenvalue problem:
     a serial algorithm will be used

 
     Parallelization info
     --------------------
     sticks:   dense  smooth     PW     G-vecs:    dense   smooth      PW
     Min         491     245     72                15293     5407     878
     Max         492     246     73                15294     5408     880
     Sum        1967     983    291                61173    21629    3517
 
     Using Slab Decomposition
 


     bravais-lattice index     =            0
     lattice parameter (alat)  =       9.5951  a.u.
     unit-cell volume          =     973.7170 (a.u.)^3
     number of atoms/cell      =           16
     number of atomic types    =            4
     number of electrons       =       105.00 (up:  54.00, down:  51.00)
     number of Kohn-Sham states=           64
     kinetic-energy cutoff     =      30.0000  Ry
     charge density cutoff     =     240.0000  Ry
     scf convergence threshold =      1.0E-06
     mixing beta               =       0.7000
     number of iterations used =            8  plain     mixing
     Exchange-correlation= SLA  PW   PBX  PBC
                           (   1   4   3   4   0   0   0)

     celldm(1)=   9.595093  celldm(2)=   0.000000  celldm(3)=   0.000000
     celldm(4)=   0.000000  celldm(5)=   0.000000  celldm(6)=   0.000000

     crystal axes: (cart. coord. in units of alat)
               a(1) = (   1.000000   0.000000   0.000000 )  
               a(2) = (   0.332544   1.116615   0.000000 )  
               a(3) = (  -0.000021  -0.594707   0.987146 )  

     reciprocal axes: (cart. coord. in units 2 pi/alat)
               b(1) = (  1.000000 -0.297814 -0.179396 )  
               b(2) = (  0.000000  0.895564  0.539533 )  
               b(3) = (  0.000000  0.000000  1.013021 )  


     PseudoPot. # 1 for Li read from file:
     /lustre07/scratch/pragov/crystal_structure_design/utils/SSSP/li_pbe_v1.4.uspp.F.UPF
     MD5 check sum: e912e257baa3777c20ea3d68f190483c
     Pseudo is Ultrasoft, Zval =  3.0
     Generated by new atomic code, or converted to UPF format
     Using radial grid of  751 points,  5 beta functions with: 
                l(1) =   0
                l(2) =   0
                l(3) =   0
                l(4) =   1
                l(5) =   1
     Q(r) pseudized with 10 coefficients,  rinner =    1.150   1.150   1.150


     PseudoPot. # 2 for Al read from file:
     /lustre07/scratch/pragov/crystal_structure_design/utils/SSSP/Al.pbe-n-kjpaw_psl.1.0.0.UPF
     MD5 check sum: cfc449ca30b5f3223ec38ddd88ac046d
     Pseudo is Projector augmented-wave + core cor, Zval =  3.0
     Generated using "atomic" code by A. Dal Corso  v.5.1
     Shape of augmentation charge: PSQ
     Using radial grid of 1135 points,  6 beta functions with: 
                l(1) =   0
                l(2) =   0
                l(3) =   1
                l(4) =   1
                l(5) =   2
                l(6) =   2
     Q(r) pseudized with 0 coefficients 


     PseudoPot. # 3 for Cr read from file:
     /lustre07/scratch/pragov/crystal_structure_design/utils/SSSP/cr_pbe_v1.5.uspp.F.UPF
     MD5 check sum: 0d52af634a40206e4dee301ad30da4bf
     Pseudo is Ultrasoft + core correction, Zval = 14.0
     Generated by new atomic code, or converted to UPF format
     Using radial grid of  857 points,  6 beta functions with: 
                l(1) =   0
                l(2) =   0
                l(3) =   1
                l(4) =   1
                l(5) =   2
                l(6) =   2
     Q(r) pseudized with  8 coefficients,  rinner =    0.950   0.950   0.950
                                                       0.950   0.950

     PseudoPot. # 4 for O  read from file:
     /lustre07/scratch/pragov/crystal_structure_design/utils/SSSP/O.pbe-n-kjpaw_psl.0.1.UPF
     MD5 check sum: 0234752ac141de4415c5fc33072bef88
     Pseudo is Projector augmented-wave + core cor, Zval =  6.0
     Generated using "atomic" code by A. Dal Corso  v.5.0.99 svn rev. 10869
     Shape of augmentation charge: BESSEL
     Using radial grid of 1095 points,  4 beta functions with: 
                l(1) =   0
                l(2) =   0
                l(3) =   1
                l(4) =   1
     Q(r) pseudized with 0 coefficients 


     atomic species   valence    mass     pseudopotential
        Li             3.00     6.94000     Li( 1.00)
        Al             3.00    26.98154     Al( 1.00)
        Cr            14.00    51.99610     Cr( 1.00)
        O              6.00    15.99900     O ( 1.00)

     Starting magnetic structure 
     atomic species   magnetization
        Li           0.000
        Al           0.000
        Cr           0.000
        O            0.000

     No symmetry found


                                    s                        frac. trans.

      isym =  1     identity                                     

 cryst.   s( 1) = (     1          0          0      )
                  (     0          1          0      )
                  (     0          0          1      )

 cart.    s( 1) = (  1.0000000  0.0000000 -0.0000000 )
                  (  0.0000000  1.0000000 -0.0000000 )
                  (  0.0000000  0.0000000  1.0000000 )


   Cartesian axes

     site n.     atom                  positions (alat units)
         1           Li  tau(   1) = (   0.3325940   0.5216111   0.9871149  )
         2           Li  tau(   2) = (   0.9999233  -0.2971739   0.4938329  )
         3           Li  tau(   3) = (   0.4991494  -0.1479326   0.2467876  )
         4           Li  tau(   4) = (   0.8333320   0.6702454   0.7396777  )
         5           Al  tau(   5) = (   0.1662674   0.2605399   0.4942958  )
         6           Cr  tau(   6) = (   0.6662684   0.4091578   0.2475161  )
         7           Cr  tau(   7) = (   0.1662887   0.5572040   0.0019042  )
         8           Cr  tau(   8) = (   0.6662521   0.1144871   0.7367548  )
         9           O   tau(   9) = (   0.8472404   0.0799203   0.3834136  )
        10           O   tau(  10) = (   0.4852921   0.4429312   0.6021021  )
        11           O   tau(  11) = (   0.5008972   0.7455293   0.1111853  )
        12           O   tau(  12) = (   0.8316686  -0.2221863   0.8735664  )
        13           O   tau(  13) = (   0.3274677  -0.0627506   0.6238341  )
        14           O   tau(  14) = (   0.3274764   0.2218919   0.1479960  )
        15           O   tau(  15) = (   1.0050221   0.2970845   0.8406194  )
        16           O   tau(  16) = (   1.0050346   0.5847049   0.3665699  )

   Crystallographic axes

     site n.     atom                  positions (cryst. coord.)
         1           Li  tau(   1) = (  0.0001660  0.9997170  0.9999680  )
         2           Li  tau(   2) = (  0.9998340  0.0003010  0.5002630  )
         3           Li  tau(   3) = (  0.4989330  0.0006670  0.2500010  )
         4           Li  tau(   4) = (  0.5010280  0.9993280  0.7493090  )
         5           Al  tau(   5) = ( -0.0000000  0.5000190  0.5007320  )
         6           Cr  tau(   6) = (  0.5000120  0.4999700  0.2507390  )
         7           Cr  tau(   7) = (  0.0000040  0.5000390  0.0019290  )
         8           Cr  tau(   8) = (  0.4999850  0.5000340  0.7463480  )
         9           O   tau(   9) = (  0.7546560  0.2784380  0.3884060  )
        10           O   tau(  10) = (  0.2453660  0.7215270  0.6099420  )
        11           O   tau(  11) = (  0.2589220  0.7276570  0.1126330  )
        12           O   tau(  12) = (  0.7411240  0.2723360  0.8849410  )
        13           O   tau(  13) = (  0.2342420  0.2803820  0.6319570  )
        14           O   tau(  14) = (  0.2348440  0.2785670  0.1499230  )
        15           O   tau(  15) = (  0.7657420  0.7196000  0.8515650  )
        16           O   tau(  16) = (  0.7651400  0.7214170  0.3713430  )

     number of k points=    14
                       cart. coord. in units 2pi/alat
        k(    1) = (   0.0000000   0.0000000   0.0000000), wk =   0.0370370
        k(    2) = (   0.0000000   0.0000000   0.3376736), wk =   0.0740741
        k(    3) = (   0.0000000   0.2985212   0.1798443), wk =   0.0740741
        k(    4) = (   0.0000000   0.2985212   0.5175180), wk =   0.0740741
        k(    5) = (   0.0000000   0.2985212  -0.1578293), wk =   0.0740741
        k(    6) = (   0.3333333  -0.0992713  -0.0597988), wk =   0.0740741
        k(    7) = (   0.3333333  -0.0992713   0.2778748), wk =   0.0740741
        k(    8) = (   0.3333333  -0.0992713  -0.3974725), wk =   0.0740741
        k(    9) = (   0.3333333   0.1992499   0.1200455), wk =   0.0740741
        k(   10) = (   0.3333333   0.1992499   0.4577191), wk =   0.0740741
        k(   11) = (   0.3333333   0.1992499  -0.2176281), wk =   0.0740741
        k(   12) = (   0.3333333  -0.3977925  -0.2396432), wk =   0.0740741
        k(   13) = (   0.3333333  -0.3977925   0.0980305), wk =   0.0740741
        k(   14) = (   0.3333333  -0.3977925  -0.5773168), wk =   0.0740741

                       cryst. coord.
        k(    1) = (   0.0000000   0.0000000   0.0000000), wk =   0.0370370
        k(    2) = (   0.0000000   0.0000000   0.3333333), wk =   0.0740741
        k(    3) = (   0.0000000   0.3333333   0.0000000), wk =   0.0740741
        k(    4) = (   0.0000000   0.3333333   0.3333333), wk =   0.0740741
        k(    5) = (   0.0000000   0.3333333  -0.3333333), wk =   0.0740741
        k(    6) = (   0.3333333   0.0000000  -0.0000000), wk =   0.0740741
        k(    7) = (   0.3333333   0.0000000   0.3333333), wk =   0.0740741
        k(    8) = (   0.3333333   0.0000000  -0.3333333), wk =   0.0740741
        k(    9) = (   0.3333333   0.3333333  -0.0000000), wk =   0.0740741
        k(   10) = (   0.3333333   0.3333333   0.3333333), wk =   0.0740741
        k(   11) = (   0.3333333   0.3333333  -0.3333333), wk =   0.0740741
        k(   12) = (   0.3333333  -0.3333333   0.0000000), wk =   0.0740741
        k(   13) = (   0.3333333  -0.3333333   0.3333333), wk =   0.0740741
        k(   14) = (   0.3333333  -0.3333333  -0.3333333), wk =   0.0740741

     Dense  grid:    61173 G-vectors     FFT dimensions: (  48,  60,  60)

     Smooth grid:    21629 G-vectors     FFT dimensions: (  36,  40,  40)

     Dynamical RAM for                 wfc:       0.66 MB

     Dynamical RAM for     wfc (w. buffer):       9.89 MB

     Dynamical RAM for           str. fact:       0.93 MB

     Dynamical RAM for           local pot:       0.00 MB

     Dynamical RAM for          nlocal pot:       1.77 MB

     Dynamical RAM for                qrad:       4.98 MB

     Dynamical RAM for          rho,v,vnew:       3.38 MB

     Dynamical RAM for               rhoin:       1.13 MB

     Dynamical RAM for            rho*nmix:       7.47 MB

     Dynamical RAM for           G-vectors:       0.92 MB

     Dynamical RAM for          h,s,v(r/c):       0.75 MB

     Dynamical RAM for          <psi|beta>:       0.17 MB

     Dynamical RAM for                 psi:       1.32 MB

     Dynamical RAM for                hpsi:       1.32 MB

     Dynamical RAM for                spsi:       1.32 MB

     Dynamical RAM for      wfcinit/wfcrot:       1.94 MB

     Dynamical RAM for           addusdens:      22.98 MB

     Estimated static dynamical RAM per process >      26.13 MB

     Estimated max dynamical RAM per process >      56.58 MB

     Estimated total dynamical RAM >     422.80 MB

     Check: negative core charge=   -0.000017
     Generating pointlists ...
     new r_m :   0.1731 (alat units)  1.6605 (a.u.) for type    1
     new r_m :   0.1580 (alat units)  1.5158 (a.u.) for type    2
     new r_m :   0.1644 (alat units)  1.5770 (a.u.) for type    3
     new r_m :   0.1580 (alat units)  1.5158 (a.u.) for type    4

     Initial potential from superposition of free atoms

     starting charge     100.1947, renormalised to     105.0000

     negative rho (up, down):  2.675E-03 2.675E-03
     Starting wfcs are   86 randomized atomic wfcs
     Checking if some PAW data can be deallocated... 
       PAW data deallocated on    7 nodes for type:  2
       PAW data deallocated on    4 nodes for type:  4

     total cpu time spent up to now is        1.4 secs

     Self-consistent Calculation

     iteration #  1     ecut=    30.00 Ry     beta= 0.70
     Davidson diagonalization with overlap

---- Real-time Memory Report at c_bands before calling an iterative solver
           224 MiB given to the printing process from OS
             0 MiB allocation reported by mallinfo(arena+hblkhd)
        224017 MiB available memory on the node where the printing process lives
------------------
     ethr =  1.00E-02,  avg # of iterations =  2.8

     negative rho (up, down):  3.171E-03 4.658E-03

     total cpu time spent up to now is        2.7 secs

     total energy              =    -954.35176765 Ry
     estimated scf accuracy    <       5.78501469 Ry

     total magnetization       =     3.00 Bohr mag/cell
     absolute magnetization    =     3.00 Bohr mag/cell

     iteration #  2     ecut=    30.00 Ry     beta= 0.70
     Davidson diagonalization with overlap

---- Real-time Memory Report at c_bands before calling an iterative solver
           252 MiB given to the printing process from OS
             0 MiB allocation reported by mallinfo(arena+hblkhd)
        223736 MiB available memory on the node where the printing process lives
------------------
     ethr =  5.51E-03,  avg # of iterations =  3.5

     negative rho (up, down):  1.707E-03 2.791E-03

     total cpu time spent up to now is        4.4 secs

     total energy              =    -945.86889581 Ry
     estimated scf accuracy    <     108.67122759 Ry

     total magnetization       =     3.00 Bohr mag/cell
     absolute magnetization    =     3.00 Bohr mag/cell

     iteration #  3     ecut=    30.00 Ry     beta= 0.70
     Davidson diagonalization with overlap

---- Real-time Memory Report at c_bands before calling an iterative solver
           261 MiB given to the printing process from OS
             0 MiB allocation reported by mallinfo(arena+hblkhd)
        223507 MiB available memory on the node where the printing process lives
------------------
     ethr =  5.51E-03,  avg # of iterations =  3.0

     negative rho (up, down):  1.626E-03 2.820E-03

     total cpu time spent up to now is        6.0 secs

     total energy              =    -957.83699137 Ry
     estimated scf accuracy    <       2.63875751 Ry

     total magnetization       =     3.00 Bohr mag/cell
     absolute magnetization    =     3.02 Bohr mag/cell

     iteration #  4     ecut=    30.00 Ry     beta= 0.70
     Davidson diagonalization with overlap

---- Real-time Memory Report at c_bands before calling an iterative solver
           262 MiB given to the printing process from OS
             0 MiB allocation reported by mallinfo(arena+hblkhd)
        223787 MiB available memory on the node where the printing process lives
------------------
     ethr =  2.51E-03,  avg # of iterations =  1.0

     negative rho (up, down):  1.488E-03 3.021E-03

     total cpu time spent up to now is        7.0 secs

     total energy              =    -957.74870477 Ry
     estimated scf accuracy    <      10.23328020 Ry

     total magnetization       =     3.00 Bohr mag/cell
     absolute magnetization    =     3.01 Bohr mag/cell

     iteration #  5     ecut=    30.00 Ry     beta= 0.70
     Davidson diagonalization with overlap

---- Real-time Memory Report at c_bands before calling an iterative solver
           262 MiB given to the printing process from OS
             0 MiB allocation reported by mallinfo(arena+hblkhd)
        223731 MiB available memory on the node where the printing process lives
------------------
     ethr =  2.51E-03,  avg # of iterations =  1.1

     negative rho (up, down):  1.469E-03 3.071E-03

     total cpu time spent up to now is        8.1 secs

     total energy              =    -957.89302461 Ry
     estimated scf accuracy    <       1.33320231 Ry

     total magnetization       =     3.00 Bohr mag/cell
     absolute magnetization    =     3.08 Bohr mag/cell

     iteration #  6     ecut=    30.00 Ry     beta= 0.70
     Davidson diagonalization with overlap

---- Real-time Memory Report at c_bands before calling an iterative solver
           266 MiB given to the printing process from OS
             0 MiB allocation reported by mallinfo(arena+hblkhd)
        223785 MiB available memory on the node where the printing process lives
------------------
     ethr =  1.27E-03,  avg # of iterations =  1.0

     negative rho (up, down):  1.375E-03 3.355E-03

     total cpu time spent up to now is        9.2 secs

     total energy              =    -957.82388118 Ry
     estimated scf accuracy    <       3.18550583 Ry

     total magnetization       =     3.00 Bohr mag/cell
     absolute magnetization    =     3.07 Bohr mag/cell

     iteration #  7     ecut=    30.00 Ry     beta= 0.70
     Davidson diagonalization with overlap

---- Real-time Memory Report at c_bands before calling an iterative solver
           266 MiB given to the printing process from OS
             0 MiB allocation reported by mallinfo(arena+hblkhd)
        223738 MiB available memory on the node where the printing process lives
------------------
     ethr =  1.27E-03,  avg # of iterations =  1.1

     negative rho (up, down):  1.357E-03 3.602E-03

     total cpu time spent up to now is       10.2 secs

     total energy              =    -957.91717304 Ry
     estimated scf accuracy    <       0.13824278 Ry

     total magnetization       =     3.00 Bohr mag/cell
     absolute magnetization    =     3.76 Bohr mag/cell

     iteration #  8     ecut=    30.00 Ry     beta= 0.70
     Davidson diagonalization with overlap

---- Real-time Memory Report at c_bands before calling an iterative solver
           266 MiB given to the printing process from OS
             0 MiB allocation reported by mallinfo(arena+hblkhd)
        223628 MiB available memory on the node where the printing process lives
------------------
     ethr =  1.32E-04,  avg # of iterations =  2.0

     negative rho (up, down):  1.360E-03 3.531E-03

     total cpu time spent up to now is       11.4 secs

     total energy              =    -957.91486802 Ry
     estimated scf accuracy    <       0.06331296 Ry

     total magnetization       =     3.00 Bohr mag/cell
     absolute magnetization    =     4.35 Bohr mag/cell

     iteration #  9     ecut=    30.00 Ry     beta= 0.70
     Davidson diagonalization with overlap

---- Real-time Memory Report at c_bands before calling an iterative solver
           266 MiB given to the printing process from OS
             0 MiB allocation reported by mallinfo(arena+hblkhd)
        223575 MiB available memory on the node where the printing process lives
------------------
     ethr =  6.03E-05,  avg # of iterations =  1.0

     negative rho (up, down):  1.358E-03 3.519E-03

     total cpu time spent up to now is       12.4 secs

     total energy              =    -957.89819019 Ry
     estimated scf accuracy    <       0.07045402 Ry

     total magnetization       =     3.00 Bohr mag/cell
     absolute magnetization    =     4.00 Bohr mag/cell

     iteration # 10     ecut=    30.00 Ry     beta= 0.70
     Davidson diagonalization with overlap

---- Real-time Memory Report at c_bands before calling an iterative solver
           266 MiB given to the printing process from OS
             0 MiB allocation reported by mallinfo(arena+hblkhd)
        225568 MiB available memory on the node where the printing process lives
------------------
     ethr =  6.03E-05,  avg # of iterations =  1.0

     negative rho (up, down):  1.347E-03 3.823E-03

     total cpu time spent up to now is       13.5 secs

     total energy              =    -957.91364123 Ry
     estimated scf accuracy    <       0.03548348 Ry

     total magnetization       =     3.00 Bohr mag/cell
     absolute magnetization    =     3.28 Bohr mag/cell

     iteration # 11     ecut=    30.00 Ry     beta= 0.70
     Davidson diagonalization with overlap

---- Real-time Memory Report at c_bands before calling an iterative solver
           266 MiB given to the printing process from OS
             0 MiB allocation reported by mallinfo(arena+hblkhd)
        225734 MiB available memory on the node where the printing process lives
------------------
     ethr =  3.38E-05,  avg # of iterations =  1.5

     negative rho (up, down):  1.319E-03 4.148E-03

     total cpu time spent up to now is       14.6 secs

     total energy              =    -957.92383984 Ry
     estimated scf accuracy    <       0.13261607 Ry

     total magnetization       =     3.00 Bohr mag/cell
     absolute magnetization    =     3.52 Bohr mag/cell

     iteration # 12     ecut=    30.00 Ry     beta= 0.70
     Davidson diagonalization with overlap

---- Real-time Memory Report at c_bands before calling an iterative solver
           267 MiB given to the printing process from OS
             0 MiB allocation reported by mallinfo(arena+hblkhd)
        225726 MiB available memory on the node where the printing process lives
------------------
     ethr =  3.38E-05,  avg # of iterations =  2.0

     negative rho (up, down):  1.321E-03 4.151E-03

     total cpu time spent up to now is       15.8 secs

     total energy              =    -957.92930999 Ry
     estimated scf accuracy    <       0.06502207 Ry

     total magnetization       =     3.00 Bohr mag/cell
     absolute magnetization    =     3.92 Bohr mag/cell

     iteration # 13     ecut=    30.00 Ry     beta= 0.70
     Davidson diagonalization with overlap

---- Real-time Memory Report at c_bands before calling an iterative solver
           267 MiB given to the printing process from OS
             0 MiB allocation reported by mallinfo(arena+hblkhd)
        225718 MiB available memory on the node where the printing process lives
------------------
     ethr =  3.38E-05,  avg # of iterations =  1.0

     negative rho (up, down):  1.325E-03 4.105E-03

     total cpu time spent up to now is       16.9 secs

     total energy              =    -957.92097473 Ry
     estimated scf accuracy    <       0.04340625 Ry

     total magnetization       =     3.00 Bohr mag/cell
     absolute magnetization    =     3.96 Bohr mag/cell

     iteration # 14     ecut=    30.00 Ry     beta= 0.70
     Davidson diagonalization with overlap

---- Real-time Memory Report at c_bands before calling an iterative solver
           267 MiB given to the printing process from OS
             0 MiB allocation reported by mallinfo(arena+hblkhd)
        225636 MiB available memory on the node where the printing process lives
------------------
     ethr =  3.38E-05,  avg # of iterations =  1.0

     negative rho (up, down):  1.324E-03 4.059E-03

     total cpu time spent up to now is       17.9 secs

     total energy              =    -957.91542953 Ry
     estimated scf accuracy    <       0.09228241 Ry

     total magnetization       =     3.00 Bohr mag/cell
     absolute magnetization    =     3.79 Bohr mag/cell

     iteration # 15     ecut=    30.00 Ry     beta= 0.70
     Davidson diagonalization with overlap

---- Real-time Memory Report at c_bands before calling an iterative solver
           267 MiB given to the printing process from OS
             0 MiB allocation reported by mallinfo(arena+hblkhd)
        225655 MiB available memory on the node where the printing process lives
------------------
     ethr =  3.38E-05,  avg # of iterations =  1.0

     negative rho (up, down):  1.326E-03 4.112E-03

     total cpu time spent up to now is       19.0 secs

     total energy              =    -957.91923860 Ry
     estimated scf accuracy    <       0.02525973 Ry

     total magnetization       =     3.00 Bohr mag/cell
     absolute magnetization    =     3.45 Bohr mag/cell

     iteration # 16     ecut=    30.00 Ry     beta= 0.70
     Davidson diagonalization with overlap

---- Real-time Memory Report at c_bands before calling an iterative solver
           267 MiB given to the printing process from OS
             0 MiB allocation reported by mallinfo(arena+hblkhd)
        225625 MiB available memory on the node where the printing process lives
------------------
     ethr =  2.41E-05,  avg # of iterations =  2.0

     negative rho (up, down):  1.317E-03 4.171E-03

     total cpu time spent up to now is       20.2 secs

     total energy              =    -957.90811150 Ry
     estimated scf accuracy    <       0.30412136 Ry

     total magnetization       =     3.00 Bohr mag/cell
     absolute magnetization    =     3.57 Bohr mag/cell

     iteration # 17     ecut=    30.00 Ry     beta= 0.70
     Davidson diagonalization with overlap

---- Real-time Memory Report at c_bands before calling an iterative solver
           267 MiB given to the printing process from OS
             0 MiB allocation reported by mallinfo(arena+hblkhd)
        225514 MiB available memory on the node where the printing process lives
------------------
     ethr =  2.41E-05,  avg # of iterations =  2.0

     negative rho (up, down):  1.301E-03 4.161E-03

     total cpu time spent up to now is       22.2 secs

     total energy              =    -957.90761366 Ry
     estimated scf accuracy    <       0.11113301 Ry

     total magnetization       =     3.00 Bohr mag/cell
     absolute magnetization    =     3.58 Bohr mag/cell

     iteration # 18     ecut=    30.00 Ry     beta= 0.70
     Davidson diagonalization with overlap

---- Real-time Memory Report at c_bands before calling an iterative solver
           267 MiB given to the printing process from OS
             0 MiB allocation reported by mallinfo(arena+hblkhd)
        224301 MiB available memory on the node where the printing process lives
------------------
     ethr =  2.41E-05,  avg # of iterations =  2.0

     negative rho (up, down):  1.299E-03 4.087E-03

     total cpu time spent up to now is       23.3 secs

     total energy              =    -957.91673382 Ry
     estimated scf accuracy    <       0.03281912 Ry

     total magnetization       =     3.00 Bohr mag/cell
     absolute magnetization    =     3.57 Bohr mag/cell

     iteration # 19     ecut=    30.00 Ry     beta= 0.70
     Davidson diagonalization with overlap

---- Real-time Memory Report at c_bands before calling an iterative solver
           267 MiB given to the printing process from OS
             0 MiB allocation reported by mallinfo(arena+hblkhd)
        224229 MiB available memory on the node where the printing process lives
------------------
     ethr =  2.41E-05,  avg # of iterations =  1.0

     negative rho (up, down):  1.292E-03 4.087E-03

     total cpu time spent up to now is       24.4 secs

     total energy              =    -957.91945399 Ry
     estimated scf accuracy    <       0.00347165 Ry

     total magnetization       =     3.00 Bohr mag/cell
     absolute magnetization    =     3.57 Bohr mag/cell

     iteration # 20     ecut=    30.00 Ry     beta= 0.70
     Davidson diagonalization with overlap

---- Real-time Memory Report at c_bands before calling an iterative solver
           267 MiB given to the printing process from OS
             0 MiB allocation reported by mallinfo(arena+hblkhd)
        224226 MiB available memory on the node where the printing process lives
------------------
     ethr =  3.31E-06,  avg # of iterations =  1.0

     negative rho (up, down):  1.287E-03 4.095E-03

     total cpu time spent up to now is       25.4 secs

     total energy              =    -957.92032762 Ry
     estimated scf accuracy    <       0.00180858 Ry

     total magnetization       =     3.00 Bohr mag/cell
     absolute magnetization    =     3.65 Bohr mag/cell

     iteration # 21     ecut=    30.00 Ry     beta= 0.70
     Davidson diagonalization with overlap

---- Real-time Memory Report at c_bands before calling an iterative solver
           267 MiB given to the printing process from OS
             0 MiB allocation reported by mallinfo(arena+hblkhd)
        224220 MiB available memory on the node where the printing process lives
------------------
     ethr =  1.72E-06,  avg # of iterations =  1.1

     negative rho (up, down):  1.284E-03 4.095E-03

     total cpu time spent up to now is       26.5 secs

     total energy              =    -957.92085918 Ry
     estimated scf accuracy    <       0.00297501 Ry

     total magnetization       =     3.00 Bohr mag/cell
     absolute magnetization    =     3.70 Bohr mag/cell

     iteration # 22     ecut=    30.00 Ry     beta= 0.70
     Davidson diagonalization with overlap

---- Real-time Memory Report at c_bands before calling an iterative solver
           267 MiB given to the printing process from OS
             0 MiB allocation reported by mallinfo(arena+hblkhd)
        225592 MiB available memory on the node where the printing process lives
------------------
     ethr =  1.72E-06,  avg # of iterations =  1.0

     negative rho (up, down):  1.287E-03 4.094E-03

     total cpu time spent up to now is       27.5 secs

     total energy              =    -957.92036488 Ry
     estimated scf accuracy    <       0.00217126 Ry

     total magnetization       =     3.00 Bohr mag/cell
     absolute magnetization    =     3.73 Bohr mag/cell

     iteration # 23     ecut=    30.00 Ry     beta= 0.70
     Davidson diagonalization with overlap

---- Real-time Memory Report at c_bands before calling an iterative solver
           267 MiB given to the printing process from OS
             0 MiB allocation reported by mallinfo(arena+hblkhd)
        225744 MiB available memory on the node where the printing process lives
------------------
     ethr =  1.72E-06,  avg # of iterations =  1.0

     negative rho (up, down):  1.287E-03 4.089E-03

     total cpu time spent up to now is       28.6 secs

     total energy              =    -957.92036157 Ry
     estimated scf accuracy    <       0.00237340 Ry

     total magnetization       =     3.00 Bohr mag/cell
     absolute magnetization    =     3.71 Bohr mag/cell

     iteration # 24     ecut=    30.00 Ry     beta= 0.70
     Davidson diagonalization with overlap

---- Real-time Memory Report at c_bands before calling an iterative solver
           267 MiB given to the printing process from OS
             0 MiB allocation reported by mallinfo(arena+hblkhd)
        225760 MiB available memory on the node where the printing process lives
------------------
     ethr =  1.72E-06,  avg # of iterations =  1.0

     negative rho (up, down):  1.285E-03 4.101E-03

     total cpu time spent up to now is       29.7 secs

     total energy              =    -957.91956408 Ry
     estimated scf accuracy    <       0.00194808 Ry

     total magnetization       =     3.00 Bohr mag/cell
     absolute magnetization    =     3.71 Bohr mag/cell

     iteration # 25     ecut=    30.00 Ry     beta= 0.70
     Davidson diagonalization with overlap

---- Real-time Memory Report at c_bands before calling an iterative solver
           267 MiB given to the printing process from OS
             0 MiB allocation reported by mallinfo(arena+hblkhd)
        225689 MiB available memory on the node where the printing process lives
------------------
     ethr =  1.72E-06,  avg # of iterations =  1.0

     negative rho (up, down):  1.285E-03 4.101E-03

     total cpu time spent up to now is       30.7 secs

     total energy              =    -957.92005174 Ry
     estimated scf accuracy    <       0.00216743 Ry

     total magnetization       =     3.00 Bohr mag/cell
     absolute magnetization    =     3.65 Bohr mag/cell

     iteration # 26     ecut=    30.00 Ry     beta= 0.70
     Davidson diagonalization with overlap

---- Real-time Memory Report at c_bands before calling an iterative solver
           267 MiB given to the printing process from OS
             0 MiB allocation reported by mallinfo(arena+hblkhd)
        225627 MiB available memory on the node where the printing process lives
------------------
     ethr =  1.72E-06,  avg # of iterations =  2.0

     negative rho (up, down):  1.286E-03 4.106E-03

     total cpu time spent up to now is       31.9 secs

     total energy              =    -957.91950435 Ry
     estimated scf accuracy    <       0.02124253 Ry

     total magnetization       =     3.00 Bohr mag/cell
     absolute magnetization    =     3.66 Bohr mag/cell

     iteration # 27     ecut=    30.00 Ry     beta= 0.70
     Davidson diagonalization with overlap

---- Real-time Memory Report at c_bands before calling an iterative solver
           267 MiB given to the printing process from OS
             0 MiB allocation reported by mallinfo(arena+hblkhd)
        225693 MiB available memory on the node where the printing process lives
------------------
     ethr =  1.72E-06,  avg # of iterations =  1.4

     negative rho (up, down):  1.289E-03 4.098E-03

     total cpu time spent up to now is       33.0 secs

     total energy              =    -957.91988472 Ry
     estimated scf accuracy    <       0.00110958 Ry

     total magnetization       =     3.00 Bohr mag/cell
     absolute magnetization    =     3.68 Bohr mag/cell

     iteration # 28     ecut=    30.00 Ry     beta= 0.70
     Davidson diagonalization with overlap

---- Real-time Memory Report at c_bands before calling an iterative solver
           267 MiB given to the printing process from OS
             0 MiB allocation reported by mallinfo(arena+hblkhd)
        225680 MiB available memory on the node where the printing process lives
------------------
     ethr =  1.06E-06,  avg # of iterations =  1.1

     negative rho (up, down):  1.284E-03 4.113E-03

     total cpu time spent up to now is       34.0 secs

     total energy              =    -957.92114693 Ry
     estimated scf accuracy    <       0.00133379 Ry

     total magnetization       =     3.00 Bohr mag/cell
     absolute magnetization    =     3.67 Bohr mag/cell

     iteration # 29     ecut=    30.00 Ry     beta= 0.70
     Davidson diagonalization with overlap

---- Real-time Memory Report at c_bands before calling an iterative solver
           267 MiB given to the printing process from OS
             0 MiB allocation reported by mallinfo(arena+hblkhd)
        225617 MiB available memory on the node where the printing process lives
------------------
     ethr =  1.06E-06,  avg # of iterations =  2.0

     negative rho (up, down):  1.283E-03 4.116E-03

     total cpu time spent up to now is       35.2 secs

     total energy              =    -957.92216649 Ry
     estimated scf accuracy    <       0.00158098 Ry

     total magnetization       =     3.00 Bohr mag/cell
     absolute magnetization    =     3.76 Bohr mag/cell

     iteration # 30     ecut=    30.00 Ry     beta= 0.70
     Davidson diagonalization with overlap

---- Real-time Memory Report at c_bands before calling an iterative solver
           267 MiB given to the printing process from OS
             0 MiB allocation reported by mallinfo(arena+hblkhd)
        225570 MiB available memory on the node where the printing process lives
------------------
     ethr =  1.06E-06,  avg # of iterations =  1.0

     negative rho (up, down):  1.285E-03 4.109E-03

     total cpu time spent up to now is       36.3 secs

     total energy              =    -957.92127356 Ry
     estimated scf accuracy    <       0.00175511 Ry

     total magnetization       =     3.00 Bohr mag/cell
     absolute magnetization    =     3.79 Bohr mag/cell

     iteration # 31     ecut=    30.00 Ry     beta= 0.70
     Davidson diagonalization with overlap

---- Real-time Memory Report at c_bands before calling an iterative solver
           267 MiB given to the printing process from OS
             0 MiB allocation reported by mallinfo(arena+hblkhd)
        224289 MiB available memory on the node where the printing process lives
------------------
     ethr =  1.06E-06,  avg # of iterations =  1.0

     negative rho (up, down):  1.284E-03 4.095E-03

     total cpu time spent up to now is       37.4 secs

     total energy              =    -957.92036858 Ry
     estimated scf accuracy    <       0.00231459 Ry

     total magnetization       =     3.00 Bohr mag/cell
     absolute magnetization    =     3.76 Bohr mag/cell

     iteration # 32     ecut=    30.00 Ry     beta= 0.70
     Davidson diagonalization with overlap

---- Real-time Memory Report at c_bands before calling an iterative solver
           267 MiB given to the printing process from OS
             0 MiB allocation reported by mallinfo(arena+hblkhd)
        224008 MiB available memory on the node where the printing process lives
------------------
     ethr =  1.06E-06,  avg # of iterations =  1.0

     negative rho (up, down):  1.284E-03 4.085E-03

     total cpu time spent up to now is       38.4 secs

     total energy              =    -957.92120101 Ry
     estimated scf accuracy    <       0.00117595 Ry

     total magnetization       =     3.00 Bohr mag/cell
     absolute magnetization    =     3.73 Bohr mag/cell

     iteration # 33     ecut=    30.00 Ry     beta= 0.70
     Davidson diagonalization with overlap

---- Real-time Memory Report at c_bands before calling an iterative solver
           267 MiB given to the printing process from OS
             0 MiB allocation reported by mallinfo(arena+hblkhd)
        223848 MiB available memory on the node where the printing process lives
------------------
     ethr =  1.06E-06,  avg # of iterations =  1.0

     negative rho (up, down):  1.281E-03 4.077E-03

     total cpu time spent up to now is       39.5 secs

     total energy              =    -957.92203820 Ry
     estimated scf accuracy    <       0.00114825 Ry

     total magnetization       =     3.00 Bohr mag/cell
     absolute magnetization    =     3.76 Bohr mag/cell

     iteration # 34     ecut=    30.00 Ry     beta= 0.70
     Davidson diagonalization with overlap

---- Real-time Memory Report at c_bands before calling an iterative solver
           267 MiB given to the printing process from OS
             0 MiB allocation reported by mallinfo(arena+hblkhd)
        223617 MiB available memory on the node where the printing process lives
------------------
     ethr =  1.06E-06,  avg # of iterations =  1.6

     negative rho (up, down):  1.281E-03 4.075E-03

     total cpu time spent up to now is       40.6 secs

     total energy              =    -957.92223157 Ry
     estimated scf accuracy    <       0.00151391 Ry

     total magnetization       =     3.00 Bohr mag/cell
     absolute magnetization    =     3.81 Bohr mag/cell

     iteration # 35     ecut=    30.00 Ry     beta= 0.70
     Davidson diagonalization with overlap

---- Real-time Memory Report at c_bands before calling an iterative solver
           267 MiB given to the printing process from OS
             0 MiB allocation reported by mallinfo(arena+hblkhd)
        223500 MiB available memory on the node where the printing process lives
------------------
     ethr =  1.06E-06,  avg # of iterations =  1.0

     negative rho (up, down):  1.278E-03 4.059E-03

     total cpu time spent up to now is       41.6 secs

     total energy              =    -957.92311485 Ry
     estimated scf accuracy    <       0.00154428 Ry

     total magnetization       =     3.00 Bohr mag/cell
     absolute magnetization    =     3.83 Bohr mag/cell

     iteration # 36     ecut=    30.00 Ry     beta= 0.70
     Davidson diagonalization with overlap

---- Real-time Memory Report at c_bands before calling an iterative solver
           267 MiB given to the printing process from OS
             0 MiB allocation reported by mallinfo(arena+hblkhd)
        223655 MiB available memory on the node where the printing process lives
------------------
     ethr =  1.06E-06,  avg # of iterations =  2.0

     negative rho (up, down):  1.277E-03 4.056E-03

     total cpu time spent up to now is       42.8 secs

     total energy              =    -957.92358645 Ry
     estimated scf accuracy    <       0.01443770 Ry

     total magnetization       =     3.00 Bohr mag/cell
     absolute magnetization    =     4.00 Bohr mag/cell

     iteration # 37     ecut=    30.00 Ry     beta= 0.70
     Davidson diagonalization with overlap

---- Real-time Memory Report at c_bands before calling an iterative solver
           267 MiB given to the printing process from OS
             0 MiB allocation reported by mallinfo(arena+hblkhd)
        223759 MiB available memory on the node where the printing process lives
------------------
     ethr =  1.06E-06,  avg # of iterations =  1.0

     negative rho (up, down):  1.278E-03 4.082E-03

     total cpu time spent up to now is       43.9 secs

     total energy              =    -957.92216020 Ry
     estimated scf accuracy    <       0.00305266 Ry

     total magnetization       =     3.00 Bohr mag/cell
     absolute magnetization    =     4.01 Bohr mag/cell

     iteration # 38     ecut=    30.00 Ry     beta= 0.70
     Davidson diagonalization with overlap

---- Real-time Memory Report at c_bands before calling an iterative solver
           267 MiB given to the printing process from OS
             0 MiB allocation reported by mallinfo(arena+hblkhd)
        223734 MiB available memory on the node where the printing process lives
------------------
     ethr =  1.06E-06,  avg # of iterations =  1.4

     negative rho (up, down):  1.277E-03 4.082E-03

     total cpu time spent up to now is       45.0 secs

     total energy              =    -957.92347746 Ry
     estimated scf accuracy    <       0.00138595 Ry

     total magnetization       =     3.00 Bohr mag/cell
     absolute magnetization    =     3.90 Bohr mag/cell

     iteration # 39     ecut=    30.00 Ry     beta= 0.70
     Davidson diagonalization with overlap

---- Real-time Memory Report at c_bands before calling an iterative solver
           267 MiB given to the printing process from OS
             0 MiB allocation reported by mallinfo(arena+hblkhd)
        223487 MiB available memory on the node where the printing process lives
------------------
     ethr =  1.06E-06,  avg # of iterations =  1.0

     negative rho (up, down):  1.279E-03 4.075E-03

     total cpu time spent up to now is       46.1 secs

     total energy              =    -957.92223990 Ry
     estimated scf accuracy    <       0.00165579 Ry

     total magnetization       =     3.00 Bohr mag/cell
     absolute magnetization    =     3.95 Bohr mag/cell

     iteration # 40     ecut=    30.00 Ry     beta= 0.70
     Davidson diagonalization with overlap

---- Real-time Memory Report at c_bands before calling an iterative solver
           267 MiB given to the printing process from OS
             0 MiB allocation reported by mallinfo(arena+hblkhd)
        223532 MiB available memory on the node where the printing process lives
------------------
     ethr =  1.06E-06,  avg # of iterations =  1.0

     negative rho (up, down):  1.280E-03 4.068E-03

     total cpu time spent up to now is       47.1 secs

     total energy              =    -957.92309183 Ry
     estimated scf accuracy    <       0.00184611 Ry

     total magnetization       =     3.00 Bohr mag/cell
     absolute magnetization    =     3.87 Bohr mag/cell

     iteration # 41     ecut=    30.00 Ry     beta= 0.70
     Davidson diagonalization with overlap

---- Real-time Memory Report at c_bands before calling an iterative solver
           267 MiB given to the printing process from OS
             0 MiB allocation reported by mallinfo(arena+hblkhd)
        223675 MiB available memory on the node where the printing process lives
------------------
     ethr =  1.06E-06,  avg # of iterations =  1.0

     negative rho (up, down):  1.278E-03 4.067E-03

     total cpu time spent up to now is       48.3 secs

     total energy              =    -957.92286787 Ry
     estimated scf accuracy    <       0.00093406 Ry

     total magnetization       =     3.00 Bohr mag/cell
     absolute magnetization    =     3.91 Bohr mag/cell

     iteration # 42     ecut=    30.00 Ry     beta= 0.70
     Davidson diagonalization with overlap

---- Real-time Memory Report at c_bands before calling an iterative solver
           267 MiB given to the printing process from OS
             0 MiB allocation reported by mallinfo(arena+hblkhd)
        223609 MiB available memory on the node where the printing process lives
------------------
     ethr =  8.90E-07,  avg # of iterations =  1.6

     negative rho (up, down):  1.278E-03 4.070E-03

     total cpu time spent up to now is       49.5 secs

     total energy              =    -957.92236358 Ry
     estimated scf accuracy    <       0.00179227 Ry

     total magnetization       =     3.00 Bohr mag/cell
     absolute magnetization    =     3.90 Bohr mag/cell

     iteration # 43     ecut=    30.00 Ry     beta= 0.70
     Davidson diagonalization with overlap

---- Real-time Memory Report at c_bands before calling an iterative solver
           267 MiB given to the printing process from OS
             0 MiB allocation reported by mallinfo(arena+hblkhd)
        223776 MiB available memory on the node where the printing process lives
------------------
     ethr =  8.90E-07,  avg # of iterations =  1.0

     negative rho (up, down):  1.277E-03 4.066E-03

     total cpu time spent up to now is       50.8 secs

     total energy              =    -957.92285407 Ry
     estimated scf accuracy    <       0.00079361 Ry

     total magnetization       =     3.00 Bohr mag/cell
     absolute magnetization    =     3.86 Bohr mag/cell

     iteration # 44     ecut=    30.00 Ry     beta= 0.70
     Davidson diagonalization with overlap

---- Real-time Memory Report at c_bands before calling an iterative solver
           267 MiB given to the printing process from OS
             0 MiB allocation reported by mallinfo(arena+hblkhd)
        223765 MiB available memory on the node where the printing process lives
------------------
     ethr =  7.56E-07,  avg # of iterations =  2.0

     negative rho (up, down):  1.277E-03 4.067E-03

     total cpu time spent up to now is       52.1 secs

     total energy              =    -957.92292156 Ry
     estimated scf accuracy    <       0.00808876 Ry

     total magnetization       =     3.00 Bohr mag/cell
     absolute magnetization    =     3.90 Bohr mag/cell

     iteration # 45     ecut=    30.00 Ry     beta= 0.70
     Davidson diagonalization with overlap

---- Real-time Memory Report at c_bands before calling an iterative solver
           267 MiB given to the printing process from OS
             0 MiB allocation reported by mallinfo(arena+hblkhd)
        223456 MiB available memory on the node where the printing process lives
------------------
     ethr =  7.56E-07,  avg # of iterations =  1.0

     negative rho (up, down):  1.279E-03 4.059E-03

     total cpu time spent up to now is       53.1 secs

     total energy              =    -957.92265593 Ry
     estimated scf accuracy    <       0.00122327 Ry

     total magnetization       =     3.00 Bohr mag/cell
     absolute magnetization    =     3.90 Bohr mag/cell

     iteration # 46     ecut=    30.00 Ry     beta= 0.70
     Davidson diagonalization with overlap

---- Real-time Memory Report at c_bands before calling an iterative solver
           267 MiB given to the printing process from OS
             0 MiB allocation reported by mallinfo(arena+hblkhd)
        223621 MiB available memory on the node where the printing process lives
------------------
     ethr =  7.56E-07,  avg # of iterations =  2.0

     negative rho (up, down):  1.276E-03 4.053E-03

     total cpu time spent up to now is       54.3 secs

     total energy              =    -957.92290199 Ry
     estimated scf accuracy    <       0.00950547 Ry

     total magnetization       =     3.00 Bohr mag/cell
     absolute magnetization    =     3.89 Bohr mag/cell

     iteration # 47     ecut=    30.00 Ry     beta= 0.70
     Davidson diagonalization with overlap

---- Real-time Memory Report at c_bands before calling an iterative solver
           267 MiB given to the printing process from OS
             0 MiB allocation reported by mallinfo(arena+hblkhd)
        223662 MiB available memory on the node where the printing process lives
------------------
     ethr =  7.56E-07,  avg # of iterations =  2.0

     negative rho (up, down):  1.276E-03 4.046E-03

     total cpu time spent up to now is       55.5 secs

     total energy              =    -957.92360060 Ry
     estimated scf accuracy    <       0.00091863 Ry

     total magnetization       =     3.00 Bohr mag/cell
     absolute magnetization    =     3.93 Bohr mag/cell

     iteration # 48     ecut=    30.00 Ry     beta= 0.70
     Davidson diagonalization with overlap

---- Real-time Memory Report at c_bands before calling an iterative solver
           267 MiB given to the printing process from OS
             0 MiB allocation reported by mallinfo(arena+hblkhd)
        223471 MiB available memory on the node where the printing process lives
------------------
     ethr =  7.56E-07,  avg # of iterations =  1.0

     negative rho (up, down):  1.275E-03 4.052E-03

     total cpu time spent up to now is       56.6 secs

     total energy              =    -957.92376470 Ry
     estimated scf accuracy    <       0.00110651 Ry

     total magnetization       =     3.00 Bohr mag/cell
     absolute magnetization    =     3.94 Bohr mag/cell

     iteration # 49     ecut=    30.00 Ry     beta= 0.70
     Davidson diagonalization with overlap

---- Real-time Memory Report at c_bands before calling an iterative solver
           267 MiB given to the printing process from OS
             0 MiB allocation reported by mallinfo(arena+hblkhd)
        223592 MiB available memory on the node where the printing process lives
------------------
     ethr =  7.56E-07,  avg # of iterations =  1.0

     negative rho (up, down):  1.274E-03 4.050E-03

     total cpu time spent up to now is       57.7 secs

     total energy              =    -957.92412461 Ry
     estimated scf accuracy    <       0.00083187 Ry

     total magnetization       =     3.00 Bohr mag/cell
     absolute magnetization    =     3.97 Bohr mag/cell

     iteration # 50     ecut=    30.00 Ry     beta= 0.70
     Davidson diagonalization with overlap

---- Real-time Memory Report at c_bands before calling an iterative solver
           267 MiB given to the printing process from OS
             0 MiB allocation reported by mallinfo(arena+hblkhd)
        223813 MiB available memory on the node where the printing process lives
------------------
     ethr =  7.56E-07,  avg # of iterations =  1.0

     negative rho (up, down):  1.276E-03 4.050E-03

     total cpu time spent up to now is       58.7 secs

     total energy              =    -957.92343379 Ry
     estimated scf accuracy    <       0.00088175 Ry

     total magnetization       =     3.00 Bohr mag/cell
     absolute magnetization    =     4.00 Bohr mag/cell

     iteration # 51     ecut=    30.00 Ry     beta= 0.70
     Davidson diagonalization with overlap

---- Real-time Memory Report at c_bands before calling an iterative solver
           267 MiB given to the printing process from OS
             0 MiB allocation reported by mallinfo(arena+hblkhd)
        223754 MiB available memory on the node where the printing process lives
------------------
     ethr =  7.56E-07,  avg # of iterations =  1.1

     negative rho (up, down):  1.273E-03 4.041E-03

     total cpu time spent up to now is       59.8 secs

     total energy              =    -957.92327090 Ry
     estimated scf accuracy    <       0.00142376 Ry

     total magnetization       =     3.00 Bohr mag/cell
     absolute magnetization    =     3.95 Bohr mag/cell

     iteration # 52     ecut=    30.00 Ry     beta= 0.70
     Davidson diagonalization with overlap

---- Real-time Memory Report at c_bands before calling an iterative solver
           267 MiB given to the printing process from OS
             0 MiB allocation reported by mallinfo(arena+hblkhd)
        223638 MiB available memory on the node where the printing process lives
------------------
     ethr =  7.56E-07,  avg # of iterations =  2.0

     negative rho (up, down):  1.273E-03 4.031E-03

     total cpu time spent up to now is       61.0 secs

     total energy              =    -957.92370400 Ry
     estimated scf accuracy    <       0.00151434 Ry

     total magnetization       =     3.00 Bohr mag/cell
     absolute magnetization    =     3.94 Bohr mag/cell

     iteration # 53     ecut=    30.00 Ry     beta= 0.70
     Davidson diagonalization with overlap

---- Real-time Memory Report at c_bands before calling an iterative solver
           267 MiB given to the printing process from OS
             0 MiB allocation reported by mallinfo(arena+hblkhd)
        223488 MiB available memory on the node where the printing process lives
------------------
     ethr =  7.56E-07,  avg # of iterations =  2.0

     negative rho (up, down):  1.273E-03 4.020E-03

     total cpu time spent up to now is       62.2 secs

     total energy              =    -957.92386773 Ry
     estimated scf accuracy    <       0.00103707 Ry

     total magnetization       =     3.00 Bohr mag/cell
     absolute magnetization    =     3.97 Bohr mag/cell

     iteration # 54     ecut=    30.00 Ry     beta= 0.70
     Davidson diagonalization with overlap

---- Real-time Memory Report at c_bands before calling an iterative solver
           267 MiB given to the printing process from OS
             0 MiB allocation reported by mallinfo(arena+hblkhd)
        223608 MiB available memory on the node where the printing process lives
------------------
     ethr =  7.56E-07,  avg # of iterations =  1.0

     negative rho (up, down):  1.273E-03 4.020E-03

     total cpu time spent up to now is       63.3 secs

     total energy              =    -957.92393965 Ry
     estimated scf accuracy    <       0.00071309 Ry

     total magnetization       =     3.00 Bohr mag/cell
     absolute magnetization    =     3.98 Bohr mag/cell

     iteration # 55     ecut=    30.00 Ry     beta= 0.70
     Davidson diagonalization with overlap

---- Real-time Memory Report at c_bands before calling an iterative solver
           267 MiB given to the printing process from OS
             0 MiB allocation reported by mallinfo(arena+hblkhd)
        223786 MiB available memory on the node where the printing process lives
------------------
     ethr =  6.79E-07,  avg # of iterations =  1.0

     negative rho (up, down):  1.274E-03 4.018E-03

     total cpu time spent up to now is       64.3 secs

     total energy              =    -957.92392720 Ry
     estimated scf accuracy    <       0.00074066 Ry

     total magnetization       =     3.00 Bohr mag/cell
     absolute magnetization    =     3.98 Bohr mag/cell

     iteration # 56     ecut=    30.00 Ry     beta= 0.70
     Davidson diagonalization with overlap

---- Real-time Memory Report at c_bands before calling an iterative solver
           267 MiB given to the printing process from OS
             0 MiB allocation reported by mallinfo(arena+hblkhd)
        223763 MiB available memory on the node where the printing process lives
------------------
     ethr =  6.79E-07,  avg # of iterations =  1.0

     negative rho (up, down):  1.274E-03 4.023E-03

     total cpu time spent up to now is       65.4 secs

     total energy              =    -957.92351694 Ry
     estimated scf accuracy    <       0.00157558 Ry

     total magnetization       =     3.00 Bohr mag/cell
     absolute magnetization    =     3.98 Bohr mag/cell

     iteration # 57     ecut=    30.00 Ry     beta= 0.70
     Davidson diagonalization with overlap

---- Real-time Memory Report at c_bands before calling an iterative solver
           267 MiB given to the printing process from OS
             0 MiB allocation reported by mallinfo(arena+hblkhd)
        223804 MiB available memory on the node where the printing process lives
------------------
     ethr =  6.79E-07,  avg # of iterations =  1.4

     negative rho (up, down):  1.275E-03 4.027E-03

     total cpu time spent up to now is       66.5 secs

     total energy              =    -957.92359018 Ry
     estimated scf accuracy    <       0.00351624 Ry

     total magnetization       =     3.00 Bohr mag/cell
     absolute magnetization    =     3.97 Bohr mag/cell

     iteration # 58     ecut=    30.00 Ry     beta= 0.70
     Davidson diagonalization with overlap

---- Real-time Memory Report at c_bands before calling an iterative solver
           267 MiB given to the printing process from OS
             0 MiB allocation reported by mallinfo(arena+hblkhd)
        223495 MiB available memory on the node where the printing process lives
------------------
     ethr =  6.79E-07,  avg # of iterations =  1.0

     negative rho (up, down):  1.274E-03 4.030E-03

     total cpu time spent up to now is       67.6 secs

     total energy              =    -957.92392523 Ry
     estimated scf accuracy    <       0.00128226 Ry

     total magnetization       =     3.00 Bohr mag/cell
     absolute magnetization    =     3.97 Bohr mag/cell

     iteration # 59     ecut=    30.00 Ry     beta= 0.70
     Davidson diagonalization with overlap

---- Real-time Memory Report at c_bands before calling an iterative solver
           267 MiB given to the printing process from OS
             0 MiB allocation reported by mallinfo(arena+hblkhd)
        223560 MiB available memory on the node where the printing process lives
------------------
     ethr =  6.79E-07,  avg # of iterations =  2.0

     negative rho (up, down):  1.272E-03 4.028E-03

     total cpu time spent up to now is       68.8 secs

     total energy              =    -957.92503582 Ry
     estimated scf accuracy    <       0.00186959 Ry

     total magnetization       =     3.00 Bohr mag/cell
     absolute magnetization    =     4.06 Bohr mag/cell

     iteration # 60     ecut=    30.00 Ry     beta= 0.70
     Davidson diagonalization with overlap

---- Real-time Memory Report at c_bands before calling an iterative solver
           267 MiB given to the printing process from OS
             0 MiB allocation reported by mallinfo(arena+hblkhd)
        223540 MiB available memory on the node where the printing process lives
------------------
     ethr =  6.79E-07,  avg # of iterations =  1.1

     negative rho (up, down):  1.276E-03 4.023E-03

     total cpu time spent up to now is       69.9 secs

     total energy              =    -957.92169761 Ry
     estimated scf accuracy    <       0.00212751 Ry

     total magnetization       =     3.00 Bohr mag/cell
     absolute magnetization    =     4.13 Bohr mag/cell

     iteration # 61     ecut=    30.00 Ry     beta= 0.70
     Davidson diagonalization with overlap

---- Real-time Memory Report at c_bands before calling an iterative solver
           267 MiB given to the printing process from OS
             0 MiB allocation reported by mallinfo(arena+hblkhd)
        223576 MiB available memory on the node where the printing process lives
------------------
     ethr =  6.79E-07,  avg # of iterations =  2.0

     negative rho (up, down):  1.271E-03 4.003E-03

     total cpu time spent up to now is       71.0 secs

     total energy              =    -957.92384560 Ry
     estimated scf accuracy    <       0.00182716 Ry

     total magnetization       =     3.00 Bohr mag/cell
     absolute magnetization    =     3.99 Bohr mag/cell

     iteration # 62     ecut=    30.00 Ry     beta= 0.70
     Davidson diagonalization with overlap

---- Real-time Memory Report at c_bands before calling an iterative solver
           267 MiB given to the printing process from OS
             0 MiB allocation reported by mallinfo(arena+hblkhd)
        223579 MiB available memory on the node where the printing process lives
------------------
     ethr =  6.79E-07,  avg # of iterations =  2.0

     negative rho (up, down):  1.272E-03 3.993E-03

     total cpu time spent up to now is       72.2 secs

     total energy              =    -957.92426035 Ry
     estimated scf accuracy    <       0.00100915 Ry

     total magnetization       =     3.00 Bohr mag/cell
     absolute magnetization    =     4.00 Bohr mag/cell

     iteration # 63     ecut=    30.00 Ry     beta= 0.70
     Davidson diagonalization with overlap

---- Real-time Memory Report at c_bands before calling an iterative solver
           267 MiB given to the printing process from OS
             0 MiB allocation reported by mallinfo(arena+hblkhd)
        223501 MiB available memory on the node where the printing process lives
------------------
     ethr =  6.79E-07,  avg # of iterations =  1.1

     negative rho (up, down):  1.273E-03 3.983E-03

     total cpu time spent up to now is       73.3 secs

     total energy              =    -957.92418176 Ry
     estimated scf accuracy    <       0.00064189 Ry

     total magnetization       =     3.00 Bohr mag/cell
     absolute magnetization    =     4.01 Bohr mag/cell

     iteration # 64     ecut=    30.00 Ry     beta= 0.70
     Davidson diagonalization with overlap

---- Real-time Memory Report at c_bands before calling an iterative solver
           267 MiB given to the printing process from OS
             0 MiB allocation reported by mallinfo(arena+hblkhd)
        223498 MiB available memory on the node where the printing process lives
------------------
     ethr =  6.11E-07,  avg # of iterations =  1.0

     negative rho (up, down):  1.272E-03 3.972E-03

     total cpu time spent up to now is       74.3 secs

     total energy              =    -957.92452922 Ry
     estimated scf accuracy    <       0.00133319 Ry

     total magnetization       =     3.00 Bohr mag/cell
     absolute magnetization    =     4.01 Bohr mag/cell

     iteration # 65     ecut=    30.00 Ry     beta= 0.70
     Davidson diagonalization with overlap

---- Real-time Memory Report at c_bands before calling an iterative solver
           267 MiB given to the printing process from OS
             0 MiB allocation reported by mallinfo(arena+hblkhd)
        225621 MiB available memory on the node where the printing process lives
------------------
     ethr =  6.11E-07,  avg # of iterations =  1.0

     negative rho (up, down):  1.273E-03 3.966E-03

     total cpu time spent up to now is       75.4 secs

     total energy              =    -957.92464571 Ry
     estimated scf accuracy    <       0.00156439 Ry

     total magnetization       =     3.00 Bohr mag/cell
     absolute magnetization    =     4.01 Bohr mag/cell

     iteration # 66     ecut=    30.00 Ry     beta= 0.70
     Davidson diagonalization with overlap

---- Real-time Memory Report at c_bands before calling an iterative solver
           267 MiB given to the printing process from OS
             0 MiB allocation reported by mallinfo(arena+hblkhd)
        225681 MiB available memory on the node where the printing process lives
------------------
     ethr =  6.11E-07,  avg # of iterations =  1.3

     negative rho (up, down):  1.274E-03 3.969E-03

     total cpu time spent up to now is       76.5 secs

     total energy              =    -957.92423893 Ry
     estimated scf accuracy    <       0.00234647 Ry

     total magnetization       =     3.00 Bohr mag/cell
     absolute magnetization    =     4.02 Bohr mag/cell

     iteration # 67     ecut=    30.00 Ry     beta= 0.70
     Davidson diagonalization with overlap

---- Real-time Memory Report at c_bands before calling an iterative solver
           267 MiB given to the printing process from OS
             0 MiB allocation reported by mallinfo(arena+hblkhd)
        225692 MiB available memory on the node where the printing process lives
------------------
     ethr =  6.11E-07,  avg # of iterations =  1.7

     negative rho (up, down):  1.273E-03 3.965E-03

     total cpu time spent up to now is       77.6 secs

     total energy              =    -957.92471042 Ry
     estimated scf accuracy    <       0.00121275 Ry

     total magnetization       =     3.00 Bohr mag/cell
     absolute magnetization    =     4.03 Bohr mag/cell

     iteration # 68     ecut=    30.00 Ry     beta= 0.70
     Davidson diagonalization with overlap

---- Real-time Memory Report at c_bands before calling an iterative solver
           267 MiB given to the printing process from OS
             0 MiB allocation reported by mallinfo(arena+hblkhd)
        225758 MiB available memory on the node where the printing process lives
------------------
     ethr =  6.11E-07,  avg # of iterations =  1.0

     negative rho (up, down):  1.272E-03 3.966E-03

     total cpu time spent up to now is       78.7 secs

     total energy              =    -957.92424472 Ry
     estimated scf accuracy    <       0.00155845 Ry

     total magnetization       =     3.00 Bohr mag/cell
     absolute magnetization    =     4.04 Bohr mag/cell

     iteration # 69     ecut=    30.00 Ry     beta= 0.70
     Davidson diagonalization with overlap

---- Real-time Memory Report at c_bands before calling an iterative solver
           267 MiB given to the printing process from OS
             0 MiB allocation reported by mallinfo(arena+hblkhd)
        225684 MiB available memory on the node where the printing process lives
------------------
     ethr =  6.11E-07,  avg # of iterations =  2.0

     negative rho (up, down):  1.271E-03 3.965E-03

     total cpu time spent up to now is       79.8 secs

     total energy              =    -957.92519309 Ry
     estimated scf accuracy    <       0.00071764 Ry

     total magnetization       =     3.00 Bohr mag/cell
     absolute magnetization    =     4.03 Bohr mag/cell

     iteration # 70     ecut=    30.00 Ry     beta= 0.70
     Davidson diagonalization with overlap

---- Real-time Memory Report at c_bands before calling an iterative solver
           267 MiB given to the printing process from OS
             0 MiB allocation reported by mallinfo(arena+hblkhd)
        225688 MiB available memory on the node where the printing process lives
------------------
     ethr =  6.11E-07,  avg # of iterations =  2.0

     negative rho (up, down):  1.272E-03 3.974E-03

     total cpu time spent up to now is       81.0 secs

     total energy              =    -957.92305275 Ry
     estimated scf accuracy    <       0.00239466 Ry

     total magnetization       =     3.00 Bohr mag/cell
     absolute magnetization    =     4.17 Bohr mag/cell

     iteration # 71     ecut=    30.00 Ry     beta= 0.70
     Davidson diagonalization with overlap

---- Real-time Memory Report at c_bands before calling an iterative solver
           267 MiB given to the printing process from OS
             0 MiB allocation reported by mallinfo(arena+hblkhd)
        225590 MiB available memory on the node where the printing process lives
------------------
     ethr =  6.11E-07,  avg # of iterations =  2.0

     negative rho (up, down):  1.271E-03 3.981E-03

     total cpu time spent up to now is       82.3 secs

     total energy              =    -957.92422898 Ry
     estimated scf accuracy    <       0.00207513 Ry

     total magnetization       =     3.00 Bohr mag/cell
     absolute magnetization    =     4.02 Bohr mag/cell

     iteration # 72     ecut=    30.00 Ry     beta= 0.70
     Davidson diagonalization with overlap

---- Real-time Memory Report at c_bands before calling an iterative solver
           267 MiB given to the printing process from OS
             0 MiB allocation reported by mallinfo(arena+hblkhd)
        225547 MiB available memory on the node where the printing process lives
------------------
     ethr =  6.11E-07,  avg # of iterations =  2.0

     negative rho (up, down):  1.272E-03 3.962E-03

     total cpu time spent up to now is       83.4 secs

     total energy              =    -957.92460654 Ry
     estimated scf accuracy    <       0.00178534 Ry

     total magnetization       =     3.00 Bohr mag/cell
     absolute magnetization    =     4.06 Bohr mag/cell

     iteration # 73     ecut=    30.00 Ry     beta= 0.70
     Davidson diagonalization with overlap

---- Real-time Memory Report at c_bands before calling an iterative solver
           267 MiB given to the printing process from OS
             0 MiB allocation reported by mallinfo(arena+hblkhd)
        225522 MiB available memory on the node where the printing process lives
------------------
     ethr =  6.11E-07,  avg # of iterations =  2.0

     negative rho (up, down):  1.274E-03 3.948E-03

     total cpu time spent up to now is       84.7 secs

     total energy              =    -957.92492861 Ry
     estimated scf accuracy    <       0.00139166 Ry

     total magnetization       =     3.00 Bohr mag/cell
     absolute magnetization    =     4.05 Bohr mag/cell

     iteration # 74     ecut=    30.00 Ry     beta= 0.70
     Davidson diagonalization with overlap

---- Real-time Memory Report at c_bands before calling an iterative solver
           267 MiB given to the printing process from OS
             0 MiB allocation reported by mallinfo(arena+hblkhd)
        225557 MiB available memory on the node where the printing process lives
------------------
     ethr =  6.11E-07,  avg # of iterations =  1.9

     negative rho (up, down):  1.272E-03 3.943E-03

     total cpu time spent up to now is       85.8 secs

     total energy              =    -957.92507386 Ry
     estimated scf accuracy    <       0.00150123 Ry

     total magnetization       =     3.00 Bohr mag/cell
     absolute magnetization    =     4.06 Bohr mag/cell

     iteration # 75     ecut=    30.00 Ry     beta= 0.70
     Davidson diagonalization with overlap

---- Real-time Memory Report at c_bands before calling an iterative solver
           267 MiB given to the printing process from OS
             0 MiB allocation reported by mallinfo(arena+hblkhd)
        224373 MiB available memory on the node where the printing process lives
------------------
     ethr =  6.11E-07,  avg # of iterations =  1.0

     negative rho (up, down):  1.270E-03 3.974E-03

     total cpu time spent up to now is       86.8 secs

     total energy              =    -957.92412587 Ry
     estimated scf accuracy    <       0.00133240 Ry

     total magnetization       =     3.00 Bohr mag/cell
     absolute magnetization    =     4.05 Bohr mag/cell

     iteration # 76     ecut=    30.00 Ry     beta= 0.70
     Davidson diagonalization with overlap

---- Real-time Memory Report at c_bands before calling an iterative solver
           267 MiB given to the printing process from OS
             0 MiB allocation reported by mallinfo(arena+hblkhd)
        224144 MiB available memory on the node where the printing process lives
------------------
     ethr =  6.11E-07,  avg # of iterations =  2.0

     negative rho (up, down):  1.269E-03 4.022E-03

     total cpu time spent up to now is       88.0 secs

     total energy              =    -957.92283500 Ry
     estimated scf accuracy    <       0.00237304 Ry

     total magnetization       =     3.00 Bohr mag/cell
     absolute magnetization    =     4.03 Bohr mag/cell

     iteration # 77     ecut=    30.00 Ry     beta= 0.70
     Davidson diagonalization with overlap

---- Real-time Memory Report at c_bands before calling an iterative solver
           267 MiB given to the printing process from OS
             0 MiB allocation reported by mallinfo(arena+hblkhd)
        224118 MiB available memory on the node where the printing process lives
------------------
     ethr =  6.11E-07,  avg # of iterations =  2.0

     negative rho (up, down):  1.269E-03 4.047E-03

     total cpu time spent up to now is       89.2 secs

     total energy              =    -957.92287231 Ry
     estimated scf accuracy    <       0.00552549 Ry

     total magnetization       =     3.00 Bohr mag/cell
     absolute magnetization    =     4.00 Bohr mag/cell

     iteration # 78     ecut=    30.00 Ry     beta= 0.70
     Davidson diagonalization with overlap

---- Real-time Memory Report at c_bands before calling an iterative solver
           267 MiB given to the printing process from OS
             0 MiB allocation reported by mallinfo(arena+hblkhd)
        223951 MiB available memory on the node where the printing process lives
------------------
     ethr =  6.11E-07,  avg # of iterations =  1.5

     negative rho (up, down):  1.269E-03 4.055E-03

     total cpu time spent up to now is       90.3 secs

     total energy              =    -957.92303160 Ry
     estimated scf accuracy    <       0.00083724 Ry

     total magnetization       =     3.00 Bohr mag/cell
     absolute magnetization    =     3.97 Bohr mag/cell

     iteration # 79     ecut=    30.00 Ry     beta= 0.70
     Davidson diagonalization with overlap

---- Real-time Memory Report at c_bands before calling an iterative solver
           267 MiB given to the printing process from OS
             0 MiB allocation reported by mallinfo(arena+hblkhd)
        223917 MiB available memory on the node where the printing process lives
------------------
     ethr =  6.11E-07,  avg # of iterations =  1.8

     negative rho (up, down):  1.268E-03 4.001E-03

     total cpu time spent up to now is       91.5 secs

     total energy              =    -957.92302451 Ry
     estimated scf accuracy    <       0.00118307 Ry

     total magnetization       =     3.00 Bohr mag/cell
     absolute magnetization    =     3.99 Bohr mag/cell

     iteration # 80     ecut=    30.00 Ry     beta= 0.70
     Davidson diagonalization with overlap

---- Real-time Memory Report at c_bands before calling an iterative solver
           267 MiB given to the printing process from OS
             0 MiB allocation reported by mallinfo(arena+hblkhd)
        223898 MiB available memory on the node where the printing process lives
------------------
     ethr =  6.11E-07,  avg # of iterations =  2.0

     negative rho (up, down):  1.270E-03 4.017E-03

     total cpu time spent up to now is       92.7 secs

     total energy              =    -957.92420286 Ry
     estimated scf accuracy    <       0.00264067 Ry

     total magnetization       =     3.00 Bohr mag/cell
     absolute magnetization    =     4.03 Bohr mag/cell

     iteration # 81     ecut=    30.00 Ry     beta= 0.70
     Davidson diagonalization with overlap

---- Real-time Memory Report at c_bands before calling an iterative solver
           267 MiB given to the printing process from OS
             0 MiB allocation reported by mallinfo(arena+hblkhd)
        223893 MiB available memory on the node where the printing process lives
------------------
     ethr =  6.11E-07,  avg # of iterations =  1.9

     negative rho (up, down):  1.268E-03 4.020E-03

     total cpu time spent up to now is       93.8 secs

     total energy              =    -957.92475335 Ry
     estimated scf accuracy    <       0.00083990 Ry

     total magnetization       =     3.00 Bohr mag/cell
     absolute magnetization    =     4.02 Bohr mag/cell

     iteration # 82     ecut=    30.00 Ry     beta= 0.70
     Davidson diagonalization with overlap

---- Real-time Memory Report at c_bands before calling an iterative solver
           267 MiB given to the printing process from OS
             0 MiB allocation reported by mallinfo(arena+hblkhd)
        223821 MiB available memory on the node where the printing process lives
------------------
     ethr =  6.11E-07,  avg # of iterations =  2.0

     negative rho (up, down):  1.268E-03 4.020E-03

     total cpu time spent up to now is       95.0 secs

     total energy              =    -957.92506228 Ry
     estimated scf accuracy    <       0.00069839 Ry

     total magnetization       =     3.00 Bohr mag/cell
     absolute magnetization    =     4.05 Bohr mag/cell

     iteration # 83     ecut=    30.00 Ry     beta= 0.70
     Davidson diagonalization with overlap

---- Real-time Memory Report at c_bands before calling an iterative solver
           267 MiB given to the printing process from OS
             0 MiB allocation reported by mallinfo(arena+hblkhd)
        223833 MiB available memory on the node where the printing process lives
------------------
     ethr =  6.11E-07,  avg # of iterations =  1.0

     negative rho (up, down):  1.271E-03 4.023E-03

     total cpu time spent up to now is       96.0 secs

     total energy              =    -957.92062533 Ry
     estimated scf accuracy    <       0.00091588 Ry

     total magnetization       =     3.00 Bohr mag/cell
     absolute magnetization    =     4.08 Bohr mag/cell

     iteration # 84     ecut=    30.00 Ry     beta= 0.70
     Davidson diagonalization with overlap

---- Real-time Memory Report at c_bands before calling an iterative solver
           267 MiB given to the printing process from OS
             0 MiB allocation reported by mallinfo(arena+hblkhd)
        223819 MiB available memory on the node where the printing process lives
------------------
     ethr =  6.11E-07,  avg # of iterations =  2.4

     negative rho (up, down):  1.270E-03 4.036E-03

     total cpu time spent up to now is       97.3 secs

     total energy              =    -957.92213189 Ry
     estimated scf accuracy    <       0.00121539 Ry

     total magnetization       =     3.00 Bohr mag/cell
     absolute magnetization    =     3.97 Bohr mag/cell

     iteration # 85     ecut=    30.00 Ry     beta= 0.70
     Davidson diagonalization with overlap

---- Real-time Memory Report at c_bands before calling an iterative solver
           267 MiB given to the printing process from OS
             0 MiB allocation reported by mallinfo(arena+hblkhd)
        223819 MiB available memory on the node where the printing process lives
------------------
     ethr =  6.11E-07,  avg # of iterations =  2.0

     negative rho (up, down):  1.271E-03 4.035E-03

     total cpu time spent up to now is       98.4 secs

     total energy              =    -957.92277831 Ry
     estimated scf accuracy    <       0.00081701 Ry

     total magnetization       =     3.00 Bohr mag/cell
     absolute magnetization    =     3.95 Bohr mag/cell

     iteration # 86     ecut=    30.00 Ry     beta= 0.70
[...]

   -62.0508 -61.6867 -61.5411 -35.6364 -35.6198 -35.4693 -35.4505 -33.8838
   -33.4730 -33.4364 -33.3027 -33.2218 -33.0077 -32.8405 -32.4541 -32.3992
   -10.3295  -9.2279  -9.1767  -9.1194  -9.0504  -8.9329  -8.9144  -8.7433
     2.3718   3.3591   3.4445   3.4729   3.6617   3.7442   3.8649   4.4020
     4.5619   4.8447   4.9196   4.9961   5.0783   5.2196   5.2747   5.7803
     5.8305   5.8673   5.9413   6.0731   6.0933   6.5421   7.0803   7.1080
     9.4784   9.7086  10.1699  10.5826  10.9581  11.1573  11.2983  11.3269
    11.4591  12.3134  12.4598  12.6255  12.7100  12.7297  12.8310  14.7094

     occupation numbers 
     1.0000   1.0000   1.0000   1.0000   1.0000   1.0000   1.0000   1.0000
     1.0000   1.0000   1.0000   1.0000   1.0000   1.0000   1.0000   1.0000
     1.0000   1.0000   1.0000   1.0000   1.0000   1.0000   1.0000   1.0000
     1.0000   1.0000   1.0000   1.0000   1.0000   1.0000   1.0000   1.0000
     1.0000   1.0000   1.0000   1.0000   1.0000   1.0000   1.0000   1.0000
     1.0000   1.0000   1.0000   1.0000   1.0000   1.0000   1.0000   1.0000
     1.0000   1.0000   1.0000   0.0000   0.0000   0.0000   0.0000   0.0000
     0.0000   0.0000   0.0000   0.0000   0.0000   0.0000   0.0000   0.0000

          k = 0.0000 0.2985 0.5175 (  2717 PWs)   bands (ev):

   -62.0508 -61.6864 -61.5414 -35.6342 -35.6221 -35.4679 -35.4521 -33.8842
   -33.4730 -33.4273 -33.3028 -33.2283 -33.0094 -32.8407 -32.4568 -32.3989
   -10.1110  -9.6532  -9.1478  -9.0812  -9.0466  -8.9293  -8.8332  -8.7167
     2.6997   3.3439   3.4646   3.7772   3.8593   3.8932   4.0687   4.2381
     4.4518   4.5566   4.6644   4.7350   4.9867   5.3525   5.4496   5.4953
     5.6190   5.8069   6.1485   6.2052   6.2471   6.3490   6.6971   6.8710
     9.5863   9.8954  10.1678  10.6141  10.9572  11.2475  11.2663  11.3371
    11.4835  12.2532  12.3605  12.4791  12.5642  12.6553  12.6877  15.9050

     occupation numbers 
     1.0000   1.0000   1.0000   1.0000   1.0000   1.0000   1.0000   1.0000
     1.0000   1.0000   1.0000   1.0000   1.0000   1.0000   1.0000   1.0000
     1.0000   1.0000   1.0000   1.0000   1.0000   1.0000   1.0000   1.0000
     1.0000   1.0000   1.0000   1.0000   1.0000   1.0000   1.0000   1.0000
     1.0000   1.0000   1.0000   1.0000   1.0000   1.0000   1.0000   1.0000
     1.0000   1.0000   1.0000   1.0000   1.0000   1.0000   1.0000   1.0000
     1.0000   1.0000   1.0000   0.0000   0.0000   0.0000   0.0000   0.0000
     0.0000   0.0000   0.0000   0.0000   0.0000   0.0000   0.0000   0.0000

          k = 0.0000 0.2985-0.1578 (  2710 PWs)   bands (ev):

   -62.0507 -61.6865 -61.5414 -35.6341 -35.6219 -35.4678 -35.4520 -33.8849
   -33.4727 -33.4265 -33.3024 -33.2280 -33.0102 -32.8402 -32.4562 -32.4001
   -10.1980  -9.5787  -9.1006  -9.0724  -9.0095  -8.9814  -8.8113  -8.7428
     2.5262   3.2607   3.3616   3.4588   3.5918   3.8097   3.9221   4.1997
     4.6170   4.7997   4.8828   4.9888   5.0619   5.2321   5.3622   5.5606
     5.7717   5.9676   6.1113   6.1866   6.3926   6.7157   6.8118   7.0395
     9.5769   9.8361  10.0847  10.5426  10.9439  11.2128  11.2293  11.3135
    11.4886  12.1973  12.3852  12.4156  12.5638  12.6236  12.7732  14.8276

     occupation numbers 
     1.0000   1.0000   1.0000   1.0000   1.0000   1.0000   1.0000   1.0000
     1.0000   1.0000   1.0000   1.0000   1.0000   1.0000   1.0000   1.0000
     1.0000   1.0000   1.0000   1.0000   1.0000   1.0000   1.0000   1.0000
     1.0000   1.0000   1.0000   1.0000   1.0000   1.0000   1.0000   1.0000
     1.0000   1.0000   1.0000   1.0000   1.0000   1.0000   1.0000   1.0000
     1.0000   1.0000   1.0000   1.0000   1.0000   1.0000   1.0000   1.0000
     1.0000   1.0000   1.0000   0.0000   0.0000   0.0000   0.0000   0.0000
     0.0000   0.0000   0.0000   0.0000   0.0000   0.0000   0.0000   0.0000

          k = 0.3333-0.0993-0.0598 (  2701 PWs)   bands (ev):

   -62.0506 -61.6867 -61.5412 -35.6355 -35.6196 -35.4696 -35.4505 -33.8823
   -33.4750 -33.4369 -33.3030 -33.2218 -33.0079 -32.8403 -32.4539 -32.3993
   -10.1474  -9.4933  -9.0931  -9.0726  -9.0311  -8.9939  -8.8495  -8.8168
     2.2186   2.9229   3.1674   3.2989   3.3748   3.4648   3.6196   4.4700
     4.9384   4.9487   5.1179   5.3482   5.4048   5.5064   5.6609   5.7528
     5.9582   6.0802   6.1014   6.2395   6.4019   6.6986   6.8508   7.1424
     9.3831   9.5767   9.8233  10.6867  10.9346  11.0618  11.3035  11.3095
    11.5401  12.2692  12.5090  12.5581  12.6995  12.8262  12.8532  14.8109

     occupation numbers 
     1.0000   1.0000   1.0000   1.0000   1.0000   1.0000   1.0000   1.0000
     1.0000   1.0000   1.0000   1.0000   1.0000   1.0000   1.0000   1.0000
     1.0000   1.0000   1.0000   1.0000   1.0000   1.0000   1.0000   1.0000
     1.0000   1.0000   1.0000   1.0000   1.0000   1.0000   1.0000   1.0000
     1.0000   1.0000   1.0000   1.0000   1.0000   1.0000   1.0000   1.0000
     1.0000   1.0000   1.0000   1.0000   1.0000   1.0000   1.0000   1.0000
     1.0000   1.0000   1.0000   0.0000   0.0000   0.0000   0.0000   0.0000
     0.0000   0.0000   0.0000   0.0000   0.0000   0.0000   0.0000   0.0000

          k = 0.3333-0.0993 0.2779 (  2693 PWs)   bands (ev):

   -62.0506 -61.6864 -61.5413 -35.6335 -35.6214 -35.4678 -35.4520 -33.8821
   -33.4741 -33.4252 -33.3027 -33.2281 -33.0093 -32.8395 -32.4557 -32.3994
    -9.9891  -9.4182  -9.3275  -9.1275  -9.0696  -8.9781  -8.8699  -8.7681
     2.6152   3.2315   3.4008   3.4883   3.6153   3.6620   3.7449   4.2254
     4.7463   4.8467   4.9959   5.1349   5.3299   5.3571   5.4135   5.5255
     5.7595   5.8777   6.0500   6.2125   6.3486   6.5308   6.6568   7.0773
     9.4063   9.8289  10.0658  10.6560  10.9938  11.1018  11.2713  11.3835
    11.4837  12.1732  12.3439  12.4035  12.4780  12.5665  12.8704  15.3236

     occupation numbers 
     1.0000   1.0000   1.0000   1.0000   1.0000   1.0000   1.0000   1.0000
     1.0000   1.0000   1.0000   1.0000   1.0000   1.0000   1.0000   1.0000
     1.0000   1.0000   1.0000   1.0000   1.0000   1.0000   1.0000   1.0000
     1.0000   1.0000   1.0000   1.0000   1.0000   1.0000   1.0000   1.0000
     1.0000   1.0000   1.0000   1.0000   1.0000   1.0000   1.0000   1.0000
     1.0000   1.0000   1.0000   1.0000   1.0000   1.0000   1.0000   1.0000
     1.0000   1.0000   1.0000   0.0000   0.0000   0.0000   0.0000   0.0000
     0.0000   0.0000   0.0000   0.0000   0.0000   0.0000   0.0000   0.0000

          k = 0.3333-0.0993-0.3975 (  2702 PWs)   bands (ev):

   -62.0506 -61.6865 -61.5414 -35.6336 -35.6216 -35.4680 -35.4522 -33.8822
   -33.4748 -33.4256 -33.3028 -33.2286 -33.0096 -32.8401 -32.4562 -32.3993
    -9.9351  -9.4765  -9.3874  -9.0882  -9.0597  -8.9990  -8.8424  -8.7633
     2.6370   3.2969   3.3304   3.4811   3.6282   3.8192   3.8409   4.2904
     4.5143   4.8122   4.9593   4.9863   5.1780   5.3197   5.4319   5.4939
     5.8361   5.9393   6.1364   6.3291   6.3693   6.4943   6.7499   6.8115
     9.4735   9.8799   9.9371  10.7211  10.9954  11.1405  11.2874  11.3528
    11.4699  12.1556  12.3518  12.4400  12.5676  12.7157  12.7603  15.8442

     occupation numbers 
     1.0000   1.0000   1.0000   1.0000   1.0000   1.0000   1.0000   1.0000
     1.0000   1.0000   1.0000   1.0000   1.0000   1.0000   1.0000   1.0000
     1.0000   1.0000   1.0000   1.0000   1.0000   1.0000   1.0000   1.0000
     1.0000   1.0000   1.0000   1.0000   1.0000   1.0000   1.0000   1.0000
     1.0000   1.0000   1.0000   1.0000   1.0000   1.0000   1.0000   1.0000
     1.0000   1.0000   1.0000   1.0000   1.0000   1.0000   1.0000   1.0000
     1.0000   1.0000   1.0000   0.0000   0.0000   0.0000   0.0000   0.0000
     0.0000   0.0000   0.0000   0.0000   0.0000   0.0000   0.0000   0.0000

          k = 0.3333 0.1992 0.1200 (  2697 PWs)   bands (ev):

   -62.0506 -61.6867 -61.5411 -35.6355 -35.6197 -35.4695 -35.4506 -33.8821
   -33.4740 -33.4358 -33.3031 -33.2217 -33.0074 -32.8398 -32.4536 -32.3990
   -10.1122  -9.4459  -9.1511  -9.0740  -9.0266  -8.9601  -8.8903  -8.8733
     2.3191   3.0363   3.2878   3.4639   3.6347   3.8142   3.8283   4.4697
     4.7151   4.8219   5.1166   5.1583   5.2077   5.5525   5.6907   5.7187
     5.8758   5.9125   6.0265   6.1163   6.1758   6.3814   6.7146   6.8603
     9.4546   9.5594   9.9876  10.7220  10.9186  11.1399  11.3224  11.3352
    11.5561  12.1606  12.2478  12.5418  12.6122  12.7235  12.7870  15.3220

     occupation numbers 
     1.0000   1.0000   1.0000   1.0000   1.0000   1.0000   1.0000   1.0000
     1.0000   1.0000   1.0000   1.0000   1.0000   1.0000   1.0000   1.0000
     1.0000   1.0000   1.0000   1.0000   1.0000   1.0000   1.0000   1.0000
     1.0000   1.0000   1.0000   1.0000   1.0000   1.0000   1.0000   1.0000
     1.0000   1.0000   1.0000   1.0000   1.0000   1.0000   1.0000   1.0000
     1.0000   1.0000   1.0000   1.0000   1.0000   1.0000   1.0000   1.0000
     1.0000   1.0000   1.0000   0.0000   0.0000   0.0000   0.0000   0.0000
     0.0000   0.0000   0.0000   0.0000   0.0000   0.0000   0.0000   0.0000

          k = 0.3333 0.1992 0.4577 (  2696 PWs)   bands (ev):

   -62.0506 -61.6864 -61.5413 -35.6336 -35.6216 -35.4680 -35.4521 -33.8823
   -33.4737 -33.4257 -33.3027 -33.2285 -33.0092 -32.8396 -32.4555 -32.3995
    -9.9007  -9.4964  -9.3594  -9.1469  -9.0411  -8.9849  -8.8349  -8.8051
     2.7167   3.3356   3.5838   3.6489   3.7500   3.9498   3.9963   4.2194
     4.3311   4.5317   4.8897   5.0226   5.1427   5.3055   5.4368   5.5264
     5.6802   5.9029   6.0289   6.2553   6.3971   6.4249   6.5307   6.7144
     9.5389   9.8402  10.0552  10.6459  10.9949  11.1753  11.2921  11.4103
    11.4973  12.1927  12.3059  12.3634  12.4605  12.6220  12.7030  16.2406

     occupation numbers 
     1.0000   1.0000   1.0000   1.0000   1.0000   1.0000   1.0000   1.0000
     1.0000   1.0000   1.0000   1.0000   1.0000   1.0000   1.0000   1.0000
     1.0000   1.0000   1.0000   1.0000   1.0000   1.0000   1.0000   1.0000
     1.0000   1.0000   1.0000   1.0000   1.0000   1.0000   1.0000   1.0000
     1.0000   1.0000   1.0000   1.0000   1.0000   1.0000   1.0000   1.0000
     1.0000   1.0000   1.0000   1.0000   1.0000   1.0000   1.0000   1.0000
     1.0000   1.0000   1.0000   0.0000   0.0000   0.0000   0.0000   0.0000
     0.0000   0.0000   0.0000   0.0000   0.0000   0.0000   0.0000   0.0000

          k = 0.3333 0.1992-0.2176 (  2693 PWs)   bands (ev):

   -62.0506 -61.6864 -61.5413 -35.6335 -35.6214 -35.4680 -35.4519 -33.8822
   -33.4740 -33.4247 -33.3029 -33.2281 -33.0095 -32.8396 -32.4557 -32.3994
    -9.9899  -9.4231  -9.3148  -9.1325  -9.0880  -8.9628  -8.8521  -8.7848
     2.6123   3.2587   3.3748   3.4759   3.6049   3.6707   3.7501   4.2333
     4.7694   4.8348   4.9862   5.1348   5.3260   5.3592   5.4207   5.5298
     5.7576   5.8785   6.0509   6.2158   6.3333   6.5352   6.6524   7.0789
     9.5737   9.8109   9.8544  10.6567  11.0025  11.1972  11.2934  11.3236
    11.4728  12.1928  12.3466  12.4001  12.4674  12.5457  12.8912  15.3250

     occupation numbers 
     1.0000   1.0000   1.0000   1.0000   1.0000   1.0000   1.0000   1.0000
     1.0000   1.0000   1.0000   1.0000   1.0000   1.0000   1.0000   1.0000
     1.0000   1.0000   1.0000   1.0000   1.0000   1.0000   1.0000   1.0000
     1.0000   1.0000   1.0000   1.0000   1.0000   1.0000   1.0000   1.0000
     1.0000   1.0000   1.0000   1.0000   1.0000   1.0000   1.0000   1.0000
     1.0000   1.0000   1.0000   1.0000   1.0000   1.0000   1.0000   1.0000
     1.0000   1.0000   1.0000   0.0000   0.0000   0.0000   0.0000   0.0000
     0.0000   0.0000   0.0000   0.0000   0.0000   0.0000   0.0000   0.0000

          k = 0.3333-0.3978-0.2396 (  2698 PWs)   bands (ev):

   -62.0505 -61.6868 -61.5411 -35.6354 -35.6198 -35.4695 -35.4506 -33.8823
   -33.4741 -33.4356 -33.3029 -33.2218 -33.0069 -32.8396 -32.4535 -32.3990
   -10.0443  -9.5260  -9.1704  -9.1143  -9.0694  -8.9526  -8.8497  -8.8137
     2.3684   3.0441   3.4441   3.5438   3.6162   3.9521   4.1090   4.2480
     4.4064   4.8702   4.9432   4.9896   5.1959   5.4486   5.5456   5.6888
     5.8735   5.9964   6.1011   6.2466   6.3620   6.4113   6.5024   6.7702
     9.4824   9.6351   9.9765  10.7272  10.9701  11.1372  11.3153  11.3419
    11.5776  12.1769  12.3421  12.5969  12.6444  12.7425  12.8561  15.9685

     occupation numbers 
     1.0000   1.0000   1.0000   1.0000   1.0000   1.0000   1.0000   1.0000
     1.0000   1.0000   1.0000   1.0000   1.0000   1.0000   1.0000   1.0000
     1.0000   1.0000   1.0000   1.0000   1.0000   1.0000   1.0000   1.0000
     1.0000   1.0000   1.0000   1.0000   1.0000   1.0000   1.0000   1.0000
     1.0000   1.0000   1.0000   1.0000   1.0000   1.0000   1.0000   1.0000
     1.0000   1.0000   1.0000   1.0000   1.0000   1.0000   1.0000   1.0000
     1.0000   1.0000   1.0000   0.0000   0.0000   0.0000   0.0000   0.0000
     0.0000   0.0000   0.0000   0.0000   0.0000   0.0000   0.0000   0.0000

          k = 0.3333-0.3978 0.0980 (  2702 PWs)   bands (ev):

   -62.0506 -61.6865 -61.5414 -35.6336 -35.6216 -35.4681 -35.4521 -33.8821
   -33.4745 -33.4262 -33.3030 -33.2282 -33.0096 -32.8399 -32.4563 -32.3994
    -9.9353  -9.4693  -9.3969  -9.0887  -9.0696  -8.9852  -8.8250  -8.7814
     2.6392   3.3036   3.3185   3.4687   3.6341   3.8324   3.8340   4.2822
     4.5186   4.8187   4.9676   4.9865   5.1741   5.3065   5.4351   5.5024
     5.8341   5.9296   6.1451   6.3200   6.3889   6.4960   6.7305   6.8235
     9.4973   9.8609   9.9798  10.5853  11.0083  11.1494  11.2794  11.3688
    11.5283  12.1606  12.3470  12.4218  12.5810  12.7155  12.7590  15.8391

     occupation numbers 
     1.0000   1.0000   1.0000   1.0000   1.0000   1.0000   1.0000   1.0000
     1.0000   1.0000   1.0000   1.0000   1.0000   1.0000   1.0000   1.0000
     1.0000   1.0000   1.0000   1.0000   1.0000   1.0000   1.0000   1.0000
     1.0000   1.0000   1.0000   1.0000   1.0000   1.0000   1.0000   1.0000
     1.0000   1.0000   1.0000   1.0000   1.0000   1.0000   1.0000   1.0000
     1.0000   1.0000   1.0000   1.0000   1.0000   1.0000   1.0000   1.0000
     1.0000   1.0000   1.0000   0.0000   0.0000   0.0000   0.0000   0.0000
     0.0000   0.0000   0.0000   0.0000   0.0000   0.0000   0.0000   0.0000

          k = 0.3333-0.3978-0.5773 (  2696 PWs)   bands (ev):

   -62.0505 -61.6864 -61.5414 -35.6336 -35.6216 -35.4680 -35.4521 -33.8824
   -33.4742 -33.4252 -33.3025 -33.2281 -33.0095 -32.8394 -32.4560 -32.3995
    -9.9021  -9.4961  -9.3493  -9.1543  -9.0379  -8.9936  -8.8489  -8.7871
     2.7106   3.3601   3.5596   3.6457   3.7695   3.9371   4.0212   4.2038
     4.3152   4.5519   4.8618   5.0183   5.1393   5.3198   5.4589   5.5387
     5.6551   5.9085   6.0367   6.2479   6.3732   6.4278   6.5392   6.7193
     9.5598   9.8476   9.9903  10.7044  11.0054  11.1983  11.2970  11.3667
    11.4765  12.1915  12.3232  12.3635  12.4516  12.6046  12.7193  16.2414

     occupation numbers 
     1.0000   1.0000   1.0000   1.0000   1.0000   1.0000   1.0000   1.0000
     1.0000   1.0000   1.0000   1.0000   1.0000   1.0000   1.0000   1.0000
     1.0000   1.0000   1.0000   1.0000   1.0000   1.0000   1.0000   1.0000
     1.0000   1.0000   1.0000   1.0000   1.0000   1.0000   1.0000   1.0000
     1.0000   1.0000   1.0000   1.0000   1.0000   1.0000   1.0000   1.0000
     1.0000   1.0000   1.0000   1.0000   1.0000   1.0000   1.0000   1.0000
     1.0000   1.0000   1.0000   0.0000   0.0000   0.0000   0.0000   0.0000
     0.0000   0.0000   0.0000   0.0000   0.0000   0.0000   0.0000   0.0000

     highest occupied, lowest unoccupied level (ev):    10.1699   10.0355

!    total energy              =    -957.94649516 Ry
     estimated scf accuracy    <       0.00000077 Ry

     The total energy is the sum of the following terms:
     one-electron contribution =    -430.79744551 Ry
     hartree contribution      =     263.43302278 Ry
     xc contribution           =    -143.68658258 Ry
     ewald contribution        =    -536.09373163 Ry
     one-center paw contrib.   =    -110.80175823 Ry
      -> PAW hartree energy AE =       0.00000000 Ry
      -> PAW hartree energy PS =       0.00000000 Ry
      -> PAW xc energy AE      =       0.00000000 Ry
      -> PAW xc energy PS      =       0.00000000 Ry
      -> total E_H with PAW    =     263.43302278 Ry
      -> total E_XC with PAW   =    -143.68658258 Ry

     total magnetization       =     3.00 Bohr mag/cell
     absolute magnetization    =     4.88 Bohr mag/cell

     convergence has been achieved in 177 iterations

     Writing all to output data dir bands_nm/myprefix.save/
 
     init_run     :      4.09s CPU      1.07s WALL (       1 calls)
     electrons    :    799.57s CPU    208.10s WALL (       1 calls)

     Called by init_run:
     wfcinit      :      1.76s CPU      0.45s WALL (       1 calls)
     wfcinit:atom :      0.02s CPU      0.01s WALL (      14 calls)
     wfcinit:wfcr :      1.64s CPU      0.42s WALL (      14 calls)
     potinit      :      0.72s CPU      0.19s WALL (       1 calls)
     hinit0       :      1.46s CPU      0.39s WALL (       1 calls)

     Called by electrons:
     c_bands      :    582.06s CPU    150.42s WALL (     177 calls)
     sum_band     :    119.99s CPU     31.87s WALL (     177 calls)
     v_of_rho     :     10.60s CPU      2.75s WALL (     178 calls)
     v_h          :      0.43s CPU      0.11s WALL (     178 calls)
     v_xc         :     10.17s CPU      2.63s WALL (     178 calls)
     newd         :     16.89s CPU      4.73s WALL (     178 calls)
     PAW_pot      :     64.31s CPU     16.77s WALL (     178 calls)
     mix_rho      :      3.57s CPU      0.93s WALL (     177 calls)

     Called by c_bands:
     init_us_2    :      4.06s CPU      1.31s WALL (    4970 calls)
     init_us_2:cp :      4.00s CPU      1.30s WALL (    4970 calls)
     cegterg      :    543.52s CPU    139.49s WALL (    2478 calls)

     Called by sum_band:
     sum_band:wei :      0.04s CPU      0.01s WALL (     177 calls)
     sum_band:loo :     93.26s CPU     23.99s WALL (     177 calls)
     sum_band:buf :      2.29s CPU      0.34s WALL (    2478 calls)
     sum_band:ini :      1.93s CPU      0.62s WALL (    2478 calls)
     sum_band:cal :     16.22s CPU      4.04s WALL (    2478 calls)
     sum_band:bec :      0.52s CPU      0.39s WALL (    2478 calls)
     addusdens    :     24.22s CPU      7.24s WALL (     177 calls)
     addusd:skk   :      0.04s CPU      0.03s WALL (     708 calls)
     addusd:dgemm :      5.43s CPU      2.34s WALL (    1416 calls)
     addusd:qvan2 :     16.31s CPU      4.43s WALL (    1416 calls)

     Called by *egterg:
     cdiaghg      :     90.59s CPU     23.40s WALL (    6577 calls)
     cegterg:over :     31.60s CPU      7.16s WALL (    4099 calls)
     cegterg:upda :      9.68s CPU      3.48s WALL (    4099 calls)
     cegterg:last :     25.10s CPU      6.95s WALL (    3922 calls)
     h_psi        :    331.95s CPU     85.93s WALL (    6591 calls)
     s_psi        :     30.88s CPU      7.94s WALL (    6591 calls)
     g_psi        :      0.48s CPU      0.14s WALL (    4099 calls)

     Called by h_psi:
     h_psi:calbec :     35.30s CPU      8.90s WALL (    6591 calls)
     vloc_psi     :    269.20s CPU     68.72s WALL (    6591 calls)
     add_vuspsi   :     26.93s CPU      8.01s WALL (    6591 calls)

     General routines
     calbec       :     51.46s CPU     12.93s WALL (    9069 calls)
     fft          :      8.24s CPU      2.25s WALL (    4444 calls)
     ffts         :      0.46s CPU      0.13s WALL (     710 calls)
     fftw         :    323.97s CPU     71.14s WALL (  841980 calls)
     interpolate  :      1.08s CPU      0.28s WALL (     356 calls)
 
     Parallel routines

     PAW routines
     PAW_pot      :     64.31s CPU     16.77s WALL (     178 calls)
 
     PWSCF        :  13m25.17s CPU   3m30.38s WALL

 
   This run was terminated on:  14:14:40  15Jul2023            

=------------------------------------------------------------------------------=
   JOB DONE.
=------------------------------------------------------------------------------=
