
     Program PWSCF v.7.1 starts on 15Jul2023 at 22: 1:31 

     This program is part of the open-source Quantum ESPRESSO suite
     for quantum simulation of materials; please cite
         "P. Giannozzi et al., J. Phys.:Condens. Matter 21 395502 (2009);
         "P. Giannozzi et al., J. Phys.:Condens. Matter 29 465901 (2017);
         "P. Giannozzi et al., J. Chem. Phys. 152 154105 (2020);
          URL http://www.quantum-espresso.org", 
     in publications or presentations arising from this work. More details at
     http://www.quantum-espresso.org/quote

     Parallel version (MPI & OpenMP), running on      32 processor cores
     Number of MPI processes:                 8
     Threads/MPI process:                     4

     MPI processes distributed on     1 nodes
     203859 MiB available memory on the printing compute node when the environment starts
 
     Reading input from espresso_15578.pwi
Warning: card &CELL ignored
Warning: card / ignored

     Current dimensions of program PWSCF are:
     Max number of different atomic species (ntypx) = 10
     Max number of k-points (npk) =  40000
     Max angular momentum in pseudopotentials (lmaxx) =  4
     file Cd.pbe-dn-rrkjus_psl.0.3.1.UPF: wavefunction(s)  4D renormalized
     file O.pbe-n-kjpaw_psl.0.1.UPF: wavefunction(s)  2P renormalized
     Message from routine setup:
     using ibrav=0 with symmetry is DISCOURAGED, use correct ibrav instead
 
     K-points division:     npool     =       2
     R & G space division:  proc/nbgrp/npool/nimage =       4
     Subspace diagonalization in iterative solution of the eigenvalue problem:
     one sub-group per band group will be used
     scalapack distributed-memory algorithm (size of sub-group:  2*  2 procs)

 
     Parallelization info
     --------------------
     sticks:   dense  smooth     PW     G-vecs:    dense   smooth      PW
     Min         484     242     71                24236     8565    1338
     Max         485     243     72                24241     8567    1341
     Sum        1939     971    285                96957    34263    5361
 
     Using Slab Decomposition
 


     bravais-lattice index     =            0
     lattice parameter (alat)  =       6.7405  a.u.
     unit-cell volume          =    1544.0831 (a.u.)^3
     number of atoms/cell      =           18
     number of atomic types    =            4
     number of electrons       =       132.00
     number of Kohn-Sham states=          256
     kinetic-energy cutoff     =      30.0000  Ry
     charge density cutoff     =     240.0000  Ry
     scf convergence threshold =      1.0E-06
     mixing beta               =       0.7000
     number of iterations used =            8  plain     mixing
     Exchange-correlation= SLA  PW   PBX  PBC
                           (   1   4   3   4   0   0   0)

     celldm(1)=   6.740540  celldm(2)=   0.000000  celldm(3)=   0.000000
     celldm(4)=   0.000000  celldm(5)=   0.000000  celldm(6)=   0.000000

     crystal axes: (cart. coord. in units of alat)
               a(1) = (   1.000000   0.000000   0.000000 )  
               a(2) = (   0.407004   2.242277   0.000000 )  
               a(3) = (   0.203502   1.121139   2.248523 )  

     reciprocal axes: (cart. coord. in units 2 pi/alat)
               b(1) = (  1.000000 -0.181513 -0.000000 )  
               b(2) = (  0.000000  0.445975 -0.222368 )  
               b(3) = (  0.000000  0.000000  0.444736 )  


     PseudoPot. # 1 for Cd read from file:
     /lustre07/scratch/pragov/crystal_structure_design/utils/SSSP/Cd.pbe-dn-rrkjus_psl.0.3.1.UPF
     MD5 check sum: 558e9f355611b531a870a69ef6ace9e2
     Pseudo is Ultrasoft + core correction, Zval = 12.0
     Generated using "atomic" code by A. Dal Corso  v.5.0.99 svn rev. 10869
     Using radial grid of 1239 points,  6 beta functions with: 
                l(1) =   0
                l(2) =   0
                l(3) =   1
                l(4) =   1
                l(5) =   2
                l(6) =   2
     Q(r) pseudized with 0 coefficients 


     PseudoPot. # 2 for Bi read from file:
     /lustre07/scratch/pragov/crystal_structure_design/utils/SSSP/Bi_pbe_v1.uspp.F.UPF
     MD5 check sum: cceb9f28ec65b6d7ff33140f5b0b1758
     Pseudo is Ultrasoft + core correction, Zval = 15.0
     Generated by new atomic code, or converted to UPF format
     Using radial grid of  899 points,  6 beta functions with: 
                l(1) =   0
                l(2) =   0
                l(3) =   1
                l(4) =   1
                l(5) =   2
                l(6) =   2
     Q(r) pseudized with  6 coefficients,  rinner =    1.000   1.000   1.000
                                                       1.000   1.000

     PseudoPot. # 3 for B  read from file:
     /lustre07/scratch/pragov/crystal_structure_design/utils/SSSP/b_pbe_v1.4.uspp.F.UPF
     MD5 check sum: cc6de2960df11db49a60e589f9ebb39b
     Pseudo is Ultrasoft + core correction, Zval =  3.0
     Generated by new atomic code, or converted to UPF format
     Using radial grid of  781 points,  4 beta functions with: 
                l(1) =   0
                l(2) =   0
                l(3) =   1
                l(4) =   1
     Q(r) pseudized with  8 coefficients,  rinner =    1.100   1.100   1.100


     PseudoPot. # 4 for O  read from file:
     /lustre07/scratch/pragov/crystal_structure_design/utils/SSSP/O.pbe-n-kjpaw_psl.0.1.UPF
     MD5 check sum: 0234752ac141de4415c5fc33072bef88
     Pseudo is Projector augmented-wave + core cor, Zval =  6.0
     Generated using "atomic" code by A. Dal Corso  v.5.0.99 svn rev. 10869
     Shape of augmentation charge: BESSEL
     Using radial grid of 1095 points,  4 beta functions with: 
                l(1) =   0
                l(2) =   0
                l(3) =   1
                l(4) =   1
     Q(r) pseudized with 0 coefficients 


     atomic species   valence    mass     pseudopotential
        Cd            12.00   112.41400     Cd( 1.00)
        Bi            15.00   208.98040     Bi( 1.00)
        B              3.00    10.81000     B ( 1.00)
        O              6.00    15.99900     O ( 1.00)

      2 Sym. Ops. (no inversion) found


                                    s                        frac. trans.

      isym =  1     identity                                     

 cryst.   s( 1) = (     1          0          0      )
                  (     0          1          0      )
                  (     0          0          1      )

 cart.    s( 1) = (  1.0000000  0.0000000  0.0000000 )
                  (  0.0000000  1.0000000 -0.0000000 )
                  (  0.0000000  0.0000000  1.0000000 )


      isym =  2     inv. 180 deg rotation - cart. axis [0,0,1]   

 cryst.   s( 2) = (     1          0          0      )
                  (     0          1          0      )
                  (     0          1         -1      )

 cart.    s( 2) = (  1.0000000  0.0000000  0.0000000 )
                  (  0.0000000  1.0000000  0.0000000 )
                  (  0.0000000  0.0000000 -1.0000000 )


   Cartesian axes

     site n.     atom                  positions (alat units)
         1           Cd  tau(   1) = (   0.6083825   2.4291777   0.5176865  )
         2           Cd  tau(   2) = (   0.4048811   1.3080414   1.7308366  )
         3           Cd  tau(   3) = (   1.1373799   1.5842787   0.8021111  )
         4           Cd  tau(   4) = (   1.3408817   2.7054173   1.4464119  )
         5           Bi  tau(   5) = (   0.6790442   0.9855369   0.0000000  )
         6           B   tau(   6) = (   0.7789369   1.9897082   1.3519358  )
         7           B   tau(   7) = (   0.5754351   0.8685696   0.8965873  )
         8           B   tau(   8) = (   1.1219090   1.8406293   0.0000000  )
         9           O   tau(   9) = (   0.6294341   1.1806789   0.6615942  )
        10           O   tau(  10) = (   0.8329359   2.3018175   1.5869289  )
        11           O   tau(  11) = (   0.5830331   2.0252607   1.0212252  )
        12           O   tau(  12) = (   0.3795309   0.9041198   1.2272979  )
        13           O   tau(  13) = (   0.7083759   0.5199661   0.7913047  )
        14           O   tau(  14) = (   0.9118776   1.6411048   1.4572184  )
        15           O   tau(  15) = (   1.1030530   2.0290064   0.3393583  )
        16           O   tau(  16) = (   1.3065548   3.1501450   1.9091647  )
        17           O   tau(  17) = (   1.1617892   1.4538544   0.0000000  )
        18           O   tau(  18) = (   0.1822517   0.5713390   0.0000000  )

   Crystallographic axes

     site n.     atom                  positions (cryst. coord.)
         1           Cd  tau(   1) = (  0.1674540  0.9682360  0.2302340  )
         2           Cd  tau(   2) = (  0.1674540  0.1984710  0.7697660  )
         3           Cd  tau(   3) = (  0.8498120  0.5281850  0.3567280  )
         4           Cd  tau(   4) = (  0.8498120  0.8849130  0.6432720  )
         5           Bi  tau(   5) = (  0.5001560  0.4395250  0.0000000  )
         6           B   tau(   6) = (  0.4177780  0.5867330  0.6012550  )
         7           B   tau(   7) = (  0.4177780  0.1879880  0.3987450  )
         8           B   tau(   8) = (  0.7878100  0.8208750  0.0000000  )
         9           O   tau(   9) = (  0.4151250  0.3794360  0.2942350  )
        10           O   tau(  10) = (  0.4151250  0.6736710  0.7057650  )
        11           O   tau(  11) = (  0.2154210  0.6761280  0.4541760  )
        12           O   tau(  12) = (  0.2154210  0.1303030  0.5458240  )
        13           O   tau(  13) = (  0.6139950  0.0559310  0.3519220  )
        14           O   tau(  14) = (  0.6139950  0.4078530  0.6480780  )
        15           O   tau(  15) = (  0.7347610  0.8294240  0.1509250  )
        16           O   tau(  16) = (  0.7347610  0.9803490  0.8490750  )
        17           O   tau(  17) = (  0.8978950  0.6483830  0.0000000  )
        18           O   tau(  18) = (  0.0785460  0.2548030  0.0000000  )

     number of k points=    10
                       cart. coord. in units 2pi/alat
        k(    1) = (   0.0000000   0.0000000   0.0000000), wk =   0.0740741
        k(    2) = (   0.0000000   0.0000000   0.1482455), wk =   0.1481481
        k(    3) = (   0.0000000   0.1486584  -0.0741227), wk =   0.2962963
        k(    4) = (   0.0000000   0.1486584  -0.2223682), wk =   0.1481481
        k(    5) = (   0.3333333  -0.0605045  -0.0000000), wk =   0.1481481
        k(    6) = (   0.3333333  -0.0605045   0.1482455), wk =   0.2962963
        k(    7) = (   0.3333333   0.0881539  -0.0741227), wk =   0.2962963
        k(    8) = (   0.3333333   0.0881539  -0.2223682), wk =   0.1481481
        k(    9) = (   0.3333333  -0.2091629   0.0741227), wk =   0.2962963
        k(   10) = (   0.3333333  -0.2091629   0.2223682), wk =   0.1481481

                       cryst. coord.
        k(    1) = (   0.0000000   0.0000000   0.0000000), wk =   0.0740741
        k(    2) = (   0.0000000   0.0000000   0.3333333), wk =   0.1481481
        k(    3) = (   0.0000000   0.3333333   0.0000000), wk =   0.2962963
        k(    4) = (   0.0000000   0.3333333  -0.3333333), wk =   0.1481481
        k(    5) = (   0.3333333   0.0000000   0.0000000), wk =   0.1481481
        k(    6) = (   0.3333333   0.0000000   0.3333333), wk =   0.2962963
        k(    7) = (   0.3333333   0.3333333   0.0000000), wk =   0.2962963
        k(    8) = (   0.3333333   0.3333333  -0.3333333), wk =   0.1481481
        k(    9) = (   0.3333333  -0.3333333   0.0000000), wk =   0.2962963
        k(   10) = (   0.3333333  -0.3333333   0.3333333), wk =   0.1481481

     Dense  grid:    96957 G-vectors     FFT dimensions: (  36,  75,  90)

     Smooth grid:    34263 G-vectors     FFT dimensions: (  24,  54,  60)

     Dynamical RAM for                 wfc:       4.18 MB

     Dynamical RAM for     wfc (w. buffer):      25.10 MB

     Dynamical RAM for           str. fact:       1.48 MB

     Dynamical RAM for           local pot:       0.00 MB

     Dynamical RAM for          nlocal pot:       3.17 MB

     Dynamical RAM for                qrad:       4.98 MB

     Dynamical RAM for          rho,v,vnew:       2.53 MB

     Dynamical RAM for               rhoin:       0.84 MB

     Dynamical RAM for            rho*nmix:       5.92 MB

     Dynamical RAM for           G-vectors:       1.45 MB

     Dynamical RAM for          h,s,v(r/c):       3.00 MB

     Dynamical RAM for          <psi|beta>:       0.76 MB

     Dynamical RAM for                 psi:       8.37 MB

     Dynamical RAM for                hpsi:       8.37 MB

     Dynamical RAM for                spsi:       8.37 MB

     Dynamical RAM for      wfcinit/wfcrot:       9.87 MB

     Dynamical RAM for           addusdens:      36.43 MB

     Estimated static dynamical RAM per process >      43.77 MB

     Estimated max dynamical RAM per process >      86.12 MB

     Estimated total dynamical RAM >     665.26 MB

     Check: negative core charge=   -0.000009

     Initial potential from superposition of free atoms

     starting charge     130.9796, renormalised to     132.0000

     negative rho (up, down):  4.346E-02 0.000E+00
     Starting wfcs are   97 randomized atomic wfcs +  159 random wfcs
     Checking if some PAW data can be deallocated... 
       PAW data deallocated on    3 nodes for type:  4

     total cpu time spent up to now is        2.1 secs

     Self-consistent Calculation

     iteration #  1     ecut=    30.00 Ry     beta= 0.70
     Davidson diagonalization with overlap

---- Real-time Memory Report at c_bands before calling an iterative solver
           248 MiB given to the printing process from OS
             0 MiB allocation reported by mallinfo(arena+hblkhd)
        203155 MiB available memory on the node where the printing process lives
------------------
     ethr =  1.00E-02,  avg # of iterations = 12.1

     negative rho (up, down):  4.089E-02 0.000E+00

     total cpu time spent up to now is       16.3 secs

     total energy              =   -1108.86342956 Ry
     estimated scf accuracy    <       2.89656742 Ry

     iteration #  2     ecut=    30.00 Ry     beta= 0.70
     Davidson diagonalization with overlap

---- Real-time Memory Report at c_bands before calling an iterative solver
           342 MiB given to the printing process from OS
             0 MiB allocation reported by mallinfo(arena+hblkhd)
        201532 MiB available memory on the node where the printing process lives
------------------
     ethr =  2.19E-03,  avg # of iterations =  3.1

     negative rho (up, down):  4.218E-02 0.000E+00

     total cpu time spent up to now is       21.4 secs

     total energy              =   -1108.96278969 Ry
     estimated scf accuracy    <       4.71996996 Ry

     iteration #  3     ecut=    30.00 Ry     beta= 0.70
     Davidson diagonalization with overlap

---- Real-time Memory Report at c_bands before calling an iterative solver
           342 MiB given to the printing process from OS
             0 MiB allocation reported by mallinfo(arena+hblkhd)
        201277 MiB available memory on the node where the printing process lives
------------------
     ethr =  2.19E-03,  avg # of iterations =  2.0

     negative rho (up, down):  4.203E-02 0.000E+00

     total cpu time spent up to now is       25.3 secs

     total energy              =   -1110.01616380 Ry
     estimated scf accuracy    <       0.59569397 Ry

     iteration #  4     ecut=    30.00 Ry     beta= 0.70
     Davidson diagonalization with overlap

---- Real-time Memory Report at c_bands before calling an iterative solver
           342 MiB given to the printing process from OS
             0 MiB allocation reported by mallinfo(arena+hblkhd)
        201212 MiB available memory on the node where the printing process lives
------------------
     ethr =  4.51E-04,  avg # of iterations =  2.2

     negative rho (up, down):  4.177E-02 0.000E+00

     total cpu time spent up to now is       29.0 secs

     total energy              =   -1110.10337844 Ry
     estimated scf accuracy    <       0.05325853 Ry

     iteration #  5     ecut=    30.00 Ry     beta= 0.70
     Davidson diagonalization with overlap

---- Real-time Memory Report at c_bands before calling an iterative solver
           342 MiB given to the printing process from OS
             0 MiB allocation reported by mallinfo(arena+hblkhd)
        201212 MiB available memory on the node where the printing process lives
------------------
     ethr =  4.03E-05,  avg # of iterations =  2.8

     negative rho (up, down):  4.170E-02 0.000E+00

     total cpu time spent up to now is       33.1 secs

     total energy              =   -1110.11019490 Ry
     estimated scf accuracy    <       0.01646295 Ry

     iteration #  6     ecut=    30.00 Ry     beta= 0.70
     Davidson diagonalization with overlap

---- Real-time Memory Report at c_bands before calling an iterative solver
           342 MiB given to the printing process from OS
             0 MiB allocation reported by mallinfo(arena+hblkhd)
        201258 MiB available memory on the node where the printing process lives
------------------
     ethr =  1.25E-05,  avg # of iterations = 10.4

     negative rho (up, down):  4.169E-02 0.000E+00

     total cpu time spent up to now is       40.2 secs

     total energy              =   -1110.11378081 Ry
     estimated scf accuracy    <       0.00242934 Ry

     iteration #  7     ecut=    30.00 Ry     beta= 0.70
     Davidson diagonalization with overlap

---- Real-time Memory Report at c_bands before calling an iterative solver
           345 MiB given to the printing process from OS
             0 MiB allocation reported by mallinfo(arena+hblkhd)
        202094 MiB available memory on the node where the printing process lives
------------------
     ethr =  1.84E-06,  avg # of iterations =  9.8

     negative rho (up, down):  4.169E-02 0.000E+00

     total cpu time spent up to now is       47.1 secs

     total energy              =   -1110.11424221 Ry
     estimated scf accuracy    <       0.00014775 Ry

     iteration #  8     ecut=    30.00 Ry     beta= 0.70
     Davidson diagonalization with overlap

---- Real-time Memory Report at c_bands before calling an iterative solver
           353 MiB given to the printing process from OS
             0 MiB allocation reported by mallinfo(arena+hblkhd)
        200818 MiB available memory on the node where the printing process lives
------------------
     ethr =  1.12E-07,  avg # of iterations =  2.6

     negative rho (up, down):  4.169E-02 0.000E+00

     total cpu time spent up to now is       51.5 secs

     total energy              =   -1110.11426891 Ry
     estimated scf accuracy    <       0.00002307 Ry

     iteration #  9     ecut=    30.00 Ry     beta= 0.70
     Davidson diagonalization with overlap

---- Real-time Memory Report at c_bands before calling an iterative solver
           353 MiB given to the printing process from OS
             0 MiB allocation reported by mallinfo(arena+hblkhd)
        200527 MiB available memory on the node where the printing process lives
------------------
     ethr =  1.75E-08,  avg # of iterations =  1.3

     negative rho (up, down):  4.168E-02 0.000E+00

     total cpu time spent up to now is       54.8 secs

     total energy              =   -1110.11427463 Ry
     estimated scf accuracy    <       0.00000287 Ry

     iteration # 10     ecut=    30.00 Ry     beta= 0.70
     Davidson diagonalization with overlap

---- Real-time Memory Report at c_bands before calling an iterative solver
           353 MiB given to the printing process from OS
             0 MiB allocation reported by mallinfo(arena+hblkhd)
        199939 MiB available memory on the node where the printing process lives
------------------
     ethr =  2.18E-09,  avg # of iterations =  1.2

     negative rho (up, down):  4.168E-02 0.000E+00

     total cpu time spent up to now is       58.0 secs

     End of self-consistent calculation

          k = 0.0000 0.0000 0.0000 (  4275 PWs)   bands (ev):

   -15.2085 -15.0883 -15.0772 -15.0486 -15.0117 -12.3261 -12.0779 -11.9815
   -10.9944 -10.9466 -10.8299 -10.5926 -10.5049 -10.4523  -9.9997  -2.5515
    -0.2357  -0.1724  -0.1118   0.0417   0.1774   0.1956   0.3194   0.3630
     0.4508   0.5198   0.5256   0.5956   0.6096   0.6861   0.7322   0.7600
     0.8309   0.9020   0.9899   1.0776   1.2139   1.5336   1.7526   2.0389
     2.0706   2.4305   2.6449   2.6783   3.3095   3.4161   3.5543   3.6526
     3.6841   4.2809   4.5133   4.5765   4.9607   5.0902   5.2304   5.3925
     5.5897   5.6047   5.6975   5.8443   5.8602   6.0809   6.0837   6.4530
     6.4608   6.6393   9.2314  10.3902  10.9797  11.5375  11.6987  12.0949
    12.7507  13.1840  13.3994  13.6219  13.7616  15.3137  15.5630  15.9575
    16.5968  16.6400  16.9843  17.0463  17.6397  17.9084  18.5224  18.7656
    19.1497  19.3963  19.7340  19.7448  20.2316  20.5584  20.9816  21.3267
    21.5119  21.6813  21.7078  21.7503  22.6123  22.7842  23.0071  23.2200
    23.3205  23.4239  23.8621  23.8831  24.1373  24.2641  24.5249  24.5257
    25.3480  25.5603  25.8802  25.8862  26.0414  26.1299  26.9743  27.0306
    27.1118  27.6225  27.7466  27.9160  28.1285  28.3591  28.7923  28.9014
    29.1570  29.3814  29.7594  29.7756  29.8450  30.0113  30.1586  30.5489
    30.9055  31.0386  31.3220  31.8127  31.8988  32.0405  32.5203  32.5595
    32.5643  32.8177  33.0627  33.0867  33.3554  33.5773  33.5786  33.8041
    33.9652  34.0590  34.2020  34.2729  34.6051  35.0312  35.0577  35.3724
    35.5751  35.6947  35.9076  36.2916  36.3758  36.4609  36.8586  37.1988
    37.4129  37.7268  37.7999  37.9637  38.3073  38.5131  38.9637  39.1043
    39.1153  39.5210  39.7536  39.8205  40.0804  40.2316  40.6131  40.7755
    41.0363  41.2630  41.5772  41.6997  41.8182  42.2673  42.3222  42.7381
    42.9814  43.2023  43.4589  43.8134  43.8262  44.0619  44.3294  44.3666
    44.4258  44.4740  45.0885  45.1288  45.2394  45.4605  45.5142  45.6685
    45.8776  46.1242  46.2861  46.5835  46.6873  46.8318  46.8329  46.9316
    47.0623  47.0905  47.1910  47.2090  47.5914  47.5935  47.7309  47.9287
    47.9769  48.0136  48.4057  48.5630  48.5645  48.8251  48.8850  48.9914
    49.2731  49.3523  49.6535  49.8974  50.0097  50.0926  50.1318  50.4126
    50.7250  50.8628  50.9274  51.2738  51.3044  51.4108  51.6711  51.8864
    51.9146  51.9582  52.3459  52.8630  52.8688  52.9905  53.2581  53.4847

     occupation numbers 
     1.0000   1.0000   1.0000   1.0000   1.0000   1.0000   1.0000   1.0000
     1.0000   1.0000   1.0000   1.0000   1.0000   1.0000   1.0000   1.0000
     1.0000   1.0000   1.0000   1.0000   1.0000   1.0000   1.0000   1.0000
     1.0000   1.0000   1.0000   1.0000   1.0000   1.0000   1.0000   1.0000
     1.0000   1.0000   1.0000   1.0000   1.0000   1.0000   1.0000   1.0000
     1.0000   1.0000   1.0000   1.0000   1.0000   1.0000   1.0000   1.0000
     1.0000   1.0000   1.0000   1.0000   1.0000   1.0000   1.0000   1.0000
     1.0000   1.0000   1.0000   1.0000   1.0000   1.0000   1.0000   1.0000
     1.0000   1.0000   0.0000   0.0000   0.0000   0.0000   0.0000   0.0000
     0.0000   0.0000   0.0000   0.0000   0.0000   0.0000   0.0000   0.0000
     0.0000   0.0000   0.0000   0.0000   0.0000   0.0000   0.0000   0.0000
     0.0000   0.0000   0.0000   0.0000   0.0000   0.0000   0.0000   0.0000
     0.0000   0.0000   0.0000   0.0000   0.0000   0.0000   0.0000   0.0000
     0.0000   0.0000   0.0000   0.0000   0.0000   0.0000   0.0000   0.0000
     0.0000   0.0000   0.0000   0.0000   0.0000   0.0000   0.0000   0.0000
     0.0000   0.0000   0.0000   0.0000   0.0000   0.0000   0.0000   0.0000
     0.0000   0.0000   0.0000   0.0000   0.0000   0.0000   0.0000   0.0000
     0.0000   0.0000   0.0000   0.0000   0.0000   0.0000   0.0000   0.0000
     0.0000   0.0000   0.0000   0.0000   0.0000   0.0000   0.0000   0.0000
     0.0000   0.0000   0.0000   0.0000   0.0000   0.0000   0.0000   0.0000
     0.0000   0.0000   0.0000   0.0000   0.0000   0.0000   0.0000   0.0000
     0.0000   0.0000   0.0000   0.0000   0.0000   0.0000   0.0000   0.0000
     0.0000   0.0000   0.0000   0.0000   0.0000   0.0000   0.0000   0.0000
     0.0000   0.0000   0.0000   0.0000   0.0000   0.0000   0.0000   0.0000
     0.0000   0.0000   0.0000   0.0000   0.0000   0.0000   0.0000   0.0000
     0.0000   0.0000   0.0000   0.0000   0.0000   0.0000   0.0000   0.0000
     0.0000   0.0000   0.0000   0.0000   0.0000   0.0000   0.0000   0.0000
     0.0000   0.0000   0.0000   0.0000   0.0000   0.0000   0.0000   0.0000
     0.0000   0.0000   0.0000   0.0000   0.0000   0.0000   0.0000   0.0000
     0.0000   0.0000   0.0000   0.0000   0.0000   0.0000   0.0000   0.0000
     0.0000   0.0000   0.0000   0.0000   0.0000   0.0000   0.0000   0.0000
     0.0000   0.0000   0.0000   0.0000   0.0000   0.0000   0.0000   0.0000

          k = 0.0000 0.0000 0.1482 (  4290 PWs)   bands (ev):

   -15.2084 -15.0883 -15.0772 -15.0486 -15.0117 -12.2715 -12.1357 -12.0019
   -11.0029 -10.8927 -10.7871 -10.6298 -10.5455 -10.4491  -9.9894  -2.5591
    -0.1777  -0.1367  -0.1084   0.0519   0.0963   0.1413   0.3225   0.3869
     0.4142   0.4562   0.4722   0.5306   0.6269   0.7014   0.7501   0.8158
     0.8502   0.9315   1.0008   1.0629   1.2732   1.5040   1.6600   2.0490
     2.2808   2.5074   2.6582   2.7689   2.9870   3.3852   3.5084   3.5435
     3.8608   4.2168   4.4782   4.7573   4.9452   5.0117   5.1895   5.2874
     5.4795   5.5370   5.6921   5.8802   5.9606   6.0411   6.2587   6.3257
     6.5829   6.7558   9.3940  10.3695  10.7060  11.2415  11.7260  12.4001
    12.8319  13.2482  13.3195  13.5660  13.8923  15.2763  15.5125  15.5878
    16.3546  16.6646  16.9815  17.4799  17.5710  18.1783  18.6821  18.8586
    19.1654  19.4579  19.6544  19.8404  20.1142  20.3203  20.7343  20.9821
    21.2505  21.3663  21.7759  22.3866  22.7122  22.9414  23.0074  23.2724
    23.5510  23.6827  23.8155  23.9932  24.2322  24.3147  24.8800  24.9807
    25.0967  25.3894  25.5653  25.8409  26.1767  26.3725  26.5528  26.7270
    26.9757  27.2851  27.5500  27.8130  28.3101  28.3215  28.7835  28.9000
    29.0818  29.2362  29.5121  29.6943  30.0332  30.1719  30.2799  30.5439
    30.7596  31.0648  31.1899  31.6913  31.8136  32.0097  32.2437  32.4663
    32.6028  32.8707  32.9390  33.0955  33.4462  33.5934  33.7504  33.7775
    33.7972  33.9372  34.3632  34.5206  34.8609  34.9580  35.2042  35.4898
    35.7041  35.8630  36.1126  36.3079  36.6843  36.8112  37.1220  37.4245
    37.6654  37.7659  37.8424  37.9211  38.3589  38.5817  38.8772  38.9593
    39.2382  39.5676  39.8182  39.9004  40.1126  40.2537  40.4289  40.6711
    40.8906  41.1326  41.3790  41.6058  41.7444  41.8506  42.2675  42.4023
    42.6579  43.0492  43.2292  43.6336  43.8270  43.9095  44.2382  44.5017
    44.5239  44.7984  44.8986  44.9999  45.3350  45.4034  45.4862  45.8345
    45.9665  46.0796  46.2563  46.4237  46.6006  46.7697  46.8202  46.8302
    47.0165  47.0969  47.1882  47.1917  47.4448  47.5415  47.6621  47.8768
    47.9975  48.1103  48.2473  48.2864  48.4806  48.7314  49.0538  49.1275
    49.3800  49.4960  49.5356  49.8840  50.0716  50.3577  50.5544  50.7025
    50.8561  50.8676  51.1117  51.3207  51.3638  51.6268  51.6775  51.9363
    52.0792  52.2482  52.4951  52.5595  52.8185  52.9498  53.2199  53.3971

     occupation numbers 
     1.0000   1.0000   1.0000   1.0000   1.0000   1.0000   1.0000   1.0000
     1.0000   1.0000   1.0000   1.0000   1.0000   1.0000   1.0000   1.0000
     1.0000   1.0000   1.0000   1.0000   1.0000   1.0000   1.0000   1.0000
     1.0000   1.0000   1.0000   1.0000   1.0000   1.0000   1.0000   1.0000
     1.0000   1.0000   1.0000   1.0000   1.0000   1.0000   1.0000   1.0000
     1.0000   1.0000   1.0000   1.0000   1.0000   1.0000   1.0000   1.0000
     1.0000   1.0000   1.0000   1.0000   1.0000   1.0000   1.0000   1.0000
     1.0000   1.0000   1.0000   1.0000   1.0000   1.0000   1.0000   1.0000
     1.0000   1.0000   0.0000   0.0000   0.0000   0.0000   0.0000   0.0000
     0.0000   0.0000   0.0000   0.0000   0.0000   0.0000   0.0000   0.0000
     0.0000   0.0000   0.0000   0.0000   0.0000   0.0000   0.0000   0.0000
     0.0000   0.0000   0.0000   0.0000   0.0000   0.0000   0.0000   0.0000
     0.0000   0.0000   0.0000   0.0000   0.0000   0.0000   0.0000   0.0000
     0.0000   0.0000   0.0000   0.0000   0.0000   0.0000   0.0000   0.0000
     0.0000   0.0000   0.0000   0.0000   0.0000   0.0000   0.0000   0.0000
     0.0000   0.0000   0.0000   0.0000   0.0000   0.0000   0.0000   0.0000
     0.0000   0.0000   0.0000   0.0000   0.0000   0.0000   0.0000   0.0000
     0.0000   0.0000   0.0000   0.0000   0.0000   0.0000   0.0000   0.0000
     0.0000   0.0000   0.0000   0.0000   0.0000   0.0000   0.0000   0.0000
     0.0000   0.0000   0.0000   0.0000   0.0000   0.0000   0.0000   0.0000
     0.0000   0.0000   0.0000   0.0000   0.0000   0.0000   0.0000   0.0000
     0.0000   0.0000   0.0000   0.0000   0.0000   0.0000   0.0000   0.0000
     0.0000   0.0000   0.0000   0.0000   0.0000   0.0000   0.0000   0.0000
     0.0000   0.0000   0.0000   0.0000   0.0000   0.0000   0.0000   0.0000
     0.0000   0.0000   0.0000   0.0000   0.0000   0.0000   0.0000   0.0000
     0.0000   0.0000   0.0000   0.0000   0.0000   0.0000   0.0000   0.0000
     0.0000   0.0000   0.0000   0.0000   0.0000   0.0000   0.0000   0.0000
     0.0000   0.0000   0.0000   0.0000   0.0000   0.0000   0.0000   0.0000
     0.0000   0.0000   0.0000   0.0000   0.0000   0.0000   0.0000   0.0000
     0.0000   0.0000   0.0000   0.0000   0.0000   0.0000   0.0000   0.0000
     0.0000   0.0000   0.0000   0.0000   0.0000   0.0000   0.0000   0.0000
     0.0000   0.0000   0.0000   0.0000   0.0000   0.0000   0.0000   0.0000

          k = 0.0000 0.1487-0.0741 (  4276 PWs)   bands (ev):

   -15.2084 -15.0883 -15.0772 -15.0486 -15.0117 -12.2616 -12.1259 -12.0213
   -10.9960 -10.9217 -10.7857 -10.6517 -10.4936 -10.4597  -9.9851  -2.5598
    -0.2926  -0.1940  -0.0292   0.0170   0.1621   0.2071   0.2592   0.3168
     0.4218   0.4907   0.5296   0.5683   0.6387   0.7021   0.7263   0.7543
     0.8350   0.9121   1.0026   1.0734   1.3570   1.5609   1.7862   2.0320
     2.1739   2.5185   2.6735   2.7321   3.0439   3.2847   3.4232   3.6606
     4.0610   4.2778   4.3999   4.6934   4.7991   5.0929   5.2257   5.3770
     5.4625   5.5426   5.5767   5.7968   5.9023   6.0086   6.2564   6.4226
     6.6252   6.7047   9.4547  10.2617  10.6465  11.5774  11.9043  12.0905
    12.7881  13.2776  13.3655  13.7197  14.1867  14.9343  15.3466  15.5854
    16.0730  16.5601  16.9146  17.4720  17.8123  18.2426  18.6782  18.7896
    19.4225  19.4943  19.7095  19.8161  20.2452  20.4214  20.7145  20.9626
    21.3852  21.5796  21.8414  22.1566  22.6124  22.6619  23.1348  23.3288
    23.3963  23.6425  23.7883  24.0303  24.1885  24.4688  24.5303  24.7561
    25.2236  25.3252  25.4902  25.8359  25.9401  26.2941  26.6398  26.9857
    27.2018  27.4055  27.5007  27.8726  28.0672  28.4280  28.5707  28.7199
    29.0645  29.2498  29.5205  29.7581  29.9424  30.1825  30.4269  30.8105
    30.9361  31.2968  31.5859  31.6723  31.9891  32.1327  32.3130  32.5270
    32.7319  32.9453  33.1058  33.2499  33.2958  33.5159  33.7192  33.7605
    33.8032  34.0388  34.2633  34.5335  34.7032  34.9157  35.2340  35.3755
    35.5098  35.6522  35.9113  36.1815  36.4575  36.8659  36.9538  37.1580
    37.4697  37.6238  37.8386  38.0811  38.1573  38.4664  38.6017  38.9816
    39.1373  39.2595  39.4849  39.8172  40.0275  40.3464  40.5358  40.7316
    41.0710  41.1811  41.3682  41.6587  41.9871  42.2019  42.4306  42.6684
    42.9552  43.1016  43.2775  43.4570  43.7672  43.8850  44.0903  44.3299
    44.5564  44.8122  44.9056  45.2350  45.3947  45.5351  45.5983  45.8768
    46.0553  46.3480  46.4326  46.6035  46.7593  46.8258  46.8393  46.8721
    47.0081  47.1928  47.1951  47.2308  47.4140  47.5389  47.7323  47.8090
    47.9356  48.1536  48.4091  48.4246  48.5685  48.9427  49.0387  49.2789
    49.3619  49.5067  49.7575  49.8707  50.0498  50.2770  50.4789  50.7152
    50.8195  50.9469  51.0618  51.3338  51.4014  51.5368  51.7543  52.0059
    52.1525  52.2640  52.5093  52.6180  52.8008  53.0010  53.1442  53.4100

     occupation numbers 
     1.0000   1.0000   1.0000   1.0000   1.0000   1.0000   1.0000   1.0000
     1.0000   1.0000   1.0000   1.0000   1.0000   1.0000   1.0000   1.0000
     1.0000   1.0000   1.0000   1.0000   1.0000   1.0000   1.0000   1.0000
     1.0000   1.0000   1.0000   1.0000   1.0000   1.0000   1.0000   1.0000
     1.0000   1.0000   1.0000   1.0000   1.0000   1.0000   1.0000   1.0000
     1.0000   1.0000   1.0000   1.0000   1.0000   1.0000   1.0000   1.0000
     1.0000   1.0000   1.0000   1.0000   1.0000   1.0000   1.0000   1.0000
     1.0000   1.0000   1.0000   1.0000   1.0000   1.0000   1.0000   1.0000
     1.0000   1.0000   0.0000   0.0000   0.0000   0.0000   0.0000   0.0000
     0.0000   0.0000   0.0000   0.0000   0.0000   0.0000   0.0000   0.0000
     0.0000   0.0000   0.0000   0.0000   0.0000   0.0000   0.0000   0.0000
     0.0000   0.0000   0.0000   0.0000   0.0000   0.0000   0.0000   0.0000
     0.0000   0.0000   0.0000   0.0000   0.0000   0.0000   0.0000   0.0000
     0.0000   0.0000   0.0000   0.0000   0.0000   0.0000   0.0000   0.0000
     0.0000   0.0000   0.0000   0.0000   0.0000   0.0000   0.0000   0.0000
     0.0000   0.0000   0.0000   0.0000   0.0000   0.0000   0.0000   0.0000
     0.0000   0.0000   0.0000   0.0000   0.0000   0.0000   0.0000   0.0000
     0.0000   0.0000   0.0000   0.0000   0.0000   0.0000   0.0000   0.0000
     0.0000   0.0000   0.0000   0.0000   0.0000   0.0000   0.0000   0.0000
     0.0000   0.0000   0.0000   0.0000   0.0000   0.0000   0.0000   0.0000
     0.0000   0.0000   0.0000   0.0000   0.0000   0.0000   0.0000   0.0000
     0.0000   0.0000   0.0000   0.0000   0.0000   0.0000   0.0000   0.0000
     0.0000   0.0000   0.0000   0.0000   0.0000   0.0000   0.0000   0.0000
     0.0000   0.0000   0.0000   0.0000   0.0000   0.0000   0.0000   0.0000
     0.0000   0.0000   0.0000   0.0000   0.0000   0.0000   0.0000   0.0000
     0.0000   0.0000   0.0000   0.0000   0.0000   0.0000   0.0000   0.0000
     0.0000   0.0000   0.0000   0.0000   0.0000   0.0000   0.0000   0.0000
     0.0000   0.0000   0.0000   0.0000   0.0000   0.0000   0.0000   0.0000
     0.0000   0.0000   0.0000   0.0000   0.0000   0.0000   0.0000   0.0000
     0.0000   0.0000   0.0000   0.0000   0.0000   0.0000   0.0000   0.0000
     0.0000   0.0000   0.0000   0.0000   0.0000   0.0000   0.0000   0.0000
     0.0000   0.0000   0.0000   0.0000   0.0000   0.0000   0.0000   0.0000

          k = 0.0000 0.1487-0.2224 (  4261 PWs)   bands (ev):

   -15.2084 -15.0883 -15.0772 -15.0486 -15.0117 -12.1945 -12.1829 -12.0446
   -10.9674 -10.9250 -10.7471 -10.6966 -10.5010 -10.4611  -9.9805  -2.5628
    -0.2531  -0.2125  -0.0082   0.0053   0.1117   0.1872   0.2880   0.2983
     0.4358   0.4868   0.5106   0.5437   0.6498   0.7039   0.7566   0.7773
     0.8469   0.9317   1.0101   1.0665   1.3947   1.5577   1.7431   2.0293
     2.2100   2.4820   2.6607   2.8721   3.0601   3.2071   3.3488   3.7861
     4.0214   4.1777   4.5149   4.5699   4.8190   5.1617   5.2338   5.3058
     5.4373   5.4692   5.6416   5.8322   5.8963   5.9970   6.3225   6.3775
     6.7033   6.7510   9.7165   9.8622  10.9386  11.4110  11.5032  12.4859
    12.8423  13.2857  13.4100  13.5313  14.4527  14.7723  15.2938  15.6141
    15.8361  16.5664  17.0343  17.4833  17.8551  18.4135  18.6661  18.9398
    19.4293  19.4470  19.6381  19.8109  20.1805  20.3801  20.6146  20.7707
    21.2749  21.5316  21.9042  22.4934  22.6431  22.7878  23.1101  23.2421
    23.4976  23.5616  23.9602  24.0745  24.1081  24.5405  24.8851  24.9230
    25.0082  25.4418  25.5473  25.9171  26.0595  26.1011  26.4200  26.6201
    26.9707  27.3407  27.4707  27.7257  28.1294  28.3468  28.4696  28.7797
    29.0518  29.2410  29.5710  29.9169  29.9505  30.3960  30.4679  30.8640
    30.9643  31.2716  31.3976  31.4741  31.8107  31.9728  32.3803  32.4047
    32.6741  32.9702  33.1534  33.2583  33.4825  33.5397  33.8055  33.8118
    33.8719  34.1327  34.1720  34.4159  34.5687  34.9358  35.2586  35.4302
    35.6633  35.8799  36.1039  36.4193  36.6954  36.8432  37.0105  37.2392
    37.3549  37.4194  37.7014  38.1411  38.2564  38.5257  38.5595  39.0438
    39.1733  39.4495  39.7825  39.9911  40.2168  40.2698  40.5539  40.6313
    40.7408  41.0737  41.4741  41.4876  41.7743  41.8764  42.2521  42.3144
    42.8291  43.0590  43.4585  43.6114  43.7928  43.9647  44.0134  44.3750
    44.7265  44.7341  44.9183  45.0917  45.3211  45.3949  45.5062  45.6613
    45.9558  46.2103  46.3074  46.4843  46.7924  46.8324  46.8482  47.0161
    47.0810  47.1275  47.2041  47.2056  47.5175  47.6095  47.7012  47.9306
    47.9609  48.3570  48.6628  48.6962  48.8219  48.8639  48.9164  49.2009
    49.2397  49.5390  49.6392  49.8339  50.1697  50.3539  50.5623  50.5792
    50.9249  51.0502  51.2029  51.2901  51.4415  51.5907  51.7761  51.8149
    52.0579  52.3046  52.3741  52.6112  52.7707  52.9482  53.2632  53.3348

     occupation numbers 
     1.0000   1.0000   1.0000   1.0000   1.0000   1.0000   1.0000   1.0000
     1.0000   1.0000   1.0000   1.0000   1.0000   1.0000   1.0000   1.0000
     1.0000   1.0000   1.0000   1.0000   1.0000   1.0000   1.0000   1.0000
     1.0000   1.0000   1.0000   1.0000   1.0000   1.0000   1.0000   1.0000
     1.0000   1.0000   1.0000   1.0000   1.0000   1.0000   1.0000   1.0000
     1.0000   1.0000   1.0000   1.0000   1.0000   1.0000   1.0000   1.0000
     1.0000   1.0000   1.0000   1.0000   1.0000   1.0000   1.0000   1.0000
     1.0000   1.0000   1.0000   1.0000   1.0000   1.0000   1.0000   1.0000
     1.0000   1.0000   0.0000   0.0000   0.0000   0.0000   0.0000   0.0000
     0.0000   0.0000   0.0000   0.0000   0.0000   0.0000   0.0000   0.0000
     0.0000   0.0000   0.0000   0.0000   0.0000   0.0000   0.0000   0.0000
     0.0000   0.0000   0.0000   0.0000   0.0000   0.0000   0.0000   0.0000
     0.0000   0.0000   0.0000   0.0000   0.0000   0.0000   0.0000   0.0000
     0.0000   0.0000   0.0000   0.0000   0.0000   0.0000   0.0000   0.0000
     0.0000   0.0000   0.0000   0.0000   0.0000   0.0000   0.0000   0.0000
     0.0000   0.0000   0.0000   0.0000   0.0000   0.0000   0.0000   0.0000
     0.0000   0.0000   0.0000   0.0000   0.0000   0.0000   0.0000   0.0000
     0.0000   0.0000   0.0000   0.0000   0.0000   0.0000   0.0000   0.0000
     0.0000   0.0000   0.0000   0.0000   0.0000   0.0000   0.0000   0.0000
     0.0000   0.0000   0.0000   0.0000   0.0000   0.0000   0.0000   0.0000
     0.0000   0.0000   0.0000   0.0000   0.0000   0.0000   0.0000   0.0000
     0.0000   0.0000   0.0000   0.0000   0.0000   0.0000   0.0000   0.0000
     0.0000   0.0000   0.0000   0.0000   0.0000   0.0000   0.0000   0.0000
     0.0000   0.0000   0.0000   0.0000   0.0000   0.0000   0.0000   0.0000
     0.0000   0.0000   0.0000   0.0000   0.0000   0.0000   0.0000   0.0000
     0.0000   0.0000   0.0000   0.0000   0.0000   0.0000   0.0000   0.0000
     0.0000   0.0000   0.0000   0.0000   0.0000   0.0000   0.0000   0.0000
     0.0000   0.0000   0.0000   0.0000   0.0000   0.0000   0.0000   0.0000
     0.0000   0.0000   0.0000   0.0000   0.0000   0.0000   0.0000   0.0000
     0.0000   0.0000   0.0000   0.0000   0.0000   0.0000   0.0000   0.0000
     0.0000   0.0000   0.0000   0.0000   0.0000   0.0000   0.0000   0.0000
     0.0000   0.0000   0.0000   0.0000   0.0000   0.0000   0.0000   0.0000

          k = 0.3333-0.0605-0.0000 (  4295 PWs)   bands (ev):

   -15.1599 -15.1248 -15.0881 -15.0725 -15.0157 -12.1054 -12.0024 -11.9348
   -10.8658 -10.8506 -10.7453 -10.5887 -10.5250 -10.5081  -9.6719  -2.6576
    -0.1954  -0.0706  -0.0028   0.1819   0.1822   0.2446   0.3182   0.3931
     0.4475   0.4824   0.4941   0.5724   0.6261   0.6389   0.7691   0.8558
     0.8595   0.8979   0.9358   0.9676   1.2817   1.5557   1.5750   1.9854
     2.0915   2.3264   2.3340   2.4341   2.5983   2.8469   3.0687   3.2263
     3.7192   3.8524   4.1610   4.2302   4.6726   4.9037   4.9958   5.0305
     5.1839   5.3091   5.4661   5.4838   5.9510   6.2123   6.2174   6.5056
     6.7731   6.8419  10.6801  11.3527  11.3816  12.0533  12.4537  12.6035
    12.6862  13.6290  13.9320  14.0325  14.5998  15.1203  15.3288  15.6587
    16.0516  16.1832  16.4136  16.5680  17.1920  17.7251  17.7277  18.3309
    18.3693  18.9176  19.3893  19.4664  19.8545  20.1514  20.5772  20.9222
    21.2293  21.3788  22.1049  22.1331  22.4618  22.5352  22.9862  23.0200
    23.7421  23.9712  24.2145  24.5369  24.6667  25.1330  25.3301  25.3416
    25.6456  25.7506  25.9739  26.2960  26.3726  26.9972  27.0068  27.3595
    27.7938  28.0648  28.1030  28.4441  28.5912  28.7181  29.0339  29.3456
    29.7557  30.1002  30.1867  30.4289  30.5417  30.7471  30.9180  31.3519
    31.3564  31.5678  31.6121  31.8901  31.9554  32.1570  32.4043  32.7418
    33.0677  33.0937  33.4081  33.4792  33.8012  33.8158  34.0767  34.1844
    34.3622  34.5693  34.8723  35.0952  35.1194  35.6006  35.7907  35.8845
    36.1543  36.3015  36.4885  36.6110  36.8540  36.9159  37.1067  37.1189
    37.8387  37.8464  38.0297  38.2674  38.3353  38.3499  38.6857  38.7221
    38.8527  39.0301  39.2978  39.3222  39.7830  39.8056  40.1123  40.2151
    40.5743  40.7808  40.8204  40.9879  41.2168  41.4554  41.5140  41.9806
    42.1154  42.4108  42.5258  42.8659  42.8839  43.1066  43.2637  43.3299
    43.4096  43.6474  43.8417  44.0260  44.0966  44.2214  44.6224  44.7003
    44.7973  45.0434  45.4422  45.4986  45.9121  45.9417  46.0515  46.3107
    46.4697  46.6486  46.8197  46.8367  47.0176  47.0273  47.1801  47.1915
    47.2122  47.2372  47.3078  47.5277  48.0401  48.0550  48.4820  48.6277
    48.7785  48.9973  49.1761  49.3434  49.4772  49.6718  49.7431  50.0736
    50.1034  50.1595  50.3590  50.6625  50.8563  51.0547  51.3328  51.4412
    51.4809  51.6638  51.8674  51.8833  52.2912  52.4597  52.5460  52.6556

     occupation numbers 
     1.0000   1.0000   1.0000   1.0000   1.0000   1.0000   1.0000   1.0000
     1.0000   1.0000   1.0000   1.0000   1.0000   1.0000   1.0000   1.0000
     1.0000   1.0000   1.0000   1.0000   1.0000   1.0000   1.0000   1.0000
     1.0000   1.0000   1.0000   1.0000   1.0000   1.0000   1.0000   1.0000
     1.0000   1.0000   1.0000   1.0000   1.0000   1.0000   1.0000   1.0000
     1.0000   1.0000   1.0000   1.0000   1.0000   1.0000   1.0000   1.0000
     1.0000   1.0000   1.0000   1.0000   1.0000   1.0000   1.0000   1.0000
     1.0000   1.0000   1.0000   1.0000   1.0000   1.0000   1.0000   1.0000
     1.0000   1.0000   0.0000   0.0000   0.0000   0.0000   0.0000   0.0000
     0.0000   0.0000   0.0000   0.0000   0.0000   0.0000   0.0000   0.0000
     0.0000   0.0000   0.0000   0.0000   0.0000   0.0000   0.0000   0.0000
     0.0000   0.0000   0.0000   0.0000   0.0000   0.0000   0.0000   0.0000
     0.0000   0.0000   0.0000   0.0000   0.0000   0.0000   0.0000   0.0000
     0.0000   0.0000   0.0000   0.0000   0.0000   0.0000   0.0000   0.0000
     0.0000   0.0000   0.0000   0.0000   0.0000   0.0000   0.0000   0.0000
     0.0000   0.0000   0.0000   0.0000   0.0000   0.0000   0.0000   0.0000
     0.0000   0.0000   0.0000   0.0000   0.0000   0.0000   0.0000   0.0000
     0.0000   0.0000   0.0000   0.0000   0.0000   0.0000   0.0000   0.0000
     0.0000   0.0000   0.0000   0.0000   0.0000   0.0000   0.0000   0.0000
     0.0000   0.0000   0.0000   0.0000   0.0000   0.0000   0.0000   0.0000
     0.0000   0.0000   0.0000   0.0000   0.0000   0.0000   0.0000   0.0000
     0.0000   0.0000   0.0000   0.0000   0.0000   0.0000   0.0000   0.0000
     0.0000   0.0000   0.0000   0.0000   0.0000   0.0000   0.0000   0.0000
     0.0000   0.0000   0.0000   0.0000   0.0000   0.0000   0.0000   0.0000
     0.0000   0.0000   0.0000   0.0000   0.0000   0.0000   0.0000   0.0000
     0.0000   0.0000   0.0000   0.0000   0.0000   0.0000   0.0000   0.0000
     0.0000   0.0000   0.0000   0.0000   0.0000   0.0000   0.0000   0.0000
     0.0000   0.0000   0.0000   0.0000   0.0000   0.0000   0.0000   0.0000
     0.0000   0.0000   0.0000   0.0000   0.0000   0.0000   0.0000   0.0000
     0.0000   0.0000   0.0000   0.0000   0.0000   0.0000   0.0000   0.0000
     0.0000   0.0000   0.0000   0.0000   0.0000   0.0000   0.0000   0.0000
     0.0000   0.0000   0.0000   0.0000   0.0000   0.0000   0.0000   0.0000

          k = 0.3333-0.0605 0.1482 (  4298 PWs)   bands (ev):

   -15.1599 -15.1247 -15.0881 -15.0725 -15.0157 -12.0823 -12.0169 -11.9490
   -10.8748 -10.8269 -10.7390 -10.5948 -10.5337 -10.5113  -9.6693  -2.6542
    -0.2162  -0.0637   0.0422   0.1405   0.1651   0.2723   0.3286   0.3636
     0.4148   0.4566   0.5197   0.5626   0.6260   0.6654   0.7697   0.8387
     0.8853   0.9123   0.9416   0.9939   1.2662   1.5036   1.6579   1.8911
     2.0929   2.2419   2.3576   2.5070   2.6897   2.8248   3.0535   3.3165
     3.6655   3.7494   4.1418   4.3917   4.5417   4.6690   4.8495   5.0623
     5.2710   5.4215   5.5232   5.7566   5.9536   6.0919   6.3175   6.5030
     6.6115   6.9813  10.6533  10.9027  11.6718  11.9160  12.3738  12.6740
    12.9638  13.6037  13.9541  14.0032  14.8915  15.0078  15.2729  15.4163
    15.8487  16.1288  16.3455  16.8153  17.2075  17.5553  17.9762  18.3413
    18.5583  18.8929  19.2034  19.5250  19.8538  20.3240  20.6494  21.0638
    21.1315  21.6789  21.8390  22.2049  22.5767  22.7867  22.9882  23.1640
    23.3160  23.7106  24.0172  24.3722  24.6037  24.8458  25.0705  25.2807
    25.5572  25.7231  26.0538  26.1905  26.4408  26.9923  27.2998  27.6060
    27.8110  27.9900  28.3285  28.4555  28.8268  29.0535  29.3907  29.6094
    29.7542  30.1002  30.2022  30.2937  30.4614  30.6894  30.8351  31.2349
    31.3738  31.5991  31.7505  31.9302  31.9964  32.2207  32.3797  32.6637
    32.8395  33.0049  33.3160  33.4240  33.5882  33.7451  33.8011  33.9830
    34.2923  34.6959  34.8026  34.9629  35.1170  35.2216  35.5504  35.7253
    35.9985  36.1086  36.3494  36.6640  36.8290  37.1004  37.2188  37.4123
    37.6576  37.8797  38.0308  38.1798  38.3377  38.4680  38.7256  38.8360
    39.1324  39.3566  39.4784  39.7621  39.8137  39.9805  40.2312  40.5525
    40.7063  40.9192  41.0953  41.1983  41.4260  41.6785  41.8213  42.0931
    42.1731  42.3046  42.4502  42.5474  42.7668  42.9505  43.2111  43.3534
    43.5422  43.6780  43.8488  44.0498  44.1736  44.3908  44.6240  44.7793
    44.8051  44.9646  45.1035  45.2895  45.6111  45.7559  45.9806  46.1147
    46.3468  46.4728  46.8148  46.8309  46.8347  46.9658  47.1645  47.1940
    47.2022  47.3327  47.4588  47.5750  47.8178  47.8964  48.2117  48.3011
    48.5771  48.6476  48.9301  49.0034  49.2538  49.3453  49.6481  49.8368
    50.1008  50.2599  50.3889  50.6247  50.8094  50.9384  51.1437  51.3057
    51.4998  51.7859  51.9271  52.1462  52.2644  52.3837  52.6089  52.8793

     occupation numbers 
     1.0000   1.0000   1.0000   1.0000   1.0000   1.0000   1.0000   1.0000
     1.0000   1.0000   1.0000   1.0000   1.0000   1.0000   1.0000   1.0000
     1.0000   1.0000   1.0000   1.0000   1.0000   1.0000   1.0000   1.0000
     1.0000   1.0000   1.0000   1.0000   1.0000   1.0000   1.0000   1.0000
     1.0000   1.0000   1.0000   1.0000   1.0000   1.0000   1.0000   1.0000
     1.0000   1.0000   1.0000   1.0000   1.0000   1.0000   1.0000   1.0000
     1.0000   1.0000   1.0000   1.0000   1.0000   1.0000   1.0000   1.0000
     1.0000   1.0000   1.0000   1.0000   1.0000   1.0000   1.0000   1.0000
     1.0000   1.0000   0.0000   0.0000   0.0000   0.0000   0.0000   0.0000
     0.0000   0.0000   0.0000   0.0000   0.0000   0.0000   0.0000   0.0000
     0.0000   0.0000   0.0000   0.0000   0.0000   0.0000   0.0000   0.0000
     0.0000   0.0000   0.0000   0.0000   0.0000   0.0000   0.0000   0.0000
     0.0000   0.0000   0.0000   0.0000   0.0000   0.0000   0.0000   0.0000
     0.0000   0.0000   0.0000   0.0000   0.0000   0.0000   0.0000   0.0000
     0.0000   0.0000   0.0000   0.0000   0.0000   0.0000   0.0000   0.0000
     0.0000   0.0000   0.0000   0.0000   0.0000   0.0000   0.0000   0.0000
     0.0000   0.0000   0.0000   0.0000   0.0000   0.0000   0.0000   0.0000
     0.0000   0.0000   0.0000   0.0000   0.0000   0.0000   0.0000   0.0000
     0.0000   0.0000   0.0000   0.0000   0.0000   0.0000   0.0000   0.0000
     0.0000   0.0000   0.0000   0.0000   0.0000   0.0000   0.0000   0.0000
     0.0000   0.0000   0.0000   0.0000   0.0000   0.0000   0.0000   0.0000
     0.0000   0.0000   0.0000   0.0000   0.0000   0.0000   0.0000   0.0000
     0.0000   0.0000   0.0000   0.0000   0.0000   0.0000   0.0000   0.0000
     0.0000   0.0000   0.0000   0.0000   0.0000   0.0000   0.0000   0.0000
     0.0000   0.0000   0.0000   0.0000   0.0000   0.0000   0.0000   0.0000
     0.0000   0.0000   0.0000   0.0000   0.0000   0.0000   0.0000   0.0000
     0.0000   0.0000   0.0000   0.0000   0.0000   0.0000   0.0000   0.0000
     0.0000   0.0000   0.0000   0.0000   0.0000   0.0000   0.0000   0.0000
     0.0000   0.0000   0.0000   0.0000   0.0000   0.0000   0.0000   0.0000
     0.0000   0.0000   0.0000   0.0000   0.0000   0.0000   0.0000   0.0000
     0.0000   0.0000   0.0000   0.0000   0.0000   0.0000   0.0000   0.0000
     0.0000   0.0000   0.0000   0.0000   0.0000   0.0000   0.0000   0.0000

          k = 0.3333 0.0882-0.0741 (  4296 PWs)   bands (ev):

   -15.1599 -15.1248 -15.0881 -15.0725 -15.0157 -12.0934 -12.0115 -11.9406
   -10.8664 -10.8380 -10.7481 -10.5911 -10.5383 -10.4996  -9.6710  -2.6541
    -0.2084  -0.0703   0.0190   0.1525   0.1941   0.2476   0.3056   0.3384
     0.4292   0.4909   0.5117   0.5568   0.6370   0.6648   0.7602   0.8203
     0.8840   0.9084   0.9511   0.9756   1.2009   1.5451   1.7867   2.0032
     2.1479   2.2967   2.4417   2.4756   2.6520   2.7155   2.9212   3.0448
     3.5571   3.9588   4.1670   4.3454   4.5829   4.6803   4.9920   5.1057
     5.2444   5.4638   5.5882   5.6391   5.9007   6.1859   6.3188   6.4297
     6.6343   6.8901  10.6675  11.0335  11.4539  12.0158  12.4138  12.7046
    12.8043  13.5924  13.9827  14.0374  14.8686  15.1400  15.3411  15.5906
    15.9400  16.0163  16.4465  16.7719  17.0515  17.6425  17.8477  18.1860
    18.5760  18.9242  19.0503  19.4263  19.7359  20.0977  20.7436  21.1632
    21.3018  21.6569  21.8968  22.1432  22.5303  22.6511  22.9225  23.2327
    23.6663  23.7360  24.1918  24.3760  24.4989  24.8909  25.0756  25.3556
    25.5938  25.8128  26.2005  26.3243  26.7799  26.8849  27.1481  27.5045
    27.9026  27.9912  28.1173  28.2446  28.7035  28.9695  29.2485  29.4640
    29.6082  29.8009  30.0196  30.1821  30.4555  30.7404  30.9551  31.2375
    31.5183  31.5791  31.8550  32.1395  32.2292  32.3221  32.5672  32.6859
    33.0036  33.0645  33.1649  33.4893  33.5482  33.8004  34.0081  34.1113
    34.2620  34.4255  34.5363  34.6915  35.0588  35.3715  35.6735  35.8103
    36.1493  36.2753  36.3623  36.7574  36.8169  37.1855  37.2213  37.4685
    37.5039  37.7201  37.9939  38.2243  38.4011  38.6306  38.7540  38.9551
    39.1100  39.2498  39.4794  39.5722  39.8398  39.9263  40.2118  40.4934
    40.6373  40.8738  40.9488  41.1716  41.3319  41.5492  41.7383  41.8467
    41.9653  42.1364  42.3072  42.4882  42.8294  42.9642  43.1333  43.2762
    43.4809  43.6461  43.8541  44.1184  44.2131  44.3873  44.5221  44.5896
    44.8254  45.0927  45.2795  45.4912  45.6064  45.8574  46.1416  46.3398
    46.4117  46.5839  46.8044  46.8253  46.8331  46.9223  47.1619  47.1873
    47.2000  47.2823  47.4367  47.7518  47.9813  48.0745  48.1865  48.3426
    48.4822  48.7173  48.9477  49.1842  49.4480  49.5013  49.6985  49.9072
    50.0850  50.3481  50.4441  50.6764  50.7290  50.9583  51.1088  51.4654
    51.5855  51.8498  52.0373  52.1209  52.3124  52.4766  52.7857  52.9723

     occupation numbers 
     1.0000   1.0000   1.0000   1.0000   1.0000   1.0000   1.0000   1.0000
     1.0000   1.0000   1.0000   1.0000   1.0000   1.0000   1.0000   1.0000
     1.0000   1.0000   1.0000   1.0000   1.0000   1.0000   1.0000   1.0000
     1.0000   1.0000   1.0000   1.0000   1.0000   1.0000   1.0000   1.0000
     1.0000   1.0000   1.0000   1.0000   1.0000   1.0000   1.0000   1.0000
     1.0000   1.0000   1.0000   1.0000   1.0000   1.0000   1.0000   1.0000
     1.0000   1.0000   1.0000   1.0000   1.0000   1.0000   1.0000   1.0000
     1.0000   1.0000   1.0000   1.0000   1.0000   1.0000   1.0000   1.0000
     1.0000   1.0000   0.0000   0.0000   0.0000   0.0000   0.0000   0.0000
     0.0000   0.0000   0.0000   0.0000   0.0000   0.0000   0.0000   0.0000
     0.0000   0.0000   0.0000   0.0000   0.0000   0.0000   0.0000   0.0000
     0.0000   0.0000   0.0000   0.0000   0.0000   0.0000   0.0000   0.0000
     0.0000   0.0000   0.0000   0.0000   0.0000   0.0000   0.0000   0.0000
     0.0000   0.0000   0.0000   0.0000   0.0000   0.0000   0.0000   0.0000
     0.0000   0.0000   0.0000   0.0000   0.0000   0.0000   0.0000   0.0000
     0.0000   0.0000   0.0000   0.0000   0.0000   0.0000   0.0000   0.0000
     0.0000   0.0000   0.0000   0.0000   0.0000   0.0000   0.0000   0.0000
     0.0000   0.0000   0.0000   0.0000   0.0000   0.0000   0.0000   0.0000
     0.0000   0.0000   0.0000   0.0000   0.0000   0.0000   0.0000   0.0000
     0.0000   0.0000   0.0000   0.0000   0.0000   0.0000   0.0000   0.0000
     0.0000   0.0000   0.0000   0.0000   0.0000   0.0000   0.0000   0.0000
     0.0000   0.0000   0.0000   0.0000   0.0000   0.0000   0.0000   0.0000
     0.0000   0.0000   0.0000   0.0000   0.0000   0.0000   0.0000   0.0000
     0.0000   0.0000   0.0000   0.0000   0.0000   0.0000   0.0000   0.0000
     0.0000   0.0000   0.0000   0.0000   0.0000   0.0000   0.0000   0.0000
     0.0000   0.0000   0.0000   0.0000   0.0000   0.0000   0.0000   0.0000
     0.0000   0.0000   0.0000   0.0000   0.0000   0.0000   0.0000   0.0000
     0.0000   0.0000   0.0000   0.0000   0.0000   0.0000   0.0000   0.0000
     0.0000   0.0000   0.0000   0.0000   0.0000   0.0000   0.0000   0.0000
     0.0000   0.0000   0.0000   0.0000   0.0000   0.0000   0.0000   0.0000
     0.0000   0.0000   0.0000   0.0000   0.0000   0.0000   0.0000   0.0000
     0.0000   0.0000   0.0000   0.0000   0.0000   0.0000   0.0000   0.0000

          k = 0.3333 0.0882-0.2224 (  4297 PWs)   bands (ev):

   -15.1599 -15.1248 -15.0881 -15.0725 -15.0157 -12.0642 -12.0357 -11.9487
   -10.8608 -10.8442 -10.7272 -10.6125 -10.5367 -10.5001  -9.6669  -2.6579
    -0.1931  -0.0383  -0.0160   0.1925   0.1972   0.2521   0.2701   0.3604
     0.4393   0.4480   0.4768   0.5689   0.6469   0.6516   0.7881   0.8406
     0.8669   0.9050   0.9107   1.0073   1.2793   1.3823   1.7232   2.0303
     2.1286   2.2965   2.3258   2.6148   2.7137   2.8774   3.0362   3.0811
     3.5399   3.7441   4.1025   4.4065   4.4870   4.5122   4.8623   5.1384
     5.4006   5.4801   5.6389   5.8332   5.9636   6.0811   6.3790   6.3938
     6.5947   6.9364  10.6594  10.7965  11.7107  11.8077  12.5005  12.7528
    12.9339  13.4862  14.0243  14.0393  14.7324  15.0351  15.1726  15.7702
    15.8012  16.1262  16.3631  16.8543  17.0897  17.4452  17.8635  18.2779
    18.7327  19.0385  19.3898  19.7615  19.9111  20.1098  20.3613  20.9456
    21.2958  21.6818  21.7344  22.1266  22.2916  22.5539  23.0276  23.0863
    23.6727  23.7503  24.2248  24.2646  24.7056  24.8108  24.9864  25.3622
    25.3797  26.0504  26.0824  26.3046  26.6895  26.7554  27.4873  27.5276
    27.8473  28.1035  28.3979  28.6455  28.6467  28.9920  29.3776  29.5343
    29.5628  29.7652  29.9434  30.2963  30.6135  30.9274  30.9469  31.1127
    31.2638  31.3614  31.7660  31.7942  32.1668  32.3206  32.3652  32.4839
    32.9368  32.9829  33.2336  33.3561  33.7999  33.8122  33.8437  34.1213
    34.3401  34.3657  34.7189  34.7635  35.1836  35.2677  35.4351  35.9051
    36.0271  36.3084  36.4834  36.5853  36.7674  37.0096  37.2755  37.6228
    37.8058  37.9539  38.0961  38.3883  38.4940  38.5388  38.7544  38.9884
    39.1802  39.3262  39.5247  39.6808  39.8404  39.8625  40.1266  40.1546
    40.4480  40.9896  41.2002  41.2930  41.3759  41.4302  41.8022  41.8683
    42.1151  42.2187  42.4638  42.6028  42.9506  43.0379  43.1206  43.5013
    43.6644  43.7295  44.1314  44.1418  44.2789  44.4014  44.6185  44.7953
    44.8175  44.8982  45.0747  45.3397  45.3967  45.5189  45.9203  45.9442
    46.3369  46.4823  46.5902  46.8206  46.8357  46.9131  47.0155  47.1629
    47.1787  47.2069  47.2547  47.5180  47.7357  47.9845  48.1567  48.2394
    48.4169  48.7419  48.7836  48.8923  49.2479  49.3112  49.6547  49.8645
    50.0130  50.3441  50.3552  50.9101  50.9284  51.1420  51.1643  51.4577
    51.4727  51.6455  51.6623  52.1089  52.2333  52.3260  52.8373  53.1020

     occupation numbers 
     1.0000   1.0000   1.0000   1.0000   1.0000   1.0000   1.0000   1.0000
     1.0000   1.0000   1.0000   1.0000   1.0000   1.0000   1.0000   1.0000
     1.0000   1.0000   1.0000   1.0000   1.0000   1.0000   1.0000   1.0000
     1.0000   1.0000   1.0000   1.0000   1.0000   1.0000   1.0000   1.0000
     1.0000   1.0000   1.0000   1.0000   1.0000   1.0000   1.0000   1.0000
     1.0000   1.0000   1.0000   1.0000   1.0000   1.0000   1.0000   1.0000
     1.0000   1.0000   1.0000   1.0000   1.0000   1.0000   1.0000   1.0000
     1.0000   1.0000   1.0000   1.0000   1.0000   1.0000   1.0000   1.0000
     1.0000   1.0000   0.0000   0.0000   0.0000   0.0000   0.0000   0.0000
     0.0000   0.0000   0.0000   0.0000   0.0000   0.0000   0.0000   0.0000
     0.0000   0.0000   0.0000   0.0000   0.0000   0.0000   0.0000   0.0000
     0.0000   0.0000   0.0000   0.0000   0.0000   0.0000   0.0000   0.0000
     0.0000   0.0000   0.0000   0.0000   0.0000   0.0000   0.0000   0.0000
     0.0000   0.0000   0.0000   0.0000   0.0000   0.0000   0.0000   0.0000
     0.0000   0.0000   0.0000   0.0000   0.0000   0.0000   0.0000   0.0000
     0.0000   0.0000   0.0000   0.0000   0.0000   0.0000   0.0000   0.0000
     0.0000   0.0000   0.0000   0.0000   0.0000   0.0000   0.0000   0.0000
     0.0000   0.0000   0.0000   0.0000   0.0000   0.0000   0.0000   0.0000
     0.0000   0.0000   0.0000   0.0000   0.0000   0.0000   0.0000   0.0000
     0.0000   0.0000   0.0000   0.0000   0.0000   0.0000   0.0000   0.0000
     0.0000   0.0000   0.0000   0.0000   0.0000   0.0000   0.0000   0.0000
     0.0000   0.0000   0.0000   0.0000   0.0000   0.0000   0.0000   0.0000
     0.0000   0.0000   0.0000   0.0000   0.0000   0.0000   0.0000   0.0000
     0.0000   0.0000   0.0000   0.0000   0.0000   0.0000   0.0000   0.0000
     0.0000   0.0000   0.0000   0.0000   0.0000   0.0000   0.0000   0.0000
     0.0000   0.0000   0.0000   0.0000   0.0000   0.0000   0.0000   0.0000
     0.0000   0.0000   0.0000   0.0000   0.0000   0.0000   0.0000   0.0000
     0.0000   0.0000   0.0000   0.0000   0.0000   0.0000   0.0000   0.0000
     0.0000   0.0000   0.0000   0.0000   0.0000   0.0000   0.0000   0.0000
     0.0000   0.0000   0.0000   0.0000   0.0000   0.0000   0.0000   0.0000
     0.0000   0.0000   0.0000   0.0000   0.0000   0.0000   0.0000   0.0000
     0.0000   0.0000   0.0000   0.0000   0.0000   0.0000   0.0000   0.0000

          k = 0.3333-0.2092 0.0741 (  4287 PWs)   bands (ev):

   -15.1599 -15.1247 -15.0881 -15.0725 -15.0158 -12.0613 -12.0315 -11.9532
   -10.8721 -10.8337 -10.7344 -10.6234 -10.5193 -10.5043  -9.6628  -2.6552
    -0.1128  -0.0922   0.0192   0.1411   0.1779   0.2660   0.3237   0.3719
     0.4008   0.4639   0.5257   0.5650   0.6401   0.6801   0.7747   0.8019
     0.8713   0.8859   0.9176   0.9723   1.1740   1.3748   1.6316   2.0310
     2.1850   2.2735   2.4174   2.5409   2.7109   2.9292   3.0660   3.1803
     3.6993   3.9278   4.0998   4.2815   4.5495   4.6867   4.9187   5.0346
     5.1648   5.3322   5.5485   5.7181   5.8435   6.1228   6.2944   6.4865
     6.7073   7.0041  10.7029  11.0853  11.5583  11.9412  12.4302  12.6683
    12.9406  13.3946  13.9762  14.0399  14.7822  14.9699  15.1965  15.8058
    16.0912  16.2686  16.4020  16.6102  16.9989  17.3462  17.8083  18.4090
    18.6533  18.9291  19.3004  19.5532  19.8548  20.0540  20.5753  21.1323
    21.2473  21.5924  21.8406  22.1491  22.3816  22.6814  22.9795  23.1062
    23.6501  23.9142  24.2979  24.5526  24.7416  24.9736  25.1015  25.3469
    25.5017  25.7115  26.0229  26.1219  26.5309  26.8430  27.0003  27.3616
    27.6132  27.8924  28.3310  28.4792  28.6823  28.9639  29.1508  29.5201
    29.7097  30.0229  30.1748  30.4677  30.6592  30.7099  31.0911  31.2186
    31.4757  31.6639  31.7659  31.9485  32.1664  32.3254  32.4484  32.7150
    32.9870  33.1314  33.3013  33.5258  33.7329  33.8065  33.8999  34.0805
    34.4467  34.5309  34.7591  34.9439  35.0889  35.2851  35.5106  35.7163
    35.9227  36.0066  36.4308  36.5976  36.7648  36.9641  37.1594  37.3224
    37.6036  37.6420  38.0173  38.1605  38.3041  38.5107  38.5753  38.7623
    38.9712  39.1783  39.4496  39.6303  39.7979  40.1293  40.3150  40.4149
    40.6250  40.8083  40.9428  41.0543  41.1784  41.4096  41.7480  41.9054
    42.1482  42.1612  42.4290  42.6193  42.8247  43.0264  43.1076  43.2589
    43.6867  43.7582  44.1483  44.2213  44.4164  44.4591  44.6428  44.8090
    44.8932  45.1522  45.3673  45.6964  45.8200  46.0277  46.2035  46.3841
    46.5608  46.6747  46.8236  46.8422  46.8775  46.9897  47.1934  47.1952
    47.2302  47.3804  47.5141  47.6054  47.8290  47.9825  48.2213  48.3684
    48.5433  48.7498  48.9254  49.0594  49.3623  49.4014  49.7392  49.8428
    50.0130  50.1180  50.3829  50.5252  50.7207  50.8820  51.0803  51.3249
    51.4270  51.7632  51.9897  52.1909  52.2353  52.4534  52.6921  52.8033

     occupation numbers 
     1.0000   1.0000   1.0000   1.0000   1.0000   1.0000   1.0000   1.0000
     1.0000   1.0000   1.0000   1.0000   1.0000   1.0000   1.0000   1.0000
     1.0000   1.0000   1.0000   1.0000   1.0000   1.0000   1.0000   1.0000
     1.0000   1.0000   1.0000   1.0000   1.0000   1.0000   1.0000   1.0000
     1.0000   1.0000   1.0000   1.0000   1.0000   1.0000   1.0000   1.0000
     1.0000   1.0000   1.0000   1.0000   1.0000   1.0000   1.0000   1.0000
     1.0000   1.0000   1.0000   1.0000   1.0000   1.0000   1.0000   1.0000
     1.0000   1.0000   1.0000   1.0000   1.0000   1.0000   1.0000   1.0000
     1.0000   1.0000   0.0000   0.0000   0.0000   0.0000   0.0000   0.0000
     0.0000   0.0000   0.0000   0.0000   0.0000   0.0000   0.0000   0.0000
     0.0000   0.0000   0.0000   0.0000   0.0000   0.0000   0.0000   0.0000
     0.0000   0.0000   0.0000   0.0000   0.0000   0.0000   0.0000   0.0000
     0.0000   0.0000   0.0000   0.0000   0.0000   0.0000   0.0000   0.0000
     0.0000   0.0000   0.0000   0.0000   0.0000   0.0000   0.0000   0.0000
     0.0000   0.0000   0.0000   0.0000   0.0000   0.0000   0.0000   0.0000
     0.0000   0.0000   0.0000   0.0000   0.0000   0.0000   0.0000   0.0000
     0.0000   0.0000   0.0000   0.0000   0.0000   0.0000   0.0000   0.0000
     0.0000   0.0000   0.0000   0.0000   0.0000   0.0000   0.0000   0.0000
     0.0000   0.0000   0.0000   0.0000   0.0000   0.0000   0.0000   0.0000
     0.0000   0.0000   0.0000   0.0000   0.0000   0.0000   0.0000   0.0000
     0.0000   0.0000   0.0000   0.0000   0.0000   0.0000   0.0000   0.0000
     0.0000   0.0000   0.0000   0.0000   0.0000   0.0000   0.0000   0.0000
     0.0000   0.0000   0.0000   0.0000   0.0000   0.0000   0.0000   0.0000
     0.0000   0.0000   0.0000   0.0000   0.0000   0.0000   0.0000   0.0000
     0.0000   0.0000   0.0000   0.0000   0.0000   0.0000   0.0000   0.0000
     0.0000   0.0000   0.0000   0.0000   0.0000   0.0000   0.0000   0.0000
     0.0000   0.0000   0.0000   0.0000   0.0000   0.0000   0.0000   0.0000
     0.0000   0.0000   0.0000   0.0000   0.0000   0.0000   0.0000   0.0000
     0.0000   0.0000   0.0000   0.0000   0.0000   0.0000   0.0000   0.0000
     0.0000   0.0000   0.0000   0.0000   0.0000   0.0000   0.0000   0.0000
     0.0000   0.0000   0.0000   0.0000   0.0000   0.0000   0.0000   0.0000
     0.0000   0.0000   0.0000   0.0000   0.0000   0.0000   0.0000   0.0000

          k = 0.3333-0.2092 0.2224 (  4291 PWs)   bands (ev):

   -15.1599 -15.1247 -15.0881 -15.0725 -15.0157 -12.0474 -12.0411 -11.9598
   -10.8663 -10.8311 -10.7406 -10.6100 -10.5313 -10.5049  -9.6642  -2.6482
    -0.1407  -0.1260   0.0794   0.1186   0.1842   0.2463   0.3153   0.3618
     0.4309   0.4385   0.5197   0.5601   0.6445   0.7056   0.7318   0.8523
     0.8614   0.8844   0.9216   0.9941   1.1185   1.5686   1.5715   1.9999
     2.0808   2.3213   2.4234   2.5539   2.7093   2.9705   3.0966   3.0989
     3.5251   3.7320   4.2071   4.5188   4.5834   4.6647   4.9432   5.1620
     5.2172   5.3063   5.4876   5.6513   5.8952   6.0498   6.2392   6.5757
     6.6200   7.0462  10.7267  10.9923  11.4094  12.0468  12.3233  12.9036
    12.9515  13.2449  13.9855  14.0323  15.0370  15.1864  15.3426  15.3912
    15.8327  16.3826  16.4311  16.7967  16.8654  17.3731  17.9356  18.2866
    18.5397  18.7816  18.9904  19.3941  19.9605  20.1826  20.7808  21.2023
    21.3247  21.5434  22.0704  22.3856  22.7406  22.8190  23.1968  23.2566
    23.3554  23.6649  24.1375  24.2073  24.6165  24.7761  24.9761  25.0298
    25.4887  25.7872  25.8209  26.1163  26.5003  26.8148  27.1801  27.5238
    27.6725  28.1142  28.3083  28.4585  28.9526  29.0021  29.3304  29.6136
    29.8068  29.9025  30.2004  30.4641  30.5360  30.8016  31.1000  31.1848
    31.4740  31.5115  31.8602  32.1899  32.3287  32.4675  32.5915  32.7266
    33.0370  33.1175  33.2376  33.4861  33.6144  33.8041  33.8604  34.0301
    34.2069  34.2322  34.4579  34.5146  34.9340  35.0840  35.2648  35.7307
    35.7506  35.8545  36.3698  36.7785  36.8544  37.0042  37.1709  37.3891
    37.7967  37.9067  38.0593  38.3656  38.3887  38.5884  38.7690  38.9556
    39.1921  39.4235  39.4856  39.7432  39.7867  39.8920  40.1889  40.3434
    40.4874  40.8600  40.9633  41.0508  41.2757  41.5843  41.7071  41.9776
    42.0287  42.2591  42.3769  42.7146  42.7352  43.0247  43.3789  43.3913
    43.5618  43.6130  44.0629  44.0715  44.2332  44.3029  44.7467  44.8518
    45.0137  45.2889  45.4697  45.6424  45.6491  45.9664  45.9991  46.4544
    46.4905  46.6337  46.7449  46.8305  46.8350  46.9879  47.1931  47.1999
    47.4151  47.4329  47.7222  47.8756  47.9281  48.0937  48.2540  48.2551
    48.5099  48.6278  48.9540  49.2011  49.2367  49.3669  49.6882  49.7076
    50.0505  50.1486  50.4161  50.6104  50.6144  50.8641  51.3024  51.3403
    51.4597  51.7714  51.8937  51.9962  52.1190  52.1477  52.3997  52.7295

     occupation numbers 
     1.0000   1.0000   1.0000   1.0000   1.0000   1.0000   1.0000   1.0000
     1.0000   1.0000   1.0000   1.0000   1.0000   1.0000   1.0000   1.0000
     1.0000   1.0000   1.0000   1.0000   1.0000   1.0000   1.0000   1.0000
     1.0000   1.0000   1.0000   1.0000   1.0000   1.0000   1.0000   1.0000
     1.0000   1.0000   1.0000   1.0000   1.0000   1.0000   1.0000   1.0000
     1.0000   1.0000   1.0000   1.0000   1.0000   1.0000   1.0000   1.0000
     1.0000   1.0000   1.0000   1.0000   1.0000   1.0000   1.0000   1.0000
     1.0000   1.0000   1.0000   1.0000   1.0000   1.0000   1.0000   1.0000
     1.0000   1.0000   0.0000   0.0000   0.0000   0.0000   0.0000   0.0000
     0.0000   0.0000   0.0000   0.0000   0.0000   0.0000   0.0000   0.0000
     0.0000   0.0000   0.0000   0.0000   0.0000   0.0000   0.0000   0.0000
     0.0000   0.0000   0.0000   0.0000   0.0000   0.0000   0.0000   0.0000
     0.0000   0.0000   0.0000   0.0000   0.0000   0.0000   0.0000   0.0000
     0.0000   0.0000   0.0000   0.0000   0.0000   0.0000   0.0000   0.0000
     0.0000   0.0000   0.0000   0.0000   0.0000   0.0000   0.0000   0.0000
     0.0000   0.0000   0.0000   0.0000   0.0000   0.0000   0.0000   0.0000
     0.0000   0.0000   0.0000   0.0000   0.0000   0.0000   0.0000   0.0000
     0.0000   0.0000   0.0000   0.0000   0.0000   0.0000   0.0000   0.0000
     0.0000   0.0000   0.0000   0.0000   0.0000   0.0000   0.0000   0.0000
     0.0000   0.0000   0.0000   0.0000   0.0000   0.0000   0.0000   0.0000
     0.0000   0.0000   0.0000   0.0000   0.0000   0.0000   0.0000   0.0000
     0.0000   0.0000   0.0000   0.0000   0.0000   0.0000   0.0000   0.0000
     0.0000   0.0000   0.0000   0.0000   0.0000   0.0000   0.0000   0.0000
     0.0000   0.0000   0.0000   0.0000   0.0000   0.0000   0.0000   0.0000
     0.0000   0.0000   0.0000   0.0000   0.0000   0.0000   0.0000   0.0000
     0.0000   0.0000   0.0000   0.0000   0.0000   0.0000   0.0000   0.0000
     0.0000   0.0000   0.0000   0.0000   0.0000   0.0000   0.0000   0.0000
     0.0000   0.0000   0.0000   0.0000   0.0000   0.0000   0.0000   0.0000
     0.0000   0.0000   0.0000   0.0000   0.0000   0.0000   0.0000   0.0000
     0.0000   0.0000   0.0000   0.0000   0.0000   0.0000   0.0000   0.0000
     0.0000   0.0000   0.0000   0.0000   0.0000   0.0000   0.0000   0.0000
     0.0000   0.0000   0.0000   0.0000   0.0000   0.0000   0.0000   0.0000

     highest occupied, lowest unoccupied level (ev):     7.0462    9.2314

!    total energy              =   -1110.11427510 Ry
     estimated scf accuracy    <       0.00000024 Ry

     The total energy is the sum of the following terms:
     one-electron contribution =    -262.75143595 Ry
     hartree contribution      =     238.83056261 Ry
     xc contribution           =    -320.04589373 Ry
     ewald contribution        =    -670.94716103 Ry
     one-center paw contrib.   =     -95.20034702 Ry
      -> PAW hartree energy AE =       0.00000000 Ry
      -> PAW hartree energy PS =       0.00000000 Ry
      -> PAW xc energy AE      =       0.00000000 Ry
      -> PAW xc energy PS      =       0.00000000 Ry
      -> total E_H with PAW    =     238.83056261 Ry
      -> total E_XC with PAW   =    -320.04589373 Ry

     convergence has been achieved in  10 iterations

     Writing all to output data dir bands_nm/myprefix.save/
 
     init_run     :      6.46s CPU      1.76s WALL (       1 calls)
     electrons    :    203.54s CPU     56.09s WALL (       1 calls)

     Called by init_run:
     wfcinit      :      3.41s CPU      0.88s WALL (       1 calls)
     wfcinit:atom :      0.01s CPU      0.00s WALL (       5 calls)
     wfcinit:wfcr :      3.28s CPU      0.85s WALL (       5 calls)
     potinit      :      0.82s CPU      0.21s WALL (       1 calls)
     hinit0       :      1.90s CPU      0.58s WALL (       1 calls)

     Called by electrons:
     c_bands      :    184.99s CPU     51.11s WALL (      10 calls)
     sum_band     :     14.84s CPU      3.96s WALL (      10 calls)
     v_of_rho     :      0.53s CPU      0.14s WALL (      11 calls)
     v_h          :      0.04s CPU      0.01s WALL (      11 calls)
     v_xc         :      0.49s CPU      0.13s WALL (      11 calls)
     newd         :      1.74s CPU      0.47s WALL (      11 calls)
     PAW_pot      :      1.10s CPU      0.29s WALL (      11 calls)
     mix_rho      :      0.12s CPU      0.03s WALL (      10 calls)

     Called by c_bands:
     init_us_2    :      0.22s CPU      0.06s WALL (     105 calls)
     init_us_2:cp :      0.21s CPU      0.06s WALL (     105 calls)
     cegterg      :    158.94s CPU     41.11s WALL (      50 calls)

     Called by sum_band:
     sum_band:wei :      0.00s CPU      0.00s WALL (      10 calls)
     sum_band:loo :      9.90s CPU      2.57s WALL (      10 calls)
     sum_band:buf :      0.16s CPU      0.04s WALL (      50 calls)
     sum_band:ini :      0.10s CPU      0.03s WALL (      50 calls)
     sum_band:cal :      2.28s CPU      0.57s WALL (      50 calls)
     sum_band:bec :      0.05s CPU      0.02s WALL (      50 calls)
     addusdens    :      1.19s CPU      0.39s WALL (      10 calls)
     addusd:skk   :      0.01s CPU      0.00s WALL (      40 calls)
     addusd:dgemm :      0.33s CPU      0.16s WALL (      40 calls)
     addusd:qvan2 :      0.71s CPU      0.19s WALL (      40 calls)

     Called by *egterg:
     cdiaghg      :     61.73s CPU     16.26s WALL (     283 calls)
     cegterg:over :     16.07s CPU      4.06s WALL (     233 calls)
     cegterg:upda :      8.41s CPU      2.15s WALL (     233 calls)
     cegterg:last :     21.99s CPU      5.56s WALL (     105 calls)
     cdiaghg:chol :      3.78s CPU      1.00s WALL (     283 calls)
     cdiaghg:inve :      1.25s CPU      0.33s WALL (     283 calls)
     cdiaghg:para :     13.78s CPU      3.69s WALL (     566 calls)
     h_psi        :     42.48s CPU     11.00s WALL (     288 calls)
     s_psi        :      5.33s CPU      1.35s WALL (     288 calls)
     g_psi        :      0.03s CPU      0.02s WALL (     233 calls)

     Called by h_psi:
     h_psi:calbec :      5.65s CPU      1.43s WALL (     288 calls)
     vloc_psi     :     31.58s CPU      8.20s WALL (     288 calls)
     add_vuspsi   :      5.11s CPU      1.32s WALL (     288 calls)

     General routines
     calbec       :      7.93s CPU      2.01s WALL (     338 calls)
     fft          :      0.50s CPU      0.14s WALL (     141 calls)
     ffts         :      0.04s CPU      0.01s WALL (      21 calls)
     fftw         :     36.53s CPU      8.64s WALL (   74998 calls)
     interpolate  :      0.05s CPU      0.01s WALL (      11 calls)
 
     Parallel routines

     PAW routines
     PAW_pot      :      1.10s CPU      0.29s WALL (      11 calls)
     PAW_symme    :      0.01s CPU      0.00s WALL (      21 calls)
 
     PWSCF        :   3m31.02s CPU     58.82s WALL

 
   This run was terminated on:  22: 2:30  15Jul2023            

=------------------------------------------------------------------------------=
   JOB DONE.
=------------------------------------------------------------------------------=
