
     Program PWSCF v.7.1 starts on 15Jul2023 at 14:35:20 

     This program is part of the open-source Quantum ESPRESSO suite
     for quantum simulation of materials; please cite
         "P. Giannozzi et al., J. Phys.:Condens. Matter 21 395502 (2009);
         "P. Giannozzi et al., J. Phys.:Condens. Matter 29 465901 (2017);
         "P. Giannozzi et al., J. Chem. Phys. 152 154105 (2020);
          URL http://www.quantum-espresso.org", 
     in publications or presentations arising from this work. More details at
     http://www.quantum-espresso.org/quote

     Parallel version (MPI & OpenMP), running on      32 processor cores
     Number of MPI processes:                 8
     Threads/MPI process:                     4

     MPI processes distributed on     1 nodes
     206650 MiB available memory on the printing compute node when the environment starts
 
     Reading input from espresso_4123.pwi
Warning: card &CELL ignored
Warning: card / ignored

     Current dimensions of program PWSCF are:
     Max number of different atomic species (ntypx) = 10
     Max number of k-points (npk) =  40000
     Max angular momentum in pseudopotentials (lmaxx) =  4
     Message from routine setup:
     the system is metallic, specify occupations
     Message from routine setup:
     using ibrav=0 with symmetry is DISCOURAGED, use correct ibrav instead
 
     K-points division:     npool     =       2
     R & G space division:  proc/nbgrp/npool/nimage =       4
     Subspace diagonalization in iterative solution of the eigenvalue problem:
     a serial algorithm will be used

 
     Parallelization info
     --------------------
     sticks:   dense  smooth     PW     G-vecs:    dense   smooth      PW
     Min         574     289     78                18230     6454     958
     Max         575     290     79                18233     6456     963
     Sum        2299    1159    313                72929    25821    3839
 
     Using Slab Decomposition
 


     bravais-lattice index     =            0
     lattice parameter (alat)  =      11.7935  a.u.
     unit-cell volume          =    1159.8720 (a.u.)^3
     number of atoms/cell      =           10
     number of atomic types    =            4
     number of electrons       =        83.00 (up:  43.00, down:  40.00)
     number of Kohn-Sham states=           64
     kinetic-energy cutoff     =      30.0000  Ry
     charge density cutoff     =     240.0000  Ry
     scf convergence threshold =      1.0E-06
     mixing beta               =       0.7000
     number of iterations used =            8  plain     mixing
     Exchange-correlation=  SLA  PW   PBX  PBC
                           (   1   4   3   4   0   0   0)

     celldm(1)=  11.793472  celldm(2)=   0.000000  celldm(3)=   0.000000
     celldm(4)=   0.000000  celldm(5)=   0.000000  celldm(6)=   0.000000

     crystal axes: (cart. coord. in units of alat)
               a(1) = (   1.000000   0.000000   0.000000 )  
               a(2) = (   0.500000   0.866025   0.000000 )  
               a(3) = (   0.500000   0.288675   0.816497 )  

     reciprocal axes: (cart. coord. in units 2 pi/alat)
               b(1) = (  1.000000 -0.577350 -0.408248 )  
               b(2) = (  0.000000  1.154701 -0.408248 )  
               b(3) = (  0.000000  0.000000  1.224745 )  


     PseudoPot. # 1 for Rb read from file:
     /lustre07/scratch/pragov/crystal_structure_design/utils/SSSP/Rb_ONCV_PBE-1.0.oncvpsp.upf
     MD5 check sum: 55a5172d6bfbce6759a58e35d43f6aa9
     Pseudo is Norm-conserving, Zval =  9.0
     Generated using ONCVPSP code by D. R. Hamann
     Using radial grid of 2308 points,  6 beta functions with: 
                l(1) =   0
                l(2) =   0
                l(3) =   1
                l(4) =   1
                l(5) =   2
                l(6) =   2

     PseudoPot. # 2 for Na read from file:
     /lustre07/scratch/pragov/crystal_structure_design/utils/SSSP/na_pbe_v1.5.uspp.F.UPF
     MD5 check sum: 44600605ef58000f06b90626533354dc
     Pseudo is Ultrasoft, Zval =  9.0
     Generated by new atomic code, or converted to UPF format
     Using radial grid of  819 points,  5 beta functions with: 
                l(1) =   0
                l(2) =   0
                l(3) =   1
                l(4) =   1
                l(5) =   2
     Q(r) pseudized with  8 coefficients,  rinner =    1.250   1.250   1.250
                                                       1.250   1.250

     PseudoPot. # 3 for Mo read from file:
     /lustre07/scratch/pragov/crystal_structure_design/utils/SSSP/Mo_ONCV_PBE-1.0.oncvpsp.upf
     MD5 check sum: 1b5d28e075c9ccadda658a603575cd1f
     Pseudo is Norm-conserving, Zval = 14.0
     Generated using ONCVPSP code by D. R. Hamann
     Using radial grid of 1526 points,  6 beta functions with: 
                l(1) =   0
                l(2) =   0
                l(3) =   1
                l(4) =   1
                l(5) =   2
                l(6) =   2

     PseudoPot. # 4 for F  read from file:
     /lustre07/scratch/pragov/crystal_structure_design/utils/SSSP/f_pbe_v1.4.uspp.F.UPF
     MD5 check sum: 4c38b6a325caf53ec0e86aed9459de46
     Pseudo is Ultrasoft, Zval =  7.0
     Generated by new atomic code, or converted to UPF format
     Using radial grid of  799 points,  4 beta functions with: 
                l(1) =   0
                l(2) =   0
                l(3) =   1
                l(4) =   1
     Q(r) pseudized with  8 coefficients,  rinner =    0.950   0.950   0.950


     atomic species   valence    mass     pseudopotential
        Rb             9.00    85.46780     Rb( 1.00)
        Na             9.00    22.98977     Na( 1.00)
        Mo            14.00    95.95000     Mo( 1.00)
        F              7.00    18.99840     F ( 1.00)

     Starting magnetic structure 
     atomic species   magnetization
        Rb           0.000
        Na           0.000
        Mo           0.000
        F            0.000

     12 Sym. Ops., with inversion, found


                                    s                        frac. trans.

      isym =  1     identity                                     

 cryst.   s( 1) = (     1          0          0      )
                  (     0          1          0      )
                  (     0          0          1      )

 cart.    s( 1) = (  1.0000000  0.0000000  0.0000000 )
                  (  0.0000000  1.0000000  0.0000000 )
                  (  0.0000000  0.0000000  1.0000000 )


      isym =  2     180 deg rotation - cart. axis [1,0,0]        

 cryst.   s( 2) = (     1          0          0      )
                  (     1         -1          0      )
                  (     1          0         -1      )

 cart.    s( 2) = (  1.0000000  0.0000000  0.0000000 )
                  (  0.0000000 -1.0000000  0.0000000 )
                  (  0.0000000  0.0000000 -1.0000000 )


      isym =  3     120 deg rotation - cryst. axis [0,0,1]       

 cryst.   s( 3) = (    -1          1          0      )
                  (    -1          0          0      )
                  (    -1          0          1      )

 cart.    s( 3) = ( -0.5000000 -0.8660254  0.0000000 )
                  (  0.8660254 -0.5000000  0.0000000 )
                  (  0.0000000  0.0000000  1.0000000 )


      isym =  4     120 deg rotation - cryst. axis [0,0,-1]      

 cryst.   s( 4) = (     0         -1          0      )
                  (     1         -1          0      )
                  (     0         -1          1      )

 cart.    s( 4) = ( -0.5000000  0.8660254 -0.0000000 )
                  ( -0.8660254 -0.5000000  0.0000000 )
                  (  0.0000000  0.0000000  1.0000000 )


      isym =  5     180 deg rotation - cryst. axis [0,1,0]       

 cryst.   s( 5) = (     0         -1          0      )
                  (    -1          0          0      )
                  (     0          0         -1      )

 cart.    s( 5) = ( -0.5000000 -0.8660254  0.0000000 )
                  ( -0.8660254  0.5000000 -0.0000000 )
                  (  0.0000000  0.0000000 -1.0000000 )


      isym =  6     180 deg rotation - cryst. axis [1,1,0]       

 cryst.   s( 6) = (    -1          1          0      )
                  (     0          1          0      )
                  (     0          1         -1      )

 cart.    s( 6) = ( -0.5000000  0.8660254 -0.0000000 )
                  (  0.8660254  0.5000000 -0.0000000 )
                  (  0.0000000  0.0000000 -1.0000000 )


      isym =  7     inversion                                    

 cryst.   s( 7) = (    -1          0          0      )
                  (     0         -1          0      )
                  (     0          0         -1      )

 cart.    s( 7) = ( -1.0000000  0.0000000  0.0000000 )
                  (  0.0000000 -1.0000000  0.0000000 )
                  (  0.0000000  0.0000000 -1.0000000 )


      isym =  8     inv. 180 deg rotation - cart. axis [1,0,0]   

 cryst.   s( 8) = (    -1          0          0      )
                  (    -1          1          0      )
                  (    -1          0          1      )

 cart.    s( 8) = ( -1.0000000  0.0000000  0.0000000 )
                  (  0.0000000  1.0000000  0.0000000 )
                  (  0.0000000  0.0000000  1.0000000 )


      isym =  9     inv. 120 deg rotation - cryst. axis [0,0,1]  

 cryst.   s( 9) = (     1         -1          0      )
                  (     1          0          0      )
                  (     1          0         -1      )

 cart.    s( 9) = (  0.5000000  0.8660254 -0.0000000 )
                  ( -0.8660254  0.5000000 -0.0000000 )
                  (  0.0000000  0.0000000 -1.0000000 )


      isym = 10     inv. 120 deg rotation - cryst. axis [0,0,-1] 

 cryst.   s(10) = (     0          1          0      )
                  (    -1          1          0      )
                  (     0          1         -1      )

 cart.    s(10) = (  0.5000000 -0.8660254  0.0000000 )
                  (  0.8660254  0.5000000 -0.0000000 )
                  (  0.0000000  0.0000000 -1.0000000 )


      isym = 11     inv. 180 deg rotation - cryst. axis [0,1,0]  

 cryst.   s(11) = (     0          1          0      )
                  (     1          0          0      )
                  (     0          0          1      )

 cart.    s(11) = (  0.5000000  0.8660254 -0.0000000 )
                  (  0.8660254 -0.5000000  0.0000000 )
                  (  0.0000000  0.0000000  1.0000000 )


      isym = 12     inv. 180 deg rotation - cryst. axis [1,1,0]  

 cryst.   s(12) = (     1         -1          0      )
                  (     0         -1          0      )
                  (     0         -1          1      )

 cart.    s(12) = (  0.5000000 -0.8660254  0.0000000 )
                  ( -0.8660254 -0.5000000  0.0000000 )
                  (  0.0000000  0.0000000  1.0000000 )


   Cartesian axes

     site n.     atom                  positions (alat units)
         1           Rb  tau(   1) = (   1.5000000   0.8660254   0.6123724  )
         2           Rb  tau(   2) = (   0.5000000   0.2886751   0.2041241  )
         3           Na  tau(   3) = (   1.0000000   0.5773503   0.4082483  )
         4           Mo  tau(   4) = (   0.0000000   0.0000000   0.0000000  )
         5           F   tau(   5) = (   1.2616610   0.7284203   0.1946030  )
         6           F   tau(   6) = (   1.2616610   0.4262802   0.6218936  )
         7           F   tau(   7) = (   0.7383390   0.7284203   0.1946030  )
         8           F   tau(   8) = (   1.0000000   0.2752102   0.1946030  )
         9           F   tau(   9) = (   0.7383390   0.4262802   0.6218936  )
        10           F   tau(  10) = (   1.0000000   0.8794904   0.6218936  )

   Crystallographic axes

     site n.     atom                  positions (cryst. coord.)
         1           Rb  tau(   1) = (  0.7500000  0.7500000  0.7500000  )
         2           Rb  tau(   2) = (  0.2500000  0.2500000  0.2500000  )
         3           Na  tau(   3) = (  0.5000000  0.5000000  0.5000000  )
         4           Mo  tau(   4) = (  0.0000000  0.0000000  0.0000000  )
         5           F   tau(   5) = (  0.7616610  0.7616610  0.2383390  )
         6           F   tau(   6) = (  0.7616610  0.2383390  0.7616610  )
         7           F   tau(   7) = (  0.2383390  0.7616610  0.2383390  )
         8           F   tau(   8) = (  0.7616610  0.2383390  0.2383390  )
         9           F   tau(   9) = (  0.2383390  0.2383390  0.7616610  )
        10           F   tau(  10) = (  0.2383390  0.7616610  0.7616610  )

     number of k points=     6
                       cart. coord. in units 2pi/alat
        k(    1) = (   0.0000000   0.0000000   0.0000000), wk =   0.0370370
        k(    2) = (   0.0000000   0.0000000   0.4082483), wk =   0.0740741
        k(    3) = (   0.0000000   0.3849002  -0.1360828), wk =   0.2222222
        k(    4) = (   0.0000000   0.3849002   0.2721655), wk =   0.2222222
        k(    5) = (   0.0000000   0.3849002  -0.5443311), wk =   0.2222222
        k(    6) = (   0.3333333  -0.5773503   0.0000000), wk =   0.2222222

                       cryst. coord.
        k(    1) = (   0.0000000   0.0000000   0.0000000), wk =   0.0370370
        k(    2) = (   0.0000000   0.0000000   0.3333333), wk =   0.0740741
        k(    3) = (   0.0000000   0.3333333  -0.0000000), wk =   0.2222222
        k(    4) = (   0.0000000   0.3333333   0.3333333), wk =   0.2222222
        k(    5) = (   0.0000000   0.3333333  -0.3333333), wk =   0.2222222
        k(    6) = (   0.3333333  -0.3333333   0.0000000), wk =   0.2222222

     Dense  grid:    72929 G-vectors     FFT dimensions: (  60,  60,  60)

     Smooth grid:    25821 G-vectors     FFT dimensions: (  45,  45,  45)

     Dynamical RAM for                 wfc:       0.79 MB

     Dynamical RAM for     wfc (w. buffer):       5.50 MB

     Dynamical RAM for           str. fact:       1.11 MB

     Dynamical RAM for           local pot:       0.00 MB

     Dynamical RAM for          nlocal pot:       1.41 MB

     Dynamical RAM for                qrad:       4.98 MB

     Dynamical RAM for          rho,v,vnew:       4.14 MB

     Dynamical RAM for               rhoin:       1.38 MB

     Dynamical RAM for            rho*nmix:       8.90 MB

     Dynamical RAM for           G-vectors:       1.09 MB

     Dynamical RAM for          h,s,v(r/c):       0.75 MB

     Dynamical RAM for          <psi|beta>:       0.11 MB

     Dynamical RAM for                 psi:       1.57 MB

     Dynamical RAM for                hpsi:       1.57 MB

     Dynamical RAM for                spsi:       1.57 MB

     Dynamical RAM for      wfcinit/wfcrot:       1.66 MB

     Dynamical RAM for           addusdens:      16.00 MB

     Estimated static dynamical RAM per process >      23.47 MB

     Estimated max dynamical RAM per process >      48.37 MB

     Estimated total dynamical RAM >     351.37 MB
     Generating pointlists ...
     new r_m :   0.2064 (alat units)  2.4337 (a.u.) for type    1
     new r_m :   0.1526 (alat units)  1.8002 (a.u.) for type    2
     new r_m :   0.1390 (alat units)  1.6397 (a.u.) for type    3
     new r_m :   0.1390 (alat units)  1.6397 (a.u.) for type    4

     Initial potential from superposition of free atoms

     starting charge      82.9432, renormalised to      83.0000
     Starting wfcs are   49 randomized atomic wfcs +   15 random wfcs

     total cpu time spent up to now is        1.1 secs

     Self-consistent Calculation

     iteration #  1     ecut=    30.00 Ry     beta= 0.70
     Davidson diagonalization with overlap

---- Real-time Memory Report at c_bands before calling an iterative solver
           211 MiB given to the printing process from OS
             0 MiB allocation reported by mallinfo(arena+hblkhd)
        206306 MiB available memory on the node where the printing process lives
------------------
     ethr =  1.00E-02,  avg # of iterations =  7.3

     total cpu time spent up to now is        3.0 secs

     total energy              =    -622.43274561 Ry
     estimated scf accuracy    <       1.08915048 Ry

     total magnetization       =     3.00 Bohr mag/cell
     absolute magnetization    =     3.00 Bohr mag/cell

     iteration #  2     ecut=    30.00 Ry     beta= 0.70
     Davidson diagonalization with overlap

---- Real-time Memory Report at c_bands before calling an iterative solver
           238 MiB given to the printing process from OS
             0 MiB allocation reported by mallinfo(arena+hblkhd)
        206136 MiB available memory on the node where the printing process lives
------------------
     ethr =  1.31E-03,  avg # of iterations =  2.0

     total cpu time spent up to now is        3.8 secs

     total energy              =    -622.39666929 Ry
     estimated scf accuracy    <       2.31051753 Ry

     total magnetization       =     3.00 Bohr mag/cell
     absolute magnetization    =     3.06 Bohr mag/cell

     iteration #  3     ecut=    30.00 Ry     beta= 0.70
     Davidson diagonalization with overlap

---- Real-time Memory Report at c_bands before calling an iterative solver
           247 MiB given to the printing process from OS
             0 MiB allocation reported by mallinfo(arena+hblkhd)
        206076 MiB available memory on the node where the printing process lives
------------------
     ethr =  1.31E-03,  avg # of iterations =  2.0

     total cpu time spent up to now is        4.5 secs

     total energy              =    -622.91893196 Ry
     estimated scf accuracy    <       0.08664373 Ry

     total magnetization       =     3.00 Bohr mag/cell
     absolute magnetization    =     3.05 Bohr mag/cell

     iteration #  4     ecut=    30.00 Ry     beta= 0.70
     Davidson diagonalization with overlap

---- Real-time Memory Report at c_bands before calling an iterative solver
           248 MiB given to the printing process from OS
             0 MiB allocation reported by mallinfo(arena+hblkhd)
        206064 MiB available memory on the node where the printing process lives
------------------
     ethr =  1.04E-04,  avg # of iterations =  2.6

     total cpu time spent up to now is        5.1 secs

     total energy              =    -622.93295015 Ry
     estimated scf accuracy    <       0.00801464 Ry

     total magnetization       =     3.00 Bohr mag/cell
     absolute magnetization    =     3.07 Bohr mag/cell

     iteration #  5     ecut=    30.00 Ry     beta= 0.70
     Davidson diagonalization with overlap

---- Real-time Memory Report at c_bands before calling an iterative solver
           249 MiB given to the printing process from OS
             0 MiB allocation reported by mallinfo(arena+hblkhd)
        206071 MiB available memory on the node where the printing process lives
------------------
     ethr =  9.66E-06,  avg # of iterations =  6.6

     total cpu time spent up to now is        5.9 secs

     total energy              =    -622.93465987 Ry
     estimated scf accuracy    <       0.00018952 Ry

     total magnetization       =     3.00 Bohr mag/cell
     absolute magnetization    =     3.10 Bohr mag/cell

     iteration #  6     ecut=    30.00 Ry     beta= 0.70
     Davidson diagonalization with overlap

---- Real-time Memory Report at c_bands before calling an iterative solver
           249 MiB given to the printing process from OS
             0 MiB allocation reported by mallinfo(arena+hblkhd)
        206094 MiB available memory on the node where the printing process lives
------------------
     ethr =  2.28E-07,  avg # of iterations =  2.5

     total cpu time spent up to now is        6.7 secs

     total energy              =    -622.93470831 Ry
     estimated scf accuracy    <       0.00000473 Ry

     total magnetization       =     3.00 Bohr mag/cell
     absolute magnetization    =     3.11 Bohr mag/cell

     iteration #  7     ecut=    30.00 Ry     beta= 0.70
     Davidson diagonalization with overlap

---- Real-time Memory Report at c_bands before calling an iterative solver
           249 MiB given to the printing process from OS
             0 MiB allocation reported by mallinfo(arena+hblkhd)
        206090 MiB available memory on the node where the printing process lives
------------------
     ethr =  5.70E-09,  avg # of iterations =  2.2
 
     Magnetic moment per site  (integrated on atomic sphere of radius R)
     atom   1 (R=0.206)  charge=  7.4747  magn=  0.0008
     atom   2 (R=0.206)  charge=  7.4747  magn=  0.0008
     atom   3 (R=0.153)  charge=  7.9343  magn= -0.0006
     atom   4 (R=0.139)  charge=  9.6374  magn=  1.7392
     atom   5 (R=0.139)  charge=  6.6760  magn=  0.0390
     atom   6 (R=0.139)  charge=  6.6760  magn=  0.0390
     atom   7 (R=0.139)  charge=  6.6760  magn=  0.0390
     atom   8 (R=0.139)  charge=  6.6760  magn=  0.0390
     atom   9 (R=0.139)  charge=  6.6760  magn=  0.0390
     atom  10 (R=0.139)  charge=  6.6760  magn=  0.0390

     total cpu time spent up to now is        7.4 secs

     End of self-consistent calculation

 ------ SPIN UP ------------


          k = 0.0000 0.0000 0.0000 (  3215 PWs)   bands (ev):

   -56.1254 -45.1520 -30.4435 -30.4435 -30.4435 -20.7991 -20.7540 -17.7955
   -17.6452 -17.6452 -17.6452 -17.6129 -17.6129 -16.8922 -16.8922 -16.8922
    -5.0634  -5.0634  -5.0634  -4.8679  -4.8679  -4.8679  -0.7276  -0.3886
    -0.3886   0.1974   0.1974   0.1974   0.4265   0.4265   0.4265   1.2586
     1.2586   1.2586   1.4230   1.4230   1.4230   1.6705   1.6705   1.6705
     5.6295   5.6295   5.6295   8.3369   8.8743   8.8743  11.3908  11.3908
    11.5671  11.5671  11.5671  14.0178  14.0178  14.0178  14.3529  15.3094
    15.5071  15.5071  15.5071  15.5245  15.5245  16.1977  16.7820  16.7820

     occupation numbers 
     1.0000   1.0000   1.0000   1.0000   1.0000   1.0000   1.0000   1.0000
     1.0000   1.0000   1.0000   1.0000   1.0000   1.0000   1.0000   1.0000
     1.0000   1.0000   1.0000   1.0000   1.0000   1.0000   1.0000   1.0000
     1.0000   1.0000   1.0000   1.0000   1.0000   1.0000   1.0000   1.0000
     1.0000   1.0000   1.0000   1.0000   1.0000   1.0000   1.0000   1.0000
     1.0000   1.0000   1.0000   0.0000   0.0000   0.0000   0.0000   0.0000
     0.0000   0.0000   0.0000   0.0000   0.0000   0.0000   0.0000   0.0000
     0.0000   0.0000   0.0000   0.0000   0.0000   0.0000   0.0000   0.0000

          k = 0.0000 0.0000 0.4082 (  3239 PWs)   bands (ev):

   -56.1256 -45.1524 -30.4436 -30.4435 -30.4435 -20.7840 -20.7617 -17.8646
   -17.7551 -17.7551 -17.5556 -17.4791 -17.4791 -16.9353 -16.9190 -16.9190
    -4.9908  -4.9908  -4.9229  -4.8915  -4.8915  -4.8304  -0.5104  -0.4714
    -0.4714   0.0448   0.2222   0.2222   0.2238   0.5964   0.5964   0.9869
     1.0926   1.0926   1.3263   1.3756   1.3756   1.5341   1.5341   1.5883
     5.6704   5.6860   5.6860   8.8144   8.8144   9.4248  11.2916  11.9635
    11.9635  12.2781  12.2781  13.5132  13.6634  13.6634  13.6989  13.9611
    13.9611  15.5469  15.8728  16.3048  16.7604  16.7604  17.0642  17.0643

     occupation numbers 
     1.0000   1.0000   1.0000   1.0000   1.0000   1.0000   1.0000   1.0000
     1.0000   1.0000   1.0000   1.0000   1.0000   1.0000   1.0000   1.0000
     1.0000   1.0000   1.0000   1.0000   1.0000   1.0000   1.0000   1.0000
     1.0000   1.0000   1.0000   1.0000   1.0000   1.0000   1.0000   1.0000
     1.0000   1.0000   1.0000   1.0000   1.0000   1.0000   1.0000   1.0000
     1.0000   1.0000   1.0000   0.0000   0.0000   0.0000   0.0000   0.0000
     0.0000   0.0000   0.0000   0.0000   0.0000   0.0000   0.0000   0.0000
     0.0000   0.0000   0.0000   0.0000   0.0000   0.0000   0.0000   0.0000

          k = 0.0000 0.3849-0.1361 (  3239 PWs)   bands (ev):

   -56.1256 -45.1524 -30.4436 -30.4435 -30.4435 -20.7840 -20.7617 -17.8646
   -17.7551 -17.7551 -17.5556 -17.4791 -17.4791 -16.9353 -16.9190 -16.9190
    -4.9908  -4.9908  -4.9229  -4.8915  -4.8915  -4.8304  -0.5104  -0.4714
    -0.4714   0.0448   0.2222   0.2222   0.2238   0.5964   0.5964   0.9869
     1.0926   1.0926   1.3263   1.3756   1.3756   1.5341   1.5341   1.5883
     5.6704   5.6860   5.6860   8.8144   8.8144   9.4248  11.2916  11.9635
    11.9635  12.2781  12.2781  13.5132  13.6634  13.6634  13.6989  13.9611
    13.9611  15.5469  15.8727  16.3048  16.7603  16.7604  17.0642  17.0642

     occupation numbers 
     1.0000   1.0000   1.0000   1.0000   1.0000   1.0000   1.0000   1.0000
     1.0000   1.0000   1.0000   1.0000   1.0000   1.0000   1.0000   1.0000
     1.0000   1.0000   1.0000   1.0000   1.0000   1.0000   1.0000   1.0000
     1.0000   1.0000   1.0000   1.0000   1.0000   1.0000   1.0000   1.0000
     1.0000   1.0000   1.0000   1.0000   1.0000   1.0000   1.0000   1.0000
     1.0000   1.0000   1.0000   0.0000   0.0000   0.0000   0.0000   0.0000
     0.0000   0.0000   0.0000   0.0000   0.0000   0.0000   0.0000   0.0000
     0.0000   0.0000   0.0000   0.0000   0.0000   0.0000   0.0000   0.0000

          k = 0.0000 0.3849 0.2722 (  3230 PWs)   bands (ev):

   -56.1256 -45.1523 -30.4436 -30.4436 -30.4435 -20.7825 -20.7607 -17.8154
   -17.7287 -17.6489 -17.6489 -17.6110 -17.5031 -16.9218 -16.8938 -16.8938
    -4.9977  -4.9977  -4.9038  -4.8502  -4.8351  -4.8351  -0.7504  -0.3914
    -0.3549  -0.0836   0.2539   0.2539   0.4582   0.4582   0.5834   0.9770
     1.1561   1.1722   1.1722   1.3078   1.3078   1.4357   1.4357   1.6662
     5.6328   5.7329   5.7329   8.5241   8.9171   9.7802  11.5600  11.9018
    12.1035  12.5799  12.6250  12.6250  13.7361  13.7361  14.0919  14.6624
    14.6624  14.9083  15.0917  15.6687  16.1244  17.7611  17.7611  17.9075

     occupation numbers 
     1.0000   1.0000   1.0000   1.0000   1.0000   1.0000   1.0000   1.0000
     1.0000   1.0000   1.0000   1.0000   1.0000   1.0000   1.0000   1.0000
     1.0000   1.0000   1.0000   1.0000   1.0000   1.0000   1.0000   1.0000
     1.0000   1.0000   1.0000   1.0000   1.0000   1.0000   1.0000   1.0000
     1.0000   1.0000   1.0000   1.0000   1.0000   1.0000   1.0000   1.0000
     1.0000   1.0000   1.0000   0.0000   0.0000   0.0000   0.0000   0.0000
     0.0000   0.0000   0.0000   0.0000   0.0000   0.0000   0.0000   0.0000
     0.0000   0.0000   0.0000   0.0000   0.0000   0.0000   0.0000   0.0000

          k = 0.0000 0.3849-0.5443 (  3210 PWs)   bands (ev):

   -56.1255 -45.1522 -30.4436 -30.4435 -30.4435 -20.7705 -20.7703 -17.8458
   -17.7552 -17.6748 -17.6446 -17.5329 -17.4788 -16.9283 -16.9182 -16.8920
    -4.9491  -4.9479  -4.9096  -4.8848  -4.8345  -4.7984  -0.6901  -0.4702
    -0.3286   0.0076   0.0861   0.2526   0.3891   0.5558   0.6168   1.0639
     1.0722   1.1043   1.1127   1.2064   1.3223   1.4177   1.4610   1.5637
     5.6826   5.7285   5.7396   8.5841   8.8387  10.7644  11.2288  11.6560
    12.1955  12.5610  12.8413  13.1192  13.1701  13.7598  14.0510  14.0859
    14.1401  15.4972  15.5217  15.8248  16.8496  16.9430  17.7227  17.7659

     occupation numbers 
     1.0000   1.0000   1.0000   1.0000   1.0000   1.0000   1.0000   1.0000
     1.0000   1.0000   1.0000   1.0000   1.0000   1.0000   1.0000   1.0000
     1.0000   1.0000   1.0000   1.0000   1.0000   1.0000   1.0000   1.0000
     1.0000   1.0000   1.0000   1.0000   1.0000   1.0000   1.0000   1.0000
     1.0000   1.0000   1.0000   1.0000   1.0000   1.0000   1.0000   1.0000
     1.0000   1.0000   1.0000   0.0000   0.0000   0.0000   0.0000   0.0000
     0.0000   0.0000   0.0000   0.0000   0.0000   0.0000   0.0000   0.0000
     0.0000   0.0000   0.0000   0.0000   0.0000   0.0000   0.0000   0.0000

          k = 0.3333-0.5774 0.0000 (  3210 PWs)   bands (ev):

   -56.1255 -45.1522 -30.4436 -30.4435 -30.4435 -20.7705 -20.7703 -17.8458
   -17.7552 -17.6748 -17.6446 -17.5329 -17.4788 -16.9283 -16.9182 -16.8920
    -4.9491  -4.9479  -4.9096  -4.8848  -4.8345  -4.7984  -0.6901  -0.4702
    -0.3286   0.0076   0.0861   0.2526   0.3891   0.5558   0.6168   1.0639
     1.0722   1.1043   1.1127   1.2064   1.3223   1.4177   1.4610   1.5637
     5.6826   5.7285   5.7396   8.5841   8.8387  10.7644  11.2288  11.6560
    12.1955  12.5610  12.8413  13.1192  13.1701  13.7598  14.0510  14.0859
    14.1401  15.4972  15.5217  15.8248  16.8496  16.9430  17.7228  17.7659

     occupation numbers 
     1.0000   1.0000   1.0000   1.0000   1.0000   1.0000   1.0000   1.0000
     1.0000   1.0000   1.0000   1.0000   1.0000   1.0000   1.0000   1.0000
     1.0000   1.0000   1.0000   1.0000   1.0000   1.0000   1.0000   1.0000
     1.0000   1.0000   1.0000   1.0000   1.0000   1.0000   1.0000   1.0000
     1.0000   1.0000   1.0000   1.0000   1.0000   1.0000   1.0000   1.0000
     1.0000   1.0000   1.0000   0.0000   0.0000   0.0000   0.0000   0.0000
     0.0000   0.0000   0.0000   0.0000   0.0000   0.0000   0.0000   0.0000
     0.0000   0.0000   0.0000   0.0000   0.0000   0.0000   0.0000   0.0000

 ------ SPIN DOWN ----------


          k = 0.0000 0.0000 0.0000 (  3215 PWs)   bands (ev):

   -54.6362 -45.1528 -28.5410 -28.5410 -28.5410 -20.7986 -20.7541 -17.7224
   -17.5829 -17.5829 -17.5829 -17.5427 -17.5427 -16.8714 -16.8714 -16.8714
    -5.0564  -5.0564  -5.0564  -4.8664  -4.8664  -4.8664  -0.6007  -0.1836
    -0.1836   0.4923   0.4923   0.4923   0.5230   0.5230   0.5230   1.3650
     1.3650   1.3650   1.4956   1.4956   1.4956   1.7758   1.7758   1.7758
     8.1232   8.1232   8.1232   8.5183   9.9079   9.9079  11.4448  11.4448
    11.6896  11.6896  11.6896  14.0992  14.0992  14.0992  14.4399  15.5179
    15.5179  15.5515  15.5776  15.5776  15.5776  16.9653  16.9968  16.9970

     occupation numbers 
     1.0000   1.0000   1.0000   1.0000   1.0000   1.0000   1.0000   1.0000
     1.0000   1.0000   1.0000   1.0000   1.0000   1.0000   1.0000   1.0000
     1.0000   1.0000   1.0000   1.0000   1.0000   1.0000   1.0000   1.0000
     1.0000   1.0000   1.0000   1.0000   1.0000   1.0000   1.0000   1.0000
     1.0000   1.0000   1.0000   1.0000   1.0000   1.0000   1.0000   1.0000
     0.0000   0.0000   0.0000   0.0000   0.0000   0.0000   0.0000   0.0000
     0.0000   0.0000   0.0000   0.0000   0.0000   0.0000   0.0000   0.0000
     0.0000   0.0000   0.0000   0.0000   0.0000   0.0000   0.0000   0.0000

          k = 0.0000 0.0000 0.4082 (  3239 PWs)   bands (ev):

   -54.6363 -45.1532 -28.5413 -28.5412 -28.5412 -20.7838 -20.7618 -17.8001
   -17.6970 -17.6970 -17.4767 -17.3985 -17.3985 -16.9221 -16.9042 -16.9042
    -4.9860  -4.9860  -4.9215  -4.8898  -4.8898  -4.8297  -0.3757  -0.2737
    -0.2737   0.2445   0.4143   0.5610   0.5610   0.6642   0.6642   1.0694
     1.1952   1.1952   1.4336   1.4549   1.4549   1.6387   1.6387   1.6929
     8.1737   8.1750   8.1750   9.6043   9.8689   9.8689  11.4380  11.9989
    11.9989  12.4020  12.4020  13.5844  13.6958  13.6958  13.7879  14.0349
    14.0349  15.7652  16.3168  16.5296  16.9453  16.9453  17.1572  17.1572

     occupation numbers 
     1.0000   1.0000   1.0000   1.0000   1.0000   1.0000   1.0000   1.0000
     1.0000   1.0000   1.0000   1.0000   1.0000   1.0000   1.0000   1.0000
     1.0000   1.0000   1.0000   1.0000   1.0000   1.0000   1.0000   1.0000
     1.0000   1.0000   1.0000   1.0000   1.0000   1.0000   1.0000   1.0000
     1.0000   1.0000   1.0000   1.0000   1.0000   1.0000   1.0000   1.0000
     0.0000   0.0000   0.0000   0.0000   0.0000   0.0000   0.0000   0.0000
     0.0000   0.0000   0.0000   0.0000   0.0000   0.0000   0.0000   0.0000
     0.0000   0.0000   0.0000   0.0000   0.0000   0.0000   0.0000   0.0000

          k = 0.0000 0.3849-0.1361 (  3239 PWs)   bands (ev):

   -54.6363 -45.1532 -28.5413 -28.5412 -28.5412 -20.7838 -20.7618 -17.8001
   -17.6970 -17.6970 -17.4767 -17.3985 -17.3985 -16.9221 -16.9042 -16.9042
    -4.9860  -4.9860  -4.9215  -4.8898  -4.8898  -4.8297  -0.3757  -0.2737
    -0.2737   0.2445   0.4143   0.5610   0.5610   0.6642   0.6642   1.0694
     1.1952   1.1952   1.4336   1.4549   1.4549   1.6387   1.6387   1.6929
     8.1737   8.1750   8.1750   9.6043   9.8689   9.8690  11.4380  11.9989
    11.9989  12.4020  12.4020  13.5844  13.6958  13.6958  13.7878  14.0349
    14.0349  15.7652  16.3168  16.5296  16.9453  16.9453  17.1572  17.1572

     occupation numbers 
     1.0000   1.0000   1.0000   1.0000   1.0000   1.0000   1.0000   1.0000
     1.0000   1.0000   1.0000   1.0000   1.0000   1.0000   1.0000   1.0000
     1.0000   1.0000   1.0000   1.0000   1.0000   1.0000   1.0000   1.0000
     1.0000   1.0000   1.0000   1.0000   1.0000   1.0000   1.0000   1.0000
     1.0000   1.0000   1.0000   1.0000   1.0000   1.0000   1.0000   1.0000
     0.0000   0.0000   0.0000   0.0000   0.0000   0.0000   0.0000   0.0000
     0.0000   0.0000   0.0000   0.0000   0.0000   0.0000   0.0000   0.0000
     0.0000   0.0000   0.0000   0.0000   0.0000   0.0000   0.0000   0.0000

          k = 0.0000 0.3849 0.2722 (  3230 PWs)   bands (ev):

   -54.6363 -45.1531 -28.5412 -28.5412 -28.5411 -20.7823 -20.7608 -17.7497
   -17.6619 -17.5866 -17.5866 -17.5408 -17.4233 -16.9074 -16.8730 -16.8730
    -4.9952  -4.9952  -4.9033  -4.8484  -4.8331  -4.8331  -0.5835  -0.2033
    -0.1865   0.2344   0.5058   0.5058   0.6239   0.6239   0.6521   1.0559
     1.2597   1.2811   1.2811   1.3847   1.3847   1.5370   1.5370   1.7712
     8.1544   8.2163   8.2163   9.4502   9.9979  10.0123  11.7819  11.9143
    12.2168  12.6099  12.7626  12.7626  13.8016  13.8016  14.1534  14.7481
    14.7481  15.1134  15.1260  15.6640  16.5165  17.9364  17.9364  18.2053

     occupation numbers 
     1.0000   1.0000   1.0000   1.0000   1.0000   1.0000   1.0000   1.0000
     1.0000   1.0000   1.0000   1.0000   1.0000   1.0000   1.0000   1.0000
     1.0000   1.0000   1.0000   1.0000   1.0000   1.0000   1.0000   1.0000
     1.0000   1.0000   1.0000   1.0000   1.0000   1.0000   1.0000   1.0000
     1.0000   1.0000   1.0000   1.0000   1.0000   1.0000   1.0000   1.0000
     0.0000   0.0000   0.0000   0.0000   0.0000   0.0000   0.0000   0.0000
     0.0000   0.0000   0.0000   0.0000   0.0000   0.0000   0.0000   0.0000
     0.0000   0.0000   0.0000   0.0000   0.0000   0.0000   0.0000   0.0000

          k = 0.0000 0.3849-0.5443 (  3210 PWs)   bands (ev):

   -54.6362 -45.1530 -28.5412 -28.5411 -28.5410 -20.7705 -20.7702 -17.7815
   -17.6971 -17.6049 -17.5825 -17.4541 -17.3981 -16.9145 -16.9036 -16.8710
    -4.9480  -4.9470  -4.9089  -4.8814  -4.8342  -4.7978  -0.5136  -0.2726
    -0.1820   0.3255   0.4093   0.4607   0.6063   0.6266   0.6826   1.1553
     1.1713   1.2097   1.2174   1.3086   1.4039   1.5201   1.5654   1.6684
     8.1912   8.2244   8.2273   9.5760   9.9114  10.9900  11.2950  11.9126
    12.2741  12.5658  12.9219  13.2072  13.2279  13.8054  14.1232  14.1754
    14.2221  15.5118  15.7548  15.9778  17.0561  17.1546  18.0747  18.1069

     occupation numbers 
     1.0000   1.0000   1.0000   1.0000   1.0000   1.0000   1.0000   1.0000
     1.0000   1.0000   1.0000   1.0000   1.0000   1.0000   1.0000   1.0000
     1.0000   1.0000   1.0000   1.0000   1.0000   1.0000   1.0000   1.0000
     1.0000   1.0000   1.0000   1.0000   1.0000   1.0000   1.0000   1.0000
     1.0000   1.0000   1.0000   1.0000   1.0000   1.0000   1.0000   1.0000
     0.0000   0.0000   0.0000   0.0000   0.0000   0.0000   0.0000   0.0000
     0.0000   0.0000   0.0000   0.0000   0.0000   0.0000   0.0000   0.0000
     0.0000   0.0000   0.0000   0.0000   0.0000   0.0000   0.0000   0.0000

          k = 0.3333-0.5774 0.0000 (  3210 PWs)   bands (ev):

   -54.6362 -45.1530 -28.5412 -28.5411 -28.5410 -20.7705 -20.7702 -17.7815
   -17.6971 -17.6049 -17.5825 -17.4541 -17.3981 -16.9145 -16.9036 -16.8710
    -4.9480  -4.9470  -4.9089  -4.8814  -4.8342  -4.7978  -0.5136  -0.2726
    -0.1820   0.3255   0.4093   0.4607   0.6063   0.6266   0.6826   1.1553
     1.1713   1.2097   1.2174   1.3086   1.4039   1.5201   1.5654   1.6684
     8.1912   8.2244   8.2273   9.5760   9.9114  10.9900  11.2950  11.9126
    12.2741  12.5658  12.9219  13.2072  13.2279  13.8054  14.1232  14.1754
    14.2221  15.5118  15.7548  15.9778  17.0561  17.1546  18.0747  18.1069

     occupation numbers 
     1.0000   1.0000   1.0000   1.0000   1.0000   1.0000   1.0000   1.0000
     1.0000   1.0000   1.0000   1.0000   1.0000   1.0000   1.0000   1.0000
     1.0000   1.0000   1.0000   1.0000   1.0000   1.0000   1.0000   1.0000
     1.0000   1.0000   1.0000   1.0000   1.0000   1.0000   1.0000   1.0000
     1.0000   1.0000   1.0000   1.0000   1.0000   1.0000   1.0000   1.0000
     0.0000   0.0000   0.0000   0.0000   0.0000   0.0000   0.0000   0.0000
     0.0000   0.0000   0.0000   0.0000   0.0000   0.0000   0.0000   0.0000
     0.0000   0.0000   0.0000   0.0000   0.0000   0.0000   0.0000   0.0000

     highest occupied, lowest unoccupied level (ev):     5.7396    8.1232

!    total energy              =    -622.93470920 Ry
     estimated scf accuracy    <       0.00000083 Ry

     The total energy is the sum of the following terms:
     one-electron contribution =    -342.89239097 Ry
     hartree contribution      =     208.33871400 Ry
     xc contribution           =    -101.40302206 Ry
     ewald contribution        =    -386.97801016 Ry

     total magnetization       =     3.00 Bohr mag/cell
     absolute magnetization    =     3.11 Bohr mag/cell

     convergence has been achieved in   7 iterations

     Writing all to output data dir bands_nm/myprefix.save/
 
     init_run     :      1.73s CPU      0.65s WALL (       1 calls)
     electrons    :     24.23s CPU      6.39s WALL (       1 calls)

     Called by init_run:
     wfcinit      :      0.59s CPU      0.15s WALL (       1 calls)
     wfcinit:atom :      0.01s CPU      0.00s WALL (       6 calls)
     wfcinit:wfcr :      0.57s CPU      0.14s WALL (       6 calls)
     potinit      :      0.36s CPU      0.10s WALL (       1 calls)
     hinit0       :      0.37s CPU      0.14s WALL (       1 calls)

     Called by electrons:
     c_bands      :     19.64s CPU      5.17s WALL (       7 calls)
     sum_band     :      3.16s CPU      0.82s WALL (       7 calls)
     v_of_rho     :      0.64s CPU      0.17s WALL (       8 calls)
     v_h          :      0.03s CPU      0.01s WALL (       8 calls)
     v_xc         :      0.62s CPU      0.16s WALL (       8 calls)
     newd         :      0.74s CPU      0.20s WALL (       8 calls)
     mix_rho      :      0.11s CPU      0.03s WALL (       7 calls)

     Called by c_bands:
     init_us_2    :      0.04s CPU      0.02s WALL (      90 calls)
     init_us_2:cp :      0.04s CPU      0.01s WALL (      90 calls)
     cegterg      :     13.74s CPU      3.54s WALL (      42 calls)

     Called by sum_band:
     sum_band:wei :      0.00s CPU      0.00s WALL (       7 calls)
     sum_band:loo :      1.90s CPU      0.49s WALL (       7 calls)
     sum_band:buf :      0.03s CPU      0.01s WALL (      42 calls)
     sum_band:ini :      0.02s CPU      0.01s WALL (      42 calls)
     sum_band:cal :      0.24s CPU      0.06s WALL (      42 calls)
     sum_band:bec :      0.00s CPU      0.00s WALL (      42 calls)
     addusdens    :      0.38s CPU      0.11s WALL (       7 calls)
     addusd:skk   :      0.00s CPU      0.00s WALL (      14 calls)
     addusd:dgemm :      0.10s CPU      0.03s WALL (      28 calls)
     addusd:qvan2 :      0.20s CPU      0.06s WALL (      28 calls)

     Called by *egterg:
     cdiaghg      :      2.67s CPU      0.69s WALL (     194 calls)
     cegterg:over :      0.86s CPU      0.19s WALL (     152 calls)
     cegterg:upda :      0.26s CPU      0.10s WALL (     152 calls)
     cegterg:last :      0.85s CPU      0.22s WALL (      89 calls)
     h_psi        :      8.48s CPU      2.21s WALL (     200 calls)
     s_psi        :      0.51s CPU      0.13s WALL (     200 calls)
     g_psi        :      0.01s CPU      0.00s WALL (     152 calls)

     Called by h_psi:
     h_psi:calbec :      0.63s CPU      0.16s WALL (     200 calls)
     vloc_psi     :      7.42s CPU      1.91s WALL (     200 calls)
     add_vuspsi   :      0.42s CPU      0.14s WALL (     200 calls)

     General routines
     calbec       :      0.87s CPU      0.22s WALL (     242 calls)
     fft          :      0.45s CPU      0.12s WALL (     193 calls)
     ffts         :      0.03s CPU      0.01s WALL (      30 calls)
     fftw         :      8.70s CPU      2.03s WALL (   16830 calls)
     interpolate  :      0.06s CPU      0.02s WALL (      16 calls)
 
     Parallel routines
 
     PWSCF        :     28.43s CPU      8.11s WALL

 
   This run was terminated on:  14:35:28  15Jul2023            

=------------------------------------------------------------------------------=
   JOB DONE.
=------------------------------------------------------------------------------=
