
     Program PWSCF v.7.0 starts on  4Jun2023 at 10:15:57 

     This program is part of the open-source Quantum ESPRESSO suite
     for quantum simulation of materials; please cite
         "P. Giannozzi et al., J. Phys.:Condens. Matter 21 395502 (2009);
         "P. Giannozzi et al., J. Phys.:Condens. Matter 29 465901 (2017);
         "P. Giannozzi et al., J. Chem. Phys. 152 154105 (2020);
          URL http://www.quantum-espresso.org", 
     in publications or presentations arising from this work. More details at
     http://www.quantum-espresso.org/quote

     Parallel version (MPI & OpenMP), running on      32 processor cores
     Number of MPI processes:                 8
     Threads/MPI process:                     4

     MPI processes distributed on     1 nodes
     K-points division:     npool     =       2
     R & G space division:  proc/nbgrp/npool/nimage =       4
     147493 MiB available memory on the printing compute node when the environment starts
 
     Reading input from espresso_6.pwi
Warning: card &CELL ignored
Warning: card / ignored

     Current dimensions of program PWSCF are:
     Max number of different atomic species (ntypx) = 10
     Max number of k-points (npk) =  40000
     Max angular momentum in pseudopotentials (lmaxx) =  4
     file Al.pbe-n-kjpaw_psl.1.0.0.UPF: wavefunction(s)  3S 3P renormalized
     file O.pbe-n-kjpaw_psl.0.1.UPF: wavefunction(s)  2P renormalized
     Message from routine setup:
     using ibrav=0 with symmetry is DISCOURAGED, use correct ibrav instead

     Subspace diagonalization in iterative solution of the eigenvalue problem:
     one sub-group per band group will be used
     scalapack distributed-memory algorithm (size of sub-group:  2*  2 procs)

 
     Parallelization info
     --------------------
     sticks:   dense  smooth     PW     G-vecs:    dense   smooth      PW
     Min         355     180     52                18850     6668    1075
     Max         358     181     53                18852     6675    1079
     Sum        1429     721    211                75403    26683    4309
 
     Using Slab Decomposition
 


     bravais-lattice index     =            0
     lattice parameter (alat)  =       9.3391  a.u.
     unit-cell volume          =    1202.4842 (a.u.)^3
     number of atoms/cell      =           12
     number of atomic types    =            4
     number of electrons       =        72.00
     number of Kohn-Sham states=           64
     kinetic-energy cutoff     =      30.0000  Ry
     charge density cutoff     =     240.0000  Ry
     scf convergence threshold =      1.0E-06
     mixing beta               =       0.7000
     number of iterations used =            8  plain     mixing
     Exchange-correlation= SLA  PW   PBX  PBC
                           (   1   4   3   4   0   0   0)

     celldm(1)=   9.339102  celldm(2)=   0.000000  celldm(3)=   0.000000
     celldm(4)=   0.000000  celldm(5)=   0.000000  celldm(6)=   0.000000

     crystal axes: (cart. coord. in units of alat)
               a(1) = (   1.000000   0.000000   0.000000 )  
               a(2) = (  -0.500000   0.866025   0.000000 )  
               a(3) = (   0.000000   0.000000   1.704643 )  

     reciprocal axes: (cart. coord. in units 2 pi/alat)
               b(1) = (  1.000000  0.577350  0.000000 )  
               b(2) = (  0.000000  1.154701  0.000000 )  
               b(3) = (  0.000000  0.000000  0.586633 )  


     PseudoPot. # 1 for Rb read from file:
     /home/pragov/projects/rrg-bengioy-ad/pragov/crystal_structure_design/SSSP/Rb_ONCV_PBE-1.0.oncvpsp.upf
     MD5 check sum: 55a5172d6bfbce6759a58e35d43f6aa9
     Pseudo is Norm-conserving, Zval =  9.0
     Generated using ONCVPSP code by D. R. Hamann
     Using radial grid of 2308 points,  6 beta functions with: 
                l(1) =   0
                l(2) =   0
                l(3) =   1
                l(4) =   1
                l(5) =   2
                l(6) =   2

     PseudoPot. # 2 for Al read from file:
     /home/pragov/projects/rrg-bengioy-ad/pragov/crystal_structure_design/SSSP/Al.pbe-n-kjpaw_psl.1.0.0.UPF
     MD5 check sum: cfc449ca30b5f3223ec38ddd88ac046d
     Pseudo is Projector augmented-wave + core cor, Zval =  3.0
     Generated using "atomic" code by A. Dal Corso  v.5.1
     Shape of augmentation charge: PSQ
     Using radial grid of 1135 points,  6 beta functions with: 
                l(1) =   0
                l(2) =   0
                l(3) =   1
                l(4) =   1
                l(5) =   2
                l(6) =   2
     Q(r) pseudized with 0 coefficients 


     PseudoPot. # 3 for S  read from file:
     /home/pragov/projects/rrg-bengioy-ad/pragov/crystal_structure_design/SSSP/s_pbe_v1.4.uspp.F.UPF
     MD5 check sum: 88d86576ff6df21479756cfb9bdac1df
     Pseudo is Ultrasoft + core correction, Zval =  6.0
     Generated by new atomic code, or converted to UPF format
     Using radial grid of  907 points,  6 beta functions with: 
                l(1) =   0
                l(2) =   0
                l(3) =   1
                l(4) =   1
                l(5) =   2
                l(6) =   2
     Q(r) pseudized with  8 coefficients,  rinner =    1.300   1.300   1.300
                                                       1.300   1.300

     PseudoPot. # 4 for O  read from file:
     /home/pragov/projects/rrg-bengioy-ad/pragov/crystal_structure_design/SSSP/O.pbe-n-kjpaw_psl.0.1.UPF
     MD5 check sum: 0234752ac141de4415c5fc33072bef88
     Pseudo is Projector augmented-wave + core cor, Zval =  6.0
     Generated using "atomic" code by A. Dal Corso  v.5.0.99 svn rev. 10869
     Shape of augmentation charge: BESSEL
     Using radial grid of 1095 points,  4 beta functions with: 
                l(1) =   0
                l(2) =   0
                l(3) =   1
                l(4) =   1
     Q(r) pseudized with 0 coefficients 


     atomic species   valence    mass     pseudopotential
        Rb             9.00    85.46780     Rb( 1.00)
        Al             3.00    26.98154     Al( 1.00)
        S              6.00    32.06000     S ( 1.00)
        O              6.00    15.99900     O ( 1.00)

      6 Sym. Ops. (no inversion) found


                                    s                        frac. trans.

      isym =  1     identity                                     

 cryst.   s( 1) = (     1          0          0      )
                  (     0          1          0      )
                  (     0          0          1      )

 cart.    s( 1) = (  1.0000000 -0.0000000  0.0000000 )
                  (  0.0000000  1.0000000  0.0000000 )
                  (  0.0000000  0.0000000  1.0000000 )


      isym =  2     180 deg rotation - cart. axis [1,0,0]        

 cryst.   s( 2) = (     1          0          0      )
                  (    -1         -1          0      )
                  (     0          0         -1      )

 cart.    s( 2) = (  1.0000000 -0.0000001  0.0000000 )
                  (  0.0000000 -1.0000000  0.0000000 )
                  (  0.0000000  0.0000000 -1.0000000 )


      isym =  3     120 deg rotation - cryst. axis [0,0,1]       

 cryst.   s( 3) = (     0          1          0      )
                  (    -1         -1          0      )
                  (     0          0          1      )

 cart.    s( 3) = ( -0.5000000 -0.8660254  0.0000000 )
                  (  0.8660254 -0.5000000  0.0000000 )
                  (  0.0000000  0.0000000  1.0000000 )


      isym =  4     120 deg rotation - cryst. axis [0,0,-1]      

 cryst.   s( 4) = (    -1         -1          0      )
                  (     1          0          0      )
                  (     0          0          1      )

 cart.    s( 4) = ( -0.5000000  0.8660254  0.0000000 )
                  ( -0.8660254 -0.5000000  0.0000000 )
                  (  0.0000000  0.0000000  1.0000000 )


      isym =  5     180 deg rotation - cryst. axis [0,1,0]       

 cryst.   s( 5) = (    -1         -1          0      )
                  (     0          1          0      )
                  (     0          0         -1      )

 cart.    s( 5) = ( -0.5000000 -0.8660253  0.0000000 )
                  ( -0.8660254  0.5000000  0.0000000 )
                  (  0.0000000  0.0000000 -1.0000000 )


      isym =  6     180 deg rotation - cryst. axis [1,1,0]       

 cryst.   s( 6) = (     0          1          0      )
                  (     1          0          0      )
                  (     0          0         -1      )

 cart.    s( 6) = ( -0.5000000  0.8660254  0.0000000 )
                  (  0.8660254  0.5000000  0.0000000 )
                  (  0.0000000  0.0000000 -1.0000000 )


   Cartesian axes

     site n.     atom                  positions (alat units)
         1           Rb  tau(   1) = (   0.0000000   0.0000000   0.8523214  )
         2           Al  tau(   2) = (   0.0000000   0.0000000   0.0000000  )
         3           S   tau(   3) = (   0.5000005   0.2886749   1.3662406  )
         4           S   tau(   4) = (  -0.0000005   0.5773506   0.3384023  )
         5           O   tau(   5) = (   0.7670690   0.1934614   1.4671623  )
         6           O   tau(   6) = (   0.2840070   0.1049935   1.4671623  )
         7           O   tau(   7) = (   0.2670700   0.6725640   0.2374806  )
         8           O   tau(   8) = (   0.4489225   0.5675714   1.4671623  )
         9           O   tau(   9) = (  -0.2159920   0.7610320   0.2374806  )
        10           O   tau(  10) = (  -0.0510765   0.2984540   0.2374806  )
        11           O   tau(  11) = (   0.5000005   0.2886749   1.0711754  )
        12           O   tau(  12) = (  -0.0000005   0.5773506   0.6334675  )

   Crystallographic axes

     site n.     atom                  positions (cryst. coord.)
         1           Rb  tau(   1) = (  0.0000000  0.0000000  0.5000000  )
         2           Al  tau(   2) = (  0.0000000  0.0000000  0.0000000  )
         3           S   tau(   3) = (  0.6666670  0.3333330  0.8014820  )
         4           S   tau(   4) = (  0.3333330  0.6666670  0.1985180  )
         5           O   tau(   5) = (  0.8787640  0.2233900  0.8606860  )
         6           O   tau(   6) = (  0.3446250  0.1212360  0.8606860  )
         7           O   tau(   7) = (  0.6553750  0.7766100  0.1393140  )
         8           O   tau(   8) = (  0.7766100  0.6553750  0.8606860  )
         9           O   tau(   9) = (  0.2233900  0.8787640  0.1393140  )
        10           O   tau(  10) = (  0.1212360  0.3446250  0.1393140  )
        11           O   tau(  11) = (  0.6666670  0.3333330  0.6283870  )
        12           O   tau(  12) = (  0.3333330  0.6666670  0.3716130  )

     number of k points=     7
                       cart. coord. in units 2pi/alat
        k(    1) = (   0.0000000   0.0000000   0.0000000), wk =   0.0740741
        k(    2) = (   0.0000000   0.0000000   0.1955444), wk =   0.1481481
        k(    3) = (   0.0000000   0.3849002   0.0000000), wk =   0.4444444
        k(    4) = (   0.0000000   0.3849002   0.1955444), wk =   0.4444444
        k(    5) = (   0.3333333   0.5773502   0.0000000), wk =   0.1481481
        k(    6) = (   0.3333333   0.5773502   0.1955444), wk =   0.2962963
        k(    7) = (   0.0000000   0.3849002  -0.1955444), wk =   0.4444444

                       cryst. coord.
        k(    1) = (   0.0000000   0.0000000   0.0000000), wk =   0.0740741
        k(    2) = (   0.0000000   0.0000000   0.3333333), wk =   0.1481481
        k(    3) = (   0.0000000   0.3333333   0.0000000), wk =   0.4444444
        k(    4) = (   0.0000000   0.3333333   0.3333333), wk =   0.4444444
        k(    5) = (   0.3333333   0.3333333   0.0000000), wk =   0.1481481
        k(    6) = (   0.3333333   0.3333333   0.3333333), wk =   0.2962963
        k(    7) = (   0.0000000   0.3333333  -0.3333333), wk =   0.4444444

     Dense  grid:    75403 G-vectors     FFT dimensions: (  48,  48,  80)

     Smooth grid:    26683 G-vectors     FFT dimensions: (  36,  36,  60)

     Dynamical RAM for                 wfc:       0.81 MB

     Dynamical RAM for     wfc (w. buffer):       4.07 MB

     Dynamical RAM for           str. fact:       1.15 MB

     Dynamical RAM for           local pot:       0.00 MB

     Dynamical RAM for          nlocal pot:       1.73 MB

     Dynamical RAM for                qrad:       4.98 MB

     Dynamical RAM for          rho,v,vnew:       1.92 MB

     Dynamical RAM for               rhoin:       0.64 MB

     Dynamical RAM for            rho*nmix:       4.60 MB

     Dynamical RAM for           G-vectors:       1.13 MB

     Dynamical RAM for          h,s,v(r/c):       0.19 MB

     Dynamical RAM for          <psi|beta>:       0.13 MB

     Dynamical RAM for                 psi:       1.63 MB

     Dynamical RAM for                hpsi:       1.63 MB

     Dynamical RAM for                spsi:       1.63 MB

     Dynamical RAM for      wfcinit/wfcrot:       1.72 MB

     Dynamical RAM for           addusdens:      28.04 MB

     Estimated static dynamical RAM per process >      18.81 MB

     Estimated max dynamical RAM per process >      51.46 MB

     Estimated total dynamical RAM >     393.26 MB

     Check: negative core charge=   -0.000012

     Initial potential from superposition of free atoms

     starting charge      71.9729, renormalised to      72.0000
     Starting wfcs are   49 randomized atomic wfcs +   15 random wfcs
     Checking if some PAW data can be deallocated... 
       PAW data deallocated on    7 nodes for type:  2
       PAW data deallocated on    2 nodes for type:  4

     total cpu time spent up to now is        2.6 secs

     Self-consistent Calculation

     iteration #  1     ecut=    30.00 Ry     beta= 0.70
     Davidson diagonalization with overlap

---- Real-time Memory Report at c_bands before calling an iterative solver
           194 MiB given to the printing process from OS
             0 MiB allocation reported by mallinfo(arena+hblkhd)
        146715 MiB available memory on the node where the printing process lives
------------------
     ethr =  1.00E-02,  avg # of iterations =  6.1

     total cpu time spent up to now is        3.5 secs

     total energy              =    -468.89015398 Ry
     estimated scf accuracy    <       2.35841831 Ry

     iteration #  2     ecut=    30.00 Ry     beta= 0.70
     Davidson diagonalization with overlap

---- Real-time Memory Report at c_bands before calling an iterative solver
           246 MiB given to the printing process from OS
             0 MiB allocation reported by mallinfo(arena+hblkhd)
        146508 MiB available memory on the node where the printing process lives
------------------
     ethr =  3.28E-03,  avg # of iterations =  2.0

     total cpu time spent up to now is        4.1 secs

     total energy              =    -469.47329450 Ry
     estimated scf accuracy    <       2.07647172 Ry

     iteration #  3     ecut=    30.00 Ry     beta= 0.70
     Davidson diagonalization with overlap

---- Real-time Memory Report at c_bands before calling an iterative solver
           246 MiB given to the printing process from OS
             0 MiB allocation reported by mallinfo(arena+hblkhd)
        146414 MiB available memory on the node where the printing process lives
------------------
     ethr =  2.88E-03,  avg # of iterations =  2.0

     total cpu time spent up to now is        4.7 secs

     total energy              =    -469.89593490 Ry
     estimated scf accuracy    <       0.04313722 Ry

     iteration #  4     ecut=    30.00 Ry     beta= 0.70
     Davidson diagonalization with overlap

---- Real-time Memory Report at c_bands before calling an iterative solver
           246 MiB given to the printing process from OS
             0 MiB allocation reported by mallinfo(arena+hblkhd)
        146408 MiB available memory on the node where the printing process lives
------------------
     ethr =  5.99E-05,  avg # of iterations =  7.6

     total cpu time spent up to now is        5.5 secs

     total energy              =    -469.90711906 Ry
     estimated scf accuracy    <       0.01810215 Ry

     iteration #  5     ecut=    30.00 Ry     beta= 0.70
     Davidson diagonalization with overlap

---- Real-time Memory Report at c_bands before calling an iterative solver
           254 MiB given to the printing process from OS
             0 MiB allocation reported by mallinfo(arena+hblkhd)
        146415 MiB available memory on the node where the printing process lives
------------------
     ethr =  2.51E-05,  avg # of iterations =  4.1

     total cpu time spent up to now is        6.0 secs

     total energy              =    -469.91090694 Ry
     estimated scf accuracy    <       0.00214301 Ry

     iteration #  6     ecut=    30.00 Ry     beta= 0.70
     Davidson diagonalization with overlap

---- Real-time Memory Report at c_bands before calling an iterative solver
           254 MiB given to the printing process from OS
             0 MiB allocation reported by mallinfo(arena+hblkhd)
        146385 MiB available memory on the node where the printing process lives
------------------
     ethr =  2.98E-06,  avg # of iterations =  9.6

     total cpu time spent up to now is        6.8 secs

     total energy              =    -469.91132656 Ry
     estimated scf accuracy    <       0.00002501 Ry

     iteration #  7     ecut=    30.00 Ry     beta= 0.70
     Davidson diagonalization with overlap

---- Real-time Memory Report at c_bands before calling an iterative solver
           256 MiB given to the printing process from OS
             0 MiB allocation reported by mallinfo(arena+hblkhd)
        146375 MiB available memory on the node where the printing process lives
------------------
     ethr =  3.47E-08,  avg # of iterations =  4.0

     total cpu time spent up to now is        7.4 secs

     End of self-consistent calculation

          k = 0.0000 0.0000 0.0000 (  3333 PWs)   bands (ev):

   -21.2409 -20.6572 -20.5364 -16.4850 -16.4849 -16.3425 -16.3071 -16.3070
   -16.1747  -8.4845  -7.3567  -5.3143  -5.3078  -5.3078  -4.8132  -4.8132
    -3.9397  -3.9397  -3.3931  -3.0843  -1.2051  -0.9323  -0.9323  -0.1383
    -0.1383   0.3338   0.3338   0.3877   0.5230   0.5231   1.9576   1.9989
     1.9989   2.3141   2.5297   2.5297   8.0428   9.9746  10.0756  10.4869
    10.8094  10.8094  11.1421  11.6516  11.6516  11.9007  12.2217  12.2676
    12.2677  13.5990  13.8031  13.8031  14.8299  15.6039  15.6039  15.9726
    16.5233  16.5233  17.6386  17.8161  17.8163  18.0251  18.9169  19.0078

     occupation numbers 
     1.0000   1.0000   1.0000   1.0000   1.0000   1.0000   1.0000   1.0000
     1.0000   1.0000   1.0000   1.0000   1.0000   1.0000   1.0000   1.0000
     1.0000   1.0000   1.0000   1.0000   1.0000   1.0000   1.0000   1.0000
     1.0000   1.0000   1.0000   1.0000   1.0000   1.0000   1.0000   1.0000
     1.0000   1.0000   1.0000   1.0000   0.0000   0.0000   0.0000   0.0000
     0.0000   0.0000   0.0000   0.0000   0.0000   0.0000   0.0000   0.0000
     0.0000   0.0000   0.0000   0.0000   0.0000   0.0000   0.0000   0.0000
     0.0000   0.0000   0.0000   0.0000   0.0000   0.0000   0.0000   0.0000

          k = 0.0000 0.0000 0.1955 (  3328 PWs)   bands (ev):

   -21.2389 -20.6709 -20.5242 -16.4849 -16.4847 -16.3321 -16.3073 -16.3070
   -16.1862  -8.4807  -7.3437  -5.3455  -5.3096  -5.2995  -4.8275  -4.8032
    -3.9443  -3.9263  -3.3325  -3.1749  -1.0366  -0.9137  -0.9019  -0.2059
    -0.1648   0.2136   0.3576   0.3927   0.5206   0.5292   1.8906   1.9580
     1.9743   2.3147   2.5554   2.6213   8.4417   9.3542  10.2932  10.3841
    10.7418  10.8742  11.1449  11.5171  11.6062  11.6658  12.3774  12.4788
    12.6569  13.7019  13.7173  13.7828  14.5775  15.5199  15.8928  15.9968
    16.1944  16.4711  17.4241  17.7286  18.1964  18.3011  18.9841  18.9938

     occupation numbers 
     1.0000   1.0000   1.0000   1.0000   1.0000   1.0000   1.0000   1.0000
     1.0000   1.0000   1.0000   1.0000   1.0000   1.0000   1.0000   1.0000
     1.0000   1.0000   1.0000   1.0000   1.0000   1.0000   1.0000   1.0000
     1.0000   1.0000   1.0000   1.0000   1.0000   1.0000   1.0000   1.0000
     1.0000   1.0000   1.0000   1.0000   0.0000   0.0000   0.0000   0.0000
     0.0000   0.0000   0.0000   0.0000   0.0000   0.0000   0.0000   0.0000
     0.0000   0.0000   0.0000   0.0000   0.0000   0.0000   0.0000   0.0000
     0.0000   0.0000   0.0000   0.0000   0.0000   0.0000   0.0000   0.0000

          k = 0.0000 0.3849 0.0000 (  3334 PWs)   bands (ev):

   -21.2240 -20.5770 -20.5063 -16.8049 -16.5369 -16.4709 -16.3408 -16.2105
   -16.1420  -7.6305  -6.8074  -5.4553  -5.3615  -5.3273  -5.2914  -4.6256
    -4.3185  -3.8045  -3.0752  -2.9934  -1.1805  -1.0292  -0.7949  -0.4200
    -0.2088  -0.0013   0.0675   0.2019   0.3423   0.3882   1.5535   1.6418
     1.9729   2.1112   2.3258   2.5746   9.4025  10.0376  10.6142  10.8304
    11.2648  11.4388  11.6992  11.9058  11.9749  12.2016  12.6906  12.8334
    12.9712  13.2643  13.7513  14.0304  14.3638  14.5837  15.2010  15.5405
    16.0877  16.2526  17.1093  17.5781  17.8601  18.1021  18.3258  18.8968

     occupation numbers 
     1.0000   1.0000   1.0000   1.0000   1.0000   1.0000   1.0000   1.0000
     1.0000   1.0000   1.0000   1.0000   1.0000   1.0000   1.0000   1.0000
     1.0000   1.0000   1.0000   1.0000   1.0000   1.0000   1.0000   1.0000
     1.0000   1.0000   1.0000   1.0000   1.0000   1.0000   1.0000   1.0000
     1.0000   1.0000   1.0000   1.0000   0.0000   0.0000   0.0000   0.0000
     0.0000   0.0000   0.0000   0.0000   0.0000   0.0000   0.0000   0.0000
     0.0000   0.0000   0.0000   0.0000   0.0000   0.0000   0.0000   0.0000
     0.0000   0.0000   0.0000   0.0000   0.0000   0.0000   0.0000   0.0000

          k = 0.0000 0.3849 0.1955 (  3348 PWs)   bands (ev):

   -21.2236 -20.5819 -20.5028 -16.8058 -16.5364 -16.4714 -16.3402 -16.2017
   -16.1513  -7.6327  -6.8051  -5.4516  -5.3882  -5.3381  -5.2620  -4.6394
    -4.3364  -3.7988  -3.0557  -3.0062  -1.1461  -1.0044  -0.7925  -0.4268
    -0.2396  -0.0376   0.0393   0.2100   0.3397   0.3907   1.5392   1.6252
     1.9820   2.1705   2.3107   2.5345   9.5020  10.1616  10.4953  10.6261
    11.1728  11.5271  11.6325  11.8085  11.9991  12.3085  12.6930  12.8825
    13.0899  13.3863  13.7305  13.9457  14.5049  14.6940  15.1479  15.3404
    15.9799  16.2380  17.0334  17.4561  17.7790  18.0498  18.4024  18.5669

     occupation numbers 
     1.0000   1.0000   1.0000   1.0000   1.0000   1.0000   1.0000   1.0000
     1.0000   1.0000   1.0000   1.0000   1.0000   1.0000   1.0000   1.0000
     1.0000   1.0000   1.0000   1.0000   1.0000   1.0000   1.0000   1.0000
     1.0000   1.0000   1.0000   1.0000   1.0000   1.0000   1.0000   1.0000
     1.0000   1.0000   1.0000   1.0000   0.0000   0.0000   0.0000   0.0000
     0.0000   0.0000   0.0000   0.0000   0.0000   0.0000   0.0000   0.0000
     0.0000   0.0000   0.0000   0.0000   0.0000   0.0000   0.0000   0.0000
     0.0000   0.0000   0.0000   0.0000   0.0000   0.0000   0.0000   0.0000

          k = 0.3333 0.5774 0.0000 (  3330 PWs)   bands (ev):

   -21.2162 -20.5124 -20.5124 -16.9419 -16.5605 -16.4436 -16.4435 -16.1583
   -16.1583  -6.5383  -6.5383  -6.3021  -5.3949  -5.3608  -5.3608  -4.9027
    -3.9407  -3.9407  -2.9245  -2.9245  -1.1758  -1.1758  -1.0316  -0.3037
    -0.2673   0.0250   0.0250   0.2487   0.2987   0.2987   1.4419   1.4419
     1.5578   2.2790   2.2790   2.3262  10.1986  10.7074  10.7074  11.4506
    11.4506  11.9088  11.9858  11.9858  12.0657  12.2457  12.2457  12.8520
    12.8520  13.4749  13.6930  13.6930  14.2684  14.9052  14.9052  15.1453
    16.4120  16.4120  16.7108  17.1997  17.9177  17.9178  18.2374  18.3521

     occupation numbers 
     1.0000   1.0000   1.0000   1.0000   1.0000   1.0000   1.0000   1.0000
     1.0000   1.0000   1.0000   1.0000   1.0000   1.0000   1.0000   1.0000
     1.0000   1.0000   1.0000   1.0000   1.0000   1.0000   1.0000   1.0000
     1.0000   1.0000   1.0000   1.0000   1.0000   1.0000   1.0000   1.0000
     1.0000   1.0000   1.0000   1.0000   0.0000   0.0000   0.0000   0.0000
     0.0000   0.0000   0.0000   0.0000   0.0000   0.0000   0.0000   0.0000
     0.0000   0.0000   0.0000   0.0000   0.0000   0.0000   0.0000   0.0000
     0.0000   0.0000   0.0000   0.0000   0.0000   0.0000   0.0000   0.0000

          k = 0.3333 0.5774 0.1955 (  3339 PWs)   bands (ev):

   -21.2162 -20.5126 -20.5124 -16.9435 -16.5587 -16.4445 -16.4443 -16.1576
   -16.1574  -6.5489  -6.5434  -6.3029  -5.3932  -5.3495  -5.3363  -4.9104
    -3.9556  -3.9497  -2.9225  -2.9219  -1.1985  -1.1899  -0.9491  -0.4871
    -0.1680   0.0315   0.0322   0.2402   0.2896   0.3011   1.4472   1.4491
     1.6727   2.2077   2.2718   2.2890  10.3133  10.6693  10.7201  11.3293
    11.3706  11.6539  11.9418  11.9638  12.2236  12.2499  12.2682  13.0597
    13.1484  13.6370  13.6818  13.8419  13.9896  14.6433  14.7747  15.1896
    16.2760  16.5878  16.6687  17.2756  17.5003  17.6827  18.2860  18.4790

     occupation numbers 
     1.0000   1.0000   1.0000   1.0000   1.0000   1.0000   1.0000   1.0000
     1.0000   1.0000   1.0000   1.0000   1.0000   1.0000   1.0000   1.0000
     1.0000   1.0000   1.0000   1.0000   1.0000   1.0000   1.0000   1.0000
     1.0000   1.0000   1.0000   1.0000   1.0000   1.0000   1.0000   1.0000
     1.0000   1.0000   1.0000   1.0000   0.0000   0.0000   0.0000   0.0000
     0.0000   0.0000   0.0000   0.0000   0.0000   0.0000   0.0000   0.0000
     0.0000   0.0000   0.0000   0.0000   0.0000   0.0000   0.0000   0.0000
     0.0000   0.0000   0.0000   0.0000   0.0000   0.0000   0.0000   0.0000

          k = 0.0000 0.3849-0.1955 (  3348 PWs)   bands (ev):

   -21.2237 -20.5795 -20.5052 -16.8048 -16.5362 -16.4711 -16.3405 -16.2041
   -16.1498  -7.6179  -6.8338  -5.4516  -5.3540  -5.3364  -5.2867  -4.6405
    -4.3253  -3.7969  -3.0496  -3.0107  -1.1676  -1.0381  -0.7994  -0.3155
    -0.2531  -0.0612   0.0029   0.2635   0.3197   0.3541   1.5692   1.6534
     1.9718   2.1193   2.2837   2.5814   9.5692   9.9572  10.4385  10.9565
    11.2385  11.3858  11.6709  11.7043  11.9794  12.2704  12.7581  13.0288
    13.1248  13.2032  13.9543  14.0242  14.1327  14.3291  15.2651  15.6929
    15.9445  16.2997  16.9617  17.5666  17.8565  17.9703  18.4273  18.7759

     occupation numbers 
     1.0000   1.0000   1.0000   1.0000   1.0000   1.0000   1.0000   1.0000
     1.0000   1.0000   1.0000   1.0000   1.0000   1.0000   1.0000   1.0000
     1.0000   1.0000   1.0000   1.0000   1.0000   1.0000   1.0000   1.0000
     1.0000   1.0000   1.0000   1.0000   1.0000   1.0000   1.0000   1.0000
     1.0000   1.0000   1.0000   1.0000   0.0000   0.0000   0.0000   0.0000
     0.0000   0.0000   0.0000   0.0000   0.0000   0.0000   0.0000   0.0000
     0.0000   0.0000   0.0000   0.0000   0.0000   0.0000   0.0000   0.0000
     0.0000   0.0000   0.0000   0.0000   0.0000   0.0000   0.0000   0.0000

     highest occupied, lowest unoccupied level (ev):     2.6213    8.0428

!    total energy              =    -469.91133631 Ry
     estimated scf accuracy    <       0.00000074 Ry

     The total energy is the sum of the following terms:
     one-electron contribution =    -217.84184442 Ry
     hartree contribution      =     144.48212060 Ry
     xc contribution           =     -87.75800450 Ry
     ewald contribution        =    -198.03666141 Ry
     one-center paw contrib.   =    -110.75694659 Ry
      -> PAW hartree energy AE =       1.71348371 Ry
      -> PAW hartree energy PS =      -1.71120741 Ry
      -> PAW xc energy AE      =     -36.67993981 Ry
      -> PAW xc energy PS      =       2.05237526 Ry
      -> total E_H with PAW    =     144.48439691 Ry
      -> total E_XC with PAW   =    -122.38556905 Ry

     convergence has been achieved in   7 iterations

     Writing all to output data dir calculations_bands_val/myprefix.save/
 
     init_run     :      7.08s CPU      2.27s WALL (       1 calls)
     electrons    :     18.23s CPU      4.82s WALL (       1 calls)

     Called by init_run:
     wfcinit      :      0.48s CPU      0.13s WALL (       1 calls)
     wfcinit:atom :      0.00s CPU      0.00s WALL (       4 calls)
     wfcinit:wfcr :      0.46s CPU      0.12s WALL (       4 calls)
     potinit      :      2.14s CPU      0.56s WALL (       1 calls)
     hinit0       :      3.24s CPU      1.02s WALL (       1 calls)

     Called by electrons:
     c_bands      :     12.04s CPU      3.13s WALL (       7 calls)
     sum_band     :      2.42s CPU      0.67s WALL (       7 calls)
     v_of_rho     :      0.42s CPU      0.11s WALL (       8 calls)
     v_h          :      0.03s CPU      0.01s WALL (       8 calls)
     v_xc         :      0.39s CPU      0.10s WALL (       8 calls)
     newd         :      1.05s CPU      0.30s WALL (       8 calls)
     PAW_pot      :      2.51s CPU      0.66s WALL (       8 calls)
     mix_rho      :      0.10s CPU      0.03s WALL (       7 calls)

     Called by c_bands:
     init_us_2    :      0.07s CPU      0.02s WALL (      60 calls)
     init_us_2:cp :      0.07s CPU      0.02s WALL (      60 calls)
     cegterg      :     11.14s CPU      2.89s WALL (      28 calls)

     Called by sum_band:
     sum_band:wei :      0.01s CPU      0.00s WALL (       7 calls)
     sum_band:loo :      1.36s CPU      0.35s WALL (       7 calls)
     sum_band:buf :      0.02s CPU      0.01s WALL (      28 calls)
     sum_band:ini :      0.03s CPU      0.01s WALL (      28 calls)
     sum_band:cal :      0.08s CPU      0.02s WALL (      28 calls)
     sum_band:bec :      0.01s CPU      0.00s WALL (      28 calls)
     addusdens    :      0.82s CPU      0.26s WALL (       7 calls)
     addusd:skk   :      0.00s CPU      0.00s WALL (      21 calls)
     addusd:dgemm :      0.15s CPU      0.08s WALL (      21 calls)
     addusd:qvan2 :      0.59s CPU      0.15s WALL (      21 calls)

     Called by *egterg:
     cdiaghg      :      2.95s CPU      0.77s WALL (     169 calls)
     cegterg:over :      0.44s CPU      0.11s WALL (     141 calls)
     cegterg:upda :      0.23s CPU      0.06s WALL (     141 calls)
     cegterg:last :      0.40s CPU      0.10s WALL (      64 calls)
     cdiaghg:chol :      0.20s CPU      0.05s WALL (     169 calls)
     cdiaghg:inve :      0.04s CPU      0.01s WALL (     169 calls)
     cdiaghg:para :      0.43s CPU      0.11s WALL (     338 calls)
     h_psi        :      7.19s CPU      1.86s WALL (     173 calls)
     s_psi        :      0.14s CPU      0.04s WALL (     173 calls)
     g_psi        :      0.02s CPU      0.00s WALL (     141 calls)

     Called by h_psi:
     h_psi:calbec :      0.26s CPU      0.07s WALL (     173 calls)
     vloc_psi     :      6.69s CPU      1.73s WALL (     173 calls)
     add_vuspsi   :      0.19s CPU      0.05s WALL (     173 calls)

     General routines
     calbec       :      0.34s CPU      0.09s WALL (     201 calls)
     fft          :      1.57s CPU      0.46s WALL (     102 calls)
     ffts         :      1.13s CPU      0.30s WALL (      15 calls)
     fftw         :      6.67s CPU      1.72s WALL (   11800 calls)
     interpolate  :      1.16s CPU      0.31s WALL (       8 calls)
 
     Parallel routines

     PAW routines
     PAW_pot      :      2.51s CPU      0.66s WALL (       8 calls)
     PAW_symme    :      0.02s CPU      0.01s WALL (      15 calls)
 
     PWSCF        :     26.38s CPU      8.26s WALL

 
   This run was terminated on:  10:16: 5   4Jun2023            

=------------------------------------------------------------------------------=
   JOB DONE.
=------------------------------------------------------------------------------=
