
     Program PWSCF v.7.0 starts on  4Jun2023 at 13:30:24 

     This program is part of the open-source Quantum ESPRESSO suite
     for quantum simulation of materials; please cite
         "P. Giannozzi et al., J. Phys.:Condens. Matter 21 395502 (2009);
         "P. Giannozzi et al., J. Phys.:Condens. Matter 29 465901 (2017);
         "P. Giannozzi et al., J. Chem. Phys. 152 154105 (2020);
          URL http://www.quantum-espresso.org", 
     in publications or presentations arising from this work. More details at
     http://www.quantum-espresso.org/quote

     Parallel version (MPI & OpenMP), running on      32 processor cores
     Number of MPI processes:                 8
     Threads/MPI process:                     4

     MPI processes distributed on     1 nodes
     K-points division:     npool     =       2
     R & G space division:  proc/nbgrp/npool/nimage =       4
     142309 MiB available memory on the printing compute node when the environment starts
 
     Reading input from espresso_599.pwi
Warning: card &CELL ignored
Warning: card / ignored

     Current dimensions of program PWSCF are:
     Max number of different atomic species (ntypx) = 10
     Max number of k-points (npk) =  40000
     Max angular momentum in pseudopotentials (lmaxx) =  4
     file Fe.pbe-spn-kjpaw_psl.0.2.1.UPF: wavefunction(s)  3D renormalized
     file O.pbe-n-kjpaw_psl.0.1.UPF: wavefunction(s)  2P renormalized
     Message from routine setup:
     using ibrav=0 with symmetry is DISCOURAGED, use correct ibrav instead

     Subspace diagonalization in iterative solution of the eigenvalue problem:
     one sub-group per band group will be used
     scalapack distributed-memory algorithm (size of sub-group:  2*  2 procs)

 
     Parallelization info
     --------------------
     sticks:   dense  smooth     PW     G-vecs:    dense   smooth      PW
     Min         262     132     38                15814     5586     883
     Max         263     133     39                15819     5591     885
     Sum        1051     529    155                63269    22353    3537
 
     Using Slab Decomposition
 


     bravais-lattice index     =            0
     lattice parameter (alat)  =       5.8029  a.u.
     unit-cell volume          =    1007.4256 (a.u.)^3
     number of atoms/cell      =           12
     number of atomic types    =            3
     number of electrons       =       116.00
     number of Kohn-Sham states=           64
     kinetic-energy cutoff     =      30.0000  Ry
     charge density cutoff     =     240.0000  Ry
     scf convergence threshold =      1.0E-06
     mixing beta               =       0.7000
     number of iterations used =            8  plain     mixing
     Exchange-correlation=  SLA  PW   PBX  PBC
                           (   1   4   3   4   0   0   0)

     celldm(1)=   5.802899  celldm(2)=   0.000000  celldm(3)=   0.000000
     celldm(4)=   0.000000  celldm(5)=   0.000000  celldm(6)=   0.000000

     crystal axes: (cart. coord. in units of alat)
               a(1) = (   1.000000   0.000000   0.000000 )  
               a(2) = (   0.000000   1.625460   0.000000 )  
               a(3) = (   0.000000  -0.000004   3.171769 )  

     reciprocal axes: (cart. coord. in units 2 pi/alat)
               b(1) = (  1.000000  0.000000  0.000000 )  
               b(2) = (  0.000000  0.615210  0.000001 )  
               b(3) = (  0.000000  0.000000  0.315281 )  


     PseudoPot. # 1 for Fe read from file:
     /home/pragov/projects/rrg-bengioy-ad/pragov/crystal_structure_design/SSSP/Fe.pbe-spn-kjpaw_psl.0.2.1.UPF
     MD5 check sum: e86618425769142926afa95317d90200
     Pseudo is Projector augmented-wave + core cor, Zval = 16.0
     Generated using "atomic" code by A. Dal Corso  v.5.0.99 svn rev. 10869
     Shape of augmentation charge: PSQ
     Using radial grid of 1191 points,  6 beta functions with: 
                l(1) =   0
                l(2) =   0
                l(3) =   1
                l(4) =   1
                l(5) =   2
                l(6) =   2
     Q(r) pseudized with 0 coefficients 


     PseudoPot. # 2 for O  read from file:
     /home/pragov/projects/rrg-bengioy-ad/pragov/crystal_structure_design/SSSP/O.pbe-n-kjpaw_psl.0.1.UPF
     MD5 check sum: 0234752ac141de4415c5fc33072bef88
     Pseudo is Projector augmented-wave + core cor, Zval =  6.0
     Generated using "atomic" code by A. Dal Corso  v.5.0.99 svn rev. 10869
     Shape of augmentation charge: BESSEL
     Using radial grid of 1095 points,  4 beta functions with: 
                l(1) =   0
                l(2) =   0
                l(3) =   1
                l(4) =   1
     Q(r) pseudized with 0 coefficients 


     PseudoPot. # 3 for F  read from file:
     /home/pragov/projects/rrg-bengioy-ad/pragov/crystal_structure_design/SSSP/f_pbe_v1.4.uspp.F.UPF
     MD5 check sum: 4c38b6a325caf53ec0e86aed9459de46
     Pseudo is Ultrasoft, Zval =  7.0
     Generated by new atomic code, or converted to UPF format
     Using radial grid of  799 points,  4 beta functions with: 
                l(1) =   0
                l(2) =   0
                l(3) =   1
                l(4) =   1
     Q(r) pseudized with  8 coefficients,  rinner =    0.950   0.950   0.950


     atomic species   valence    mass     pseudopotential
        Fe            16.00    55.84500     Fe( 1.00)
        O              6.00    15.99900     O ( 1.00)
        F              7.00    18.99840     F ( 1.00)

      2 Sym. Ops. (no inversion) found ( 1 have fractional translation)


                                    s                        frac. trans.

      isym =  1     identity                                     

 cryst.   s( 1) = (     1          0          0      )
                  (     0          1          0      )
                  (     0          0          1      )

 cart.    s( 1) = (  1.0000000  0.0000000  0.0000000 )
                  (  0.0000000  1.0000000  0.0000000 )
                  (  0.0000000  0.0000000  1.0000000 )


      isym =  2     inv. 180 deg rotation - cart. axis [1,0,0]   

 cryst.   s( 2) = (    -1          0          0      )    f =(  0.5000000 )
                  (     0          1          0      )       (  0.0000000 )
                  (     0          0          1      )       (  0.0000000 )

 cart.    s( 2) = ( -1.0000000  0.0000000  0.0000000 )    f =(  0.5000000 )
                  (  0.0000000  1.0000000  0.0000000 )       (  0.0000000 )
                  (  0.0000000  0.0000000  1.0000000 )       (  0.0000000 )


   Cartesian axes

     site n.     atom                  positions (alat units)
         1           Fe  tau(   1) = (   0.7500000   0.7736172   1.0887826  )
         2           Fe  tau(   2) = (   0.7500000   0.0391088   2.6746733  )
         3           Fe  tau(   3) = (   0.2500000   1.5863074   0.4970098  )
         4           Fe  tau(   4) = (   0.2499990   0.8518787   2.0829005  )
         5           O   tau(   5) = (   0.7500000   0.2750710   0.7244130  )
         6           O   tau(   6) = (   0.2500000   1.0878270   0.8614968  )
         7           O   tau(   7) = (   0.7500000   0.5376542   2.3102973  )
         8           O   tau(   8) = (   0.2500000   1.3503615   2.4473812  )
         9           F   tau(   9) = (   0.7500000   1.3115855   0.1015347  )
        10           F   tau(  10) = (   0.2500000   0.4988716   1.4844068  )
        11           F   tau(  11) = (   0.7500000   1.1266047   1.6874190  )
        12           F   tau(  12) = (   0.2500000   0.3138567   3.0702912  )

   Crystallographic axes

     site n.     atom                  positions (cryst. coord.)
         1           Fe  tau(   1) = (  0.7500000  0.4759380  0.3432730  )
         2           Fe  tau(   2) = (  0.7500000  0.0240620  0.8432750  )
         3           Fe  tau(   3) = (  0.2500000  0.9759130  0.1566980  )
         4           Fe  tau(   4) = (  0.2499990  0.5240860  0.6567000  )
         5           O   tau(   5) = (  0.7500000  0.1692270  0.2283940  )
         6           O   tau(   6) = (  0.2500000  0.6692430  0.2716140  )
         7           O   tau(   7) = (  0.7500000  0.3307720  0.7283940  )
         8           O   tau(   8) = (  0.2500000  0.8307580  0.7716140  )
         9           F   tau(   9) = (  0.7500000  0.8069010  0.0320120  )
        10           F   tau(  10) = (  0.2500000  0.3069120  0.4680060  )
        11           F   tau(  11) = (  0.7500000  0.6931000  0.5320120  )
        12           F   tau(  12) = (  0.2500000  0.1930900  0.9680060  )

     number of k points=    10
                       cart. coord. in units 2pi/alat
        k(    1) = (   0.0000000   0.0000000   0.0000000), wk =   0.0740741
        k(    2) = (   0.0000000   0.0000000   0.1050938), wk =   0.1481481
        k(    3) = (   0.0000000   0.2050701   0.0000002), wk =   0.1481481
        k(    4) = (   0.0000000   0.2050701   0.1050941), wk =   0.1481481
        k(    5) = (   0.0000000   0.2050701  -0.1050936), wk =   0.1481481
        k(    6) = (   0.3333333   0.0000000   0.0000000), wk =   0.1481481
        k(    7) = (   0.3333333   0.0000000   0.1050938), wk =   0.2962963
        k(    8) = (   0.3333333   0.2050701   0.0000002), wk =   0.2962963
        k(    9) = (   0.3333333   0.2050701   0.1050941), wk =   0.2962963
        k(   10) = (   0.3333333   0.2050701  -0.1050936), wk =   0.2962963

                       cryst. coord.
        k(    1) = (   0.0000000   0.0000000   0.0000000), wk =   0.0740741
        k(    2) = (   0.0000000   0.0000000   0.3333333), wk =   0.1481481
        k(    3) = (   0.0000000   0.3333333   0.0000000), wk =   0.1481481
        k(    4) = (   0.0000000   0.3333333   0.3333333), wk =   0.1481481
        k(    5) = (   0.0000000   0.3333333  -0.3333333), wk =   0.1481481
        k(    6) = (   0.3333333   0.0000000   0.0000000), wk =   0.1481481
        k(    7) = (   0.3333333   0.0000000   0.3333333), wk =   0.2962963
        k(    8) = (   0.3333333   0.3333333   0.0000000), wk =   0.2962963
        k(    9) = (   0.3333333   0.3333333   0.3333333), wk =   0.2962963
        k(   10) = (   0.3333333   0.3333333  -0.3333333), wk =   0.2962963

     Dense  grid:    63269 G-vectors     FFT dimensions: (  30,  48,  96)

     Smooth grid:    22353 G-vectors     FFT dimensions: (  24,  36,  72)

     Dynamical RAM for                 wfc:       0.68 MB

     Dynamical RAM for     wfc (w. buffer):       4.09 MB

     Dynamical RAM for           str. fact:       0.72 MB

     Dynamical RAM for           local pot:       0.00 MB

     Dynamical RAM for          nlocal pot:       1.45 MB

     Dynamical RAM for                qrad:       3.73 MB

     Dynamical RAM for          rho,v,vnew:       1.52 MB

     Dynamical RAM for               rhoin:       0.51 MB

     Dynamical RAM for            rho*nmix:       3.86 MB

     Dynamical RAM for           G-vectors:       0.95 MB

     Dynamical RAM for          h,s,v(r/c):       0.19 MB

     Dynamical RAM for          <psi|beta>:       0.13 MB

     Dynamical RAM for                 psi:       1.36 MB

     Dynamical RAM for                hpsi:       1.36 MB

     Dynamical RAM for                spsi:       1.36 MB

     Dynamical RAM for      wfcinit/wfcrot:       1.95 MB

     Dynamical RAM for           addusdens:      23.05 MB

     Estimated static dynamical RAM per process >      15.25 MB

     Estimated max dynamical RAM per process >      42.16 MB

     Estimated total dynamical RAM >     321.82 MB

     Check: negative core charge=   -0.000158

     Initial potential from superposition of free atoms

     starting charge     115.9982, renormalised to     116.0000
     Starting wfcs are   84 randomized atomic wfcs
     Checking if some PAW data can be deallocated... 
       PAW data deallocated on    6 nodes for type:  1
       PAW data deallocated on    6 nodes for type:  2

     total cpu time spent up to now is        2.6 secs

     Self-consistent Calculation

     iteration #  1     ecut=    30.00 Ry     beta= 0.70
     Davidson diagonalization with overlap

---- Real-time Memory Report at c_bands before calling an iterative solver
           193 MiB given to the printing process from OS
             0 MiB allocation reported by mallinfo(arena+hblkhd)
        141557 MiB available memory on the node where the printing process lives
------------------
     ethr =  1.00E-02,  avg # of iterations =  2.0

     negative rho (up, down):  4.885E-05 0.000E+00

     total cpu time spent up to now is        3.2 secs

     total energy              =   -1675.24372380 Ry
     estimated scf accuracy    <       2.39061321 Ry

     iteration #  2     ecut=    30.00 Ry     beta= 0.70
     Davidson diagonalization with overlap

---- Real-time Memory Report at c_bands before calling an iterative solver
           232 MiB given to the printing process from OS
             0 MiB allocation reported by mallinfo(arena+hblkhd)
        141450 MiB available memory on the node where the printing process lives
------------------
     ethr =  2.06E-03,  avg # of iterations =  5.5

     negative rho (up, down):  1.078E-03 0.000E+00

     total cpu time spent up to now is        4.2 secs

     total energy              =   -1671.51073941 Ry
     estimated scf accuracy    <      54.29879266 Ry

     iteration #  3     ecut=    30.00 Ry     beta= 0.70
     Davidson diagonalization with overlap

---- Real-time Memory Report at c_bands before calling an iterative solver
           239 MiB given to the printing process from OS
             0 MiB allocation reported by mallinfo(arena+hblkhd)
        141394 MiB available memory on the node where the printing process lives
------------------
     ethr =  2.06E-03,  avg # of iterations =  5.1

     negative rho (up, down):  4.949E-05 0.000E+00

     total cpu time spent up to now is        5.2 secs

     total energy              =   -1676.54976191 Ry
     estimated scf accuracy    <       0.86702784 Ry

     iteration #  4     ecut=    30.00 Ry     beta= 0.70
     Davidson diagonalization with overlap

---- Real-time Memory Report at c_bands before calling an iterative solver
           239 MiB given to the printing process from OS
             0 MiB allocation reported by mallinfo(arena+hblkhd)
        141391 MiB available memory on the node where the printing process lives
------------------
     ethr =  7.47E-04,  avg # of iterations =  2.5

     negative rho (up, down):  3.682E-04 0.000E+00

     total cpu time spent up to now is        5.9 secs

     total energy              =   -1676.61829327 Ry
     estimated scf accuracy    <       0.45441997 Ry

     iteration #  5     ecut=    30.00 Ry     beta= 0.70
     Davidson diagonalization with overlap

---- Real-time Memory Report at c_bands before calling an iterative solver
           239 MiB given to the printing process from OS
             0 MiB allocation reported by mallinfo(arena+hblkhd)
        141391 MiB available memory on the node where the printing process lives
------------------
     ethr =  3.92E-04,  avg # of iterations =  5.7

     negative rho (up, down):  1.267E-03 0.000E+00

     total cpu time spent up to now is        6.7 secs

     total energy              =   -1676.08715769 Ry
     estimated scf accuracy    <      28.35349439 Ry

     iteration #  6     ecut=    30.00 Ry     beta= 0.70
     Davidson diagonalization with overlap

---- Real-time Memory Report at c_bands before calling an iterative solver
           242 MiB given to the printing process from OS
             0 MiB allocation reported by mallinfo(arena+hblkhd)
        141378 MiB available memory on the node where the printing process lives
------------------
     ethr =  3.92E-04,  avg # of iterations =  5.8

     negative rho (up, down):  2.786E-04 0.000E+00

     total cpu time spent up to now is        7.5 secs

     total energy              =   -1676.63315864 Ry
     estimated scf accuracy    <       0.36527955 Ry

     iteration #  7     ecut=    30.00 Ry     beta= 0.70
     Davidson diagonalization with overlap

---- Real-time Memory Report at c_bands before calling an iterative solver
           244 MiB given to the printing process from OS
             0 MiB allocation reported by mallinfo(arena+hblkhd)
        141372 MiB available memory on the node where the printing process lives
------------------
     ethr =  3.15E-04,  avg # of iterations =  4.6

     negative rho (up, down):  5.227E-04 0.000E+00

     total cpu time spent up to now is        8.3 secs

     total energy              =   -1676.58409959 Ry
     estimated scf accuracy    <       4.87553823 Ry

     iteration #  8     ecut=    30.00 Ry     beta= 0.70
     Davidson diagonalization with overlap

---- Real-time Memory Report at c_bands before calling an iterative solver
           244 MiB given to the printing process from OS
             0 MiB allocation reported by mallinfo(arena+hblkhd)
        141364 MiB available memory on the node where the printing process lives
------------------
     ethr =  3.15E-04,  avg # of iterations =  2.0

     negative rho (up, down):  5.223E-04 0.000E+00

     total cpu time spent up to now is        8.9 secs

     total energy              =   -1676.66224708 Ry
     estimated scf accuracy    <       0.25284483 Ry

     iteration #  9     ecut=    30.00 Ry     beta= 0.70
     Davidson diagonalization with overlap

---- Real-time Memory Report at c_bands before calling an iterative solver
           244 MiB given to the printing process from OS
             0 MiB allocation reported by mallinfo(arena+hblkhd)
        141365 MiB available memory on the node where the printing process lives
------------------
     ethr =  2.18E-04,  avg # of iterations =  1.5

     negative rho (up, down):  5.224E-04 0.000E+00

     total cpu time spent up to now is        9.6 secs

     total energy              =   -1676.67506375 Ry
     estimated scf accuracy    <       0.12334064 Ry

     iteration # 10     ecut=    30.00 Ry     beta= 0.70
     Davidson diagonalization with overlap

---- Real-time Memory Report at c_bands before calling an iterative solver
           244 MiB given to the printing process from OS
             0 MiB allocation reported by mallinfo(arena+hblkhd)
        141370 MiB available memory on the node where the printing process lives
------------------
     ethr =  1.06E-04,  avg # of iterations =  2.3

     negative rho (up, down):  5.150E-04 0.000E+00

     total cpu time spent up to now is       10.2 secs

     total energy              =   -1676.67959917 Ry
     estimated scf accuracy    <       0.01054650 Ry

     iteration # 11     ecut=    30.00 Ry     beta= 0.70
     Davidson diagonalization with overlap

---- Real-time Memory Report at c_bands before calling an iterative solver
           244 MiB given to the printing process from OS
             0 MiB allocation reported by mallinfo(arena+hblkhd)
        141376 MiB available memory on the node where the printing process lives
------------------
     ethr =  9.09E-06,  avg # of iterations =  6.7

     negative rho (up, down):  4.903E-04 0.000E+00

     total cpu time spent up to now is       11.1 secs

     total energy              =   -1676.68049664 Ry
     estimated scf accuracy    <       0.02010340 Ry

     iteration # 12     ecut=    30.00 Ry     beta= 0.70
     Davidson diagonalization with overlap

---- Real-time Memory Report at c_bands before calling an iterative solver
           245 MiB given to the printing process from OS
             0 MiB allocation reported by mallinfo(arena+hblkhd)
        141365 MiB available memory on the node where the printing process lives
------------------
     ethr =  9.09E-06,  avg # of iterations =  2.7

     negative rho (up, down):  4.743E-04 0.000E+00

     total cpu time spent up to now is       11.7 secs

     total energy              =   -1676.68162030 Ry
     estimated scf accuracy    <       0.00788469 Ry

     iteration # 13     ecut=    30.00 Ry     beta= 0.70
     Davidson diagonalization with overlap

---- Real-time Memory Report at c_bands before calling an iterative solver
           245 MiB given to the printing process from OS
             0 MiB allocation reported by mallinfo(arena+hblkhd)
        141372 MiB available memory on the node where the printing process lives
------------------
     ethr =  6.80E-06,  avg # of iterations =  1.1

     negative rho (up, down):  4.730E-04 0.000E+00

     total cpu time spent up to now is       12.3 secs

     total energy              =   -1676.68196253 Ry
     estimated scf accuracy    <       0.00138691 Ry

     iteration # 14     ecut=    30.00 Ry     beta= 0.70
     Davidson diagonalization with overlap

---- Real-time Memory Report at c_bands before calling an iterative solver
           246 MiB given to the printing process from OS
             0 MiB allocation reported by mallinfo(arena+hblkhd)
        141372 MiB available memory on the node where the printing process lives
------------------
     ethr =  1.20E-06,  avg # of iterations =  5.4

     negative rho (up, down):  4.700E-04 0.000E+00

     total cpu time spent up to now is       13.1 secs

     total energy              =   -1676.68201164 Ry
     estimated scf accuracy    <       0.00056197 Ry

     iteration # 15     ecut=    30.00 Ry     beta= 0.70
     Davidson diagonalization with overlap

---- Real-time Memory Report at c_bands before calling an iterative solver
           246 MiB given to the printing process from OS
             0 MiB allocation reported by mallinfo(arena+hblkhd)
        141363 MiB available memory on the node where the printing process lives
------------------
     ethr =  4.84E-07,  avg # of iterations =  5.0

     negative rho (up, down):  4.785E-04 0.000E+00

     total cpu time spent up to now is       14.0 secs

     total energy              =   -1676.68157138 Ry
     estimated scf accuracy    <       0.01823934 Ry

     iteration # 16     ecut=    30.00 Ry     beta= 0.70
     Davidson diagonalization with overlap

---- Real-time Memory Report at c_bands before calling an iterative solver
           247 MiB given to the printing process from OS
             0 MiB allocation reported by mallinfo(arena+hblkhd)
        141359 MiB available memory on the node where the printing process lives
------------------
     ethr =  4.84E-07,  avg # of iterations =  4.0

     negative rho (up, down):  4.770E-04 0.000E+00

     total cpu time spent up to now is       14.8 secs

     total energy              =   -1676.68204866 Ry
     estimated scf accuracy    <       0.00042361 Ry

     iteration # 17     ecut=    30.00 Ry     beta= 0.70
     Davidson diagonalization with overlap

---- Real-time Memory Report at c_bands before calling an iterative solver
           248 MiB given to the printing process from OS
             0 MiB allocation reported by mallinfo(arena+hblkhd)
        141361 MiB available memory on the node where the printing process lives
------------------
     ethr =  3.65E-07,  avg # of iterations =  5.8

     negative rho (up, down):  4.730E-04 0.000E+00

     total cpu time spent up to now is       16.0 secs

     total energy              =   -1676.68196382 Ry
     estimated scf accuracy    <       0.00202377 Ry

     iteration # 18     ecut=    30.00 Ry     beta= 0.70
     Davidson diagonalization with overlap

---- Real-time Memory Report at c_bands before calling an iterative solver
           249 MiB given to the printing process from OS
             0 MiB allocation reported by mallinfo(arena+hblkhd)
        141344 MiB available memory on the node where the printing process lives
------------------
     ethr =  3.65E-07,  avg # of iterations =  5.4

     negative rho (up, down):  4.697E-04 0.000E+00

     total cpu time spent up to now is       17.6 secs

     total energy              =   -1676.68204722 Ry
     estimated scf accuracy    <       0.00317148 Ry

     iteration # 19     ecut=    30.00 Ry     beta= 0.70
     Davidson diagonalization with overlap

---- Real-time Memory Report at c_bands before calling an iterative solver
           250 MiB given to the printing process from OS
             0 MiB allocation reported by mallinfo(arena+hblkhd)
        141341 MiB available memory on the node where the printing process lives
------------------
     ethr =  3.65E-07,  avg # of iterations =  1.9

     negative rho (up, down):  4.701E-04 0.000E+00

     total cpu time spent up to now is       18.2 secs

     total energy              =   -1676.68215514 Ry
     estimated scf accuracy    <       0.00006419 Ry

     iteration # 20     ecut=    30.00 Ry     beta= 0.70
     Davidson diagonalization with overlap

---- Real-time Memory Report at c_bands before calling an iterative solver
           251 MiB given to the printing process from OS
             0 MiB allocation reported by mallinfo(arena+hblkhd)
        141347 MiB available memory on the node where the printing process lives
------------------
     ethr =  5.53E-08,  avg # of iterations =  4.2

     negative rho (up, down):  4.708E-04 0.000E+00

     total cpu time spent up to now is       19.1 secs

     total energy              =   -1676.68214461 Ry
     estimated scf accuracy    <       0.00050285 Ry

     iteration # 21     ecut=    30.00 Ry     beta= 0.70
     Davidson diagonalization with overlap

---- Real-time Memory Report at c_bands before calling an iterative solver
           251 MiB given to the printing process from OS
             0 MiB allocation reported by mallinfo(arena+hblkhd)
        141345 MiB available memory on the node where the printing process lives
------------------
     ethr =  5.53E-08,  avg # of iterations =  3.5

     negative rho (up, down):  4.717E-04 0.000E+00

     total cpu time spent up to now is       19.8 secs

     total energy              =   -1676.68217830 Ry
     estimated scf accuracy    <       0.00003416 Ry

     iteration # 22     ecut=    30.00 Ry     beta= 0.70
     Davidson diagonalization with overlap

---- Real-time Memory Report at c_bands before calling an iterative solver
           251 MiB given to the printing process from OS
             0 MiB allocation reported by mallinfo(arena+hblkhd)
        141349 MiB available memory on the node where the printing process lives
------------------
     ethr =  2.94E-08,  avg # of iterations =  2.1

     negative rho (up, down):  4.721E-04 0.000E+00

     total cpu time spent up to now is       20.5 secs

     total energy              =   -1676.68217878 Ry
     estimated scf accuracy    <       0.00011206 Ry

     iteration # 23     ecut=    30.00 Ry     beta= 0.70
     Davidson diagonalization with overlap

---- Real-time Memory Report at c_bands before calling an iterative solver
           251 MiB given to the printing process from OS
             0 MiB allocation reported by mallinfo(arena+hblkhd)
        141349 MiB available memory on the node where the printing process lives
------------------
     ethr =  2.94E-08,  avg # of iterations =  1.2

     negative rho (up, down):  4.719E-04 0.000E+00

     total cpu time spent up to now is       21.1 secs

     total energy              =   -1676.68218134 Ry
     estimated scf accuracy    <       0.00003221 Ry

     iteration # 24     ecut=    30.00 Ry     beta= 0.70
     Davidson diagonalization with overlap

---- Real-time Memory Report at c_bands before calling an iterative solver
           251 MiB given to the printing process from OS
             0 MiB allocation reported by mallinfo(arena+hblkhd)
        141350 MiB available memory on the node where the printing process lives
------------------
     ethr =  2.78E-08,  avg # of iterations =  1.0

     negative rho (up, down):  4.718E-04 0.000E+00

     total cpu time spent up to now is       21.7 secs

     total energy              =   -1676.68218049 Ry
     estimated scf accuracy    <       0.00002109 Ry

     iteration # 25     ecut=    30.00 Ry     beta= 0.70
     Davidson diagonalization with overlap

---- Real-time Memory Report at c_bands before calling an iterative solver
           251 MiB given to the printing process from OS
             0 MiB allocation reported by mallinfo(arena+hblkhd)
        141349 MiB available memory on the node where the printing process lives
------------------
     ethr =  1.82E-08,  avg # of iterations =  1.0

     negative rho (up, down):  4.718E-04 0.000E+00

     total cpu time spent up to now is       22.3 secs

     total energy              =   -1676.68218164 Ry
     estimated scf accuracy    <       0.00001133 Ry

     iteration # 26     ecut=    30.00 Ry     beta= 0.70
     Davidson diagonalization with overlap

---- Real-time Memory Report at c_bands before calling an iterative solver
           251 MiB given to the printing process from OS
             0 MiB allocation reported by mallinfo(arena+hblkhd)
        141355 MiB available memory on the node where the printing process lives
------------------
     ethr =  9.77E-09,  avg # of iterations =  1.0

     negative rho (up, down):  4.716E-04 0.000E+00

     total cpu time spent up to now is       22.9 secs

     total energy              =   -1676.68218223 Ry
     estimated scf accuracy    <       0.00001054 Ry

     iteration # 27     ecut=    30.00 Ry     beta= 0.70
     Davidson diagonalization with overlap

---- Real-time Memory Report at c_bands before calling an iterative solver
           251 MiB given to the printing process from OS
             0 MiB allocation reported by mallinfo(arena+hblkhd)
        141353 MiB available memory on the node where the printing process lives
------------------
     ethr =  9.09E-09,  avg # of iterations =  1.0

     negative rho (up, down):  4.715E-04 0.000E+00

     total cpu time spent up to now is       23.6 secs

     total energy              =   -1676.68218199 Ry
     estimated scf accuracy    <       0.00000728 Ry

     iteration # 28     ecut=    30.00 Ry     beta= 0.70
     Davidson diagonalization with overlap

---- Real-time Memory Report at c_bands before calling an iterative solver
           251 MiB given to the printing process from OS
             0 MiB allocation reported by mallinfo(arena+hblkhd)
        141350 MiB available memory on the node where the printing process lives
------------------
     ethr =  6.28E-09,  avg # of iterations =  3.5

     negative rho (up, down):  4.719E-04 0.000E+00

     total cpu time spent up to now is       24.3 secs

     total energy              =   -1676.68217951 Ry
     estimated scf accuracy    <       0.00010474 Ry

     iteration # 29     ecut=    30.00 Ry     beta= 0.70
     Davidson diagonalization with overlap

---- Real-time Memory Report at c_bands before calling an iterative solver
           251 MiB given to the printing process from OS
             0 MiB allocation reported by mallinfo(arena+hblkhd)
        141352 MiB available memory on the node where the printing process lives
------------------
     ethr =  6.28E-09,  avg # of iterations =  2.6

     negative rho (up, down):  4.717E-04 0.000E+00

     total cpu time spent up to now is       25.0 secs

     total energy              =   -1676.68218268 Ry
     estimated scf accuracy    <       0.00000383 Ry

     iteration # 30     ecut=    30.00 Ry     beta= 0.70
     Davidson diagonalization with overlap

---- Real-time Memory Report at c_bands before calling an iterative solver
           251 MiB given to the printing process from OS
             0 MiB allocation reported by mallinfo(arena+hblkhd)
        141351 MiB available memory on the node where the printing process lives
------------------
     ethr =  3.30E-09,  avg # of iterations =  1.2

     negative rho (up, down):  4.716E-04 0.000E+00

     total cpu time spent up to now is       25.6 secs

     total energy              =   -1676.68218304 Ry
     estimated scf accuracy    <       0.00000428 Ry

     iteration # 31     ecut=    30.00 Ry     beta= 0.70
     Davidson diagonalization with overlap

---- Real-time Memory Report at c_bands before calling an iterative solver
           251 MiB given to the printing process from OS
             0 MiB allocation reported by mallinfo(arena+hblkhd)
        141354 MiB available memory on the node where the printing process lives
------------------
     ethr =  3.30E-09,  avg # of iterations =  1.2

     negative rho (up, down):  4.714E-04 0.000E+00

     total cpu time spent up to now is       26.2 secs

     total energy              =   -1676.68218316 Ry
     estimated scf accuracy    <       0.00000183 Ry

     iteration # 32     ecut=    30.00 Ry     beta= 0.70
     Davidson diagonalization with overlap

---- Real-time Memory Report at c_bands before calling an iterative solver
           251 MiB given to the printing process from OS
             0 MiB allocation reported by mallinfo(arena+hblkhd)
        141354 MiB available memory on the node where the printing process lives
------------------
     ethr =  1.58E-09,  avg # of iterations =  1.4

     negative rho (up, down):  4.713E-04 0.000E+00

     total cpu time spent up to now is       26.9 secs

     End of self-consistent calculation

          k = 0.0000 0.0000 0.0000 (  2771 PWs)   bands (ev):

   -81.5839 -81.5826 -81.5806 -81.5775 -47.2942 -47.2841 -47.2826 -47.2699
   -47.0559 -47.0460 -47.0371 -47.0270 -47.0191 -47.0169 -47.0075 -46.9911
   -17.1159 -17.0890 -16.5362 -16.5286 -12.6221 -12.5578 -12.0719 -12.0617
    -0.5736   0.0349   0.3187   0.5048   0.6267   0.6530   1.1367   1.2045
     1.3199   1.3221   1.4562   1.6120   1.6277   2.1142   2.2515   2.2644
     2.3157   2.7015   2.7600   2.7987   2.9669   3.0376   3.7980   3.9833
     4.9012   4.9514   5.0236   5.0448   5.0779   5.1460   5.2283   5.2317
     5.3242   5.3423   5.9533   6.3912   6.4340   6.6432   7.5506   7.7046

     occupation numbers 
     1.0000   1.0000   1.0000   1.0000   1.0000   1.0000   1.0000   1.0000
     1.0000   1.0000   1.0000   1.0000   1.0000   1.0000   1.0000   1.0000
     1.0000   1.0000   1.0000   1.0000   1.0000   1.0000   1.0000   1.0000
     1.0000   1.0000   1.0000   1.0000   1.0000   1.0000   1.0000   1.0000
     1.0000   1.0000   1.0000   1.0000   1.0000   1.0000   1.0000   1.0000
     1.0000   1.0000   1.0000   1.0000   1.0000   1.0000   1.0000   1.0000
     1.0000   1.0000   1.0000   1.0000   1.0000   1.0000   1.0000   1.0000
     1.0000   1.0000   0.0000   0.0000   0.0000   0.0000   0.0000   0.0000

          k = 0.0000 0.0000 0.1051 (  2782 PWs)   bands (ev):

   -81.5859 -81.5825 -81.5801 -81.5799 -47.3017 -47.2897 -47.2865 -47.2785
   -47.0539 -47.0498 -47.0420 -47.0399 -47.0277 -47.0109 -47.0086 -46.9890
   -17.1092 -17.0957 -16.5344 -16.5310 -12.6065 -12.5760 -12.0698 -12.0650
    -0.4416  -0.1396   0.3451   0.4140   0.6146   0.6223   1.1425   1.1700
     1.3356   1.4057   1.4244   1.5434   1.9660   2.1627   2.1672   2.2428
     2.2782   2.5568   2.7655   2.9028   2.9277   3.0445   3.7922   3.8982
     4.8989   4.9295   5.0792   5.0919   5.1307   5.1363   5.2235   5.2314
     5.2523   5.2645   6.1428   6.3952   6.4112   6.4796   7.5903   7.6695

     occupation numbers 
     1.0000   1.0000   1.0000   1.0000   1.0000   1.0000   1.0000   1.0000
     1.0000   1.0000   1.0000   1.0000   1.0000   1.0000   1.0000   1.0000
     1.0000   1.0000   1.0000   1.0000   1.0000   1.0000   1.0000   1.0000
     1.0000   1.0000   1.0000   1.0000   1.0000   1.0000   1.0000   1.0000
     1.0000   1.0000   1.0000   1.0000   1.0000   1.0000   1.0000   1.0000
     1.0000   1.0000   1.0000   1.0000   1.0000   1.0000   1.0000   1.0000
     1.0000   1.0000   1.0000   1.0000   1.0000   1.0000   1.0000   1.0000
     1.0000   1.0000   0.0000   0.0000   0.0000   0.0000   0.0000   0.0000

          k = 0.0000 0.2051 0.0000 (  2766 PWs)   bands (ev):

   -81.5863 -81.5800 -81.5796 -81.5775 -47.2916 -47.2911 -47.2786 -47.2732
   -47.0486 -47.0470 -47.0364 -47.0361 -47.0175 -47.0046 -47.0011 -46.9949
   -17.0918 -17.0767 -16.5530 -16.5493 -12.4885 -12.4411 -12.2113 -12.1923
    -0.3978   0.0660   0.2018   0.3541   0.6055   0.6826   1.1536   1.1939
     1.3850   1.5117   1.5244   1.5278   2.0628   2.1538   2.2192   2.3894
     2.4452   2.6084   2.7317   2.7936   2.7958   2.9086   3.2810   3.4571
     4.9141   4.9275   4.9469   4.9946   5.0078   5.0825   5.0942   5.2599
     5.5908   5.8457   6.0449   6.2952   6.6397   7.0989   7.5386   7.6792

     occupation numbers 
     1.0000   1.0000   1.0000   1.0000   1.0000   1.0000   1.0000   1.0000
     1.0000   1.0000   1.0000   1.0000   1.0000   1.0000   1.0000   1.0000
     1.0000   1.0000   1.0000   1.0000   1.0000   1.0000   1.0000   1.0000
     1.0000   1.0000   1.0000   1.0000   1.0000   1.0000   1.0000   1.0000
     1.0000   1.0000   1.0000   1.0000   1.0000   1.0000   1.0000   1.0000
     1.0000   1.0000   1.0000   1.0000   1.0000   1.0000   1.0000   1.0000
     1.0000   1.0000   1.0000   1.0000   1.0000   1.0000   1.0000   1.0000
     1.0000   1.0000   0.0000   0.0000   0.0000   0.0000   0.0000   0.0000

          k = 0.0000 0.2051 0.1051 (  2789 PWs)   bands (ev):

   -81.5870 -81.5842 -81.5821 -81.5803 -47.3037 -47.2995 -47.2878 -47.2825
   -47.0621 -47.0564 -47.0460 -47.0453 -47.0259 -47.0157 -47.0061 -47.0007
   -17.0880 -17.0811 -16.5525 -16.5506 -12.4791 -12.4549 -12.2079 -12.1978
    -0.3105  -0.0861   0.2081   0.2886   0.6430   0.6815   1.1631   1.1792
     1.4137   1.4816   1.5907   1.7904   1.9497   2.1749   2.1802   2.2068
     2.3227   2.4509   2.8125   2.8526   2.8723   2.9391   3.3295   3.4055
     4.9082   4.9307   4.9512   5.0019   5.0271   5.0726   5.1144   5.2111
     5.6336   5.7489   6.1476   6.2600   6.7199   6.9383   7.6686   7.7085

     occupation numbers 
     1.0000   1.0000   1.0000   1.0000   1.0000   1.0000   1.0000   1.0000
     1.0000   1.0000   1.0000   1.0000   1.0000   1.0000   1.0000   1.0000
     1.0000   1.0000   1.0000   1.0000   1.0000   1.0000   1.0000   1.0000
     1.0000   1.0000   1.0000   1.0000   1.0000   1.0000   1.0000   1.0000
     1.0000   1.0000   1.0000   1.0000   1.0000   1.0000   1.0000   1.0000
     1.0000   1.0000   1.0000   1.0000   1.0000   1.0000   1.0000   1.0000
     1.0000   1.0000   1.0000   1.0000   1.0000   1.0000   1.0000   1.0000
     1.0000   1.0000   0.0000   0.0000   0.0000   0.0000   0.0000   0.0000

          k = 0.0000 0.2051-0.1051 (  2789 PWs)   bands (ev):

   -81.5871 -81.5840 -81.5819 -81.5806 -47.3034 -47.2997 -47.2878 -47.2826
   -47.0623 -47.0564 -47.0461 -47.0451 -47.0260 -47.0155 -47.0059 -47.0009
   -17.0880 -17.0811 -16.5525 -16.5506 -12.4791 -12.4549 -12.2078 -12.1978
    -0.3104  -0.0863   0.2083   0.2884   0.6432   0.6813   1.1629   1.1795
     1.4137   1.4816   1.5908   1.7903   1.9499   2.1749   2.1802   2.2068
     2.3225   2.4510   2.8125   2.8524   2.8723   2.9392   3.3296   3.4055
     4.9081   4.9307   4.9513   5.0018   5.0271   5.0726   5.1144   5.2111
     5.6336   5.7489   6.1477   6.2600   6.7198   6.9384   7.6686   7.7086

     occupation numbers 
     1.0000   1.0000   1.0000   1.0000   1.0000   1.0000   1.0000   1.0000
     1.0000   1.0000   1.0000   1.0000   1.0000   1.0000   1.0000   1.0000
     1.0000   1.0000   1.0000   1.0000   1.0000   1.0000   1.0000   1.0000
     1.0000   1.0000   1.0000   1.0000   1.0000   1.0000   1.0000   1.0000
     1.0000   1.0000   1.0000   1.0000   1.0000   1.0000   1.0000   1.0000
     1.0000   1.0000   1.0000   1.0000   1.0000   1.0000   1.0000   1.0000
     1.0000   1.0000   1.0000   1.0000   1.0000   1.0000   1.0000   1.0000
     1.0000   1.0000   0.0000   0.0000   0.0000   0.0000   0.0000   0.0000

          k = 0.3333 0.0000 0.0000 (  2802 PWs)   bands (ev):

   -81.5858 -81.5839 -81.5808 -81.5798 -47.2843 -47.2808 -47.2799 -47.2747
   -47.0898 -47.0807 -47.0601 -47.0597 -47.0393 -47.0389 -47.0386 -47.0288
   -16.8826 -16.8722 -16.5907 -16.5888 -12.3169 -12.2968 -12.0340 -12.0339
     0.2234   0.3263   0.3365   0.4853   0.6552   0.6896   0.7319   0.9224
     1.0615   1.2282   1.2322   1.3124   1.6864   1.8986   2.0185   2.0308
     2.0648   2.2502   2.5122   2.6610   2.8350   2.9061   3.4245   3.5269
     4.8173   5.0121   5.0231   5.0570   5.2136   5.2144   5.2328   5.2398
     5.7953   5.8912   6.2932   6.3915   6.4249   6.5333   6.9979   7.1180

     occupation numbers 
     1.0000   1.0000   1.0000   1.0000   1.0000   1.0000   1.0000   1.0000
     1.0000   1.0000   1.0000   1.0000   1.0000   1.0000   1.0000   1.0000
     1.0000   1.0000   1.0000   1.0000   1.0000   1.0000   1.0000   1.0000
     1.0000   1.0000   1.0000   1.0000   1.0000   1.0000   1.0000   1.0000
     1.0000   1.0000   1.0000   1.0000   1.0000   1.0000   1.0000   1.0000
     1.0000   1.0000   1.0000   1.0000   1.0000   1.0000   1.0000   1.0000
     1.0000   1.0000   1.0000   1.0000   1.0000   1.0000   1.0000   1.0000
     1.0000   1.0000   0.0000   0.0000   0.0000   0.0000   0.0000   0.0000

          k = 0.3333 0.0000 0.1051 (  2806 PWs)   bands (ev):

   -81.5877 -81.5874 -81.5804 -81.5785 -47.2881 -47.2852 -47.2851 -47.2794
   -47.0906 -47.0883 -47.0568 -47.0565 -47.0494 -47.0449 -47.0345 -47.0326
   -16.8799 -16.8748 -16.5902 -16.5892 -12.3117 -12.3026 -12.0339 -12.0329
     0.1616   0.2087   0.5051   0.5872   0.6660   0.6868   0.7645   0.8480
     1.1011   1.1139   1.2126   1.3406   1.6966   1.8320   1.9594   2.0802
     2.1903   2.1998   2.5195   2.6040   2.8627   2.9045   3.4595   3.5057
     4.8479   4.9372   5.0431   5.0653   5.1942   5.2053   5.2515   5.2675
     5.8065   5.8554   6.3260   6.3754   6.4544   6.5156   7.0087   7.0484

     occupation numbers 
     1.0000   1.0000   1.0000   1.0000   1.0000   1.0000   1.0000   1.0000
     1.0000   1.0000   1.0000   1.0000   1.0000   1.0000   1.0000   1.0000
     1.0000   1.0000   1.0000   1.0000   1.0000   1.0000   1.0000   1.0000
     1.0000   1.0000   1.0000   1.0000   1.0000   1.0000   1.0000   1.0000
     1.0000   1.0000   1.0000   1.0000   1.0000   1.0000   1.0000   1.0000
     1.0000   1.0000   1.0000   1.0000   1.0000   1.0000   1.0000   1.0000
     1.0000   1.0000   1.0000   1.0000   1.0000   1.0000   1.0000   1.0000
     1.0000   1.0000   0.0000   0.0000   0.0000   0.0000   0.0000   0.0000

          k = 0.3333 0.2051 0.0000 (  2801 PWs)   bands (ev):

   -81.5874 -81.5828 -81.5822 -81.5808 -47.2923 -47.2881 -47.2835 -47.2765
   -47.0830 -47.0660 -47.0645 -47.0619 -47.0486 -47.0477 -47.0362 -47.0305
   -16.8696 -16.8647 -16.5988 -16.5980 -12.2427 -12.2304 -12.1018 -12.1003
     0.1375   0.1809   0.4048   0.4387   0.4990   0.6010   0.7751   0.8659
     1.1141   1.1641   1.2892   1.4880   1.8474   1.8795   1.9746   2.0406
     2.0789   2.1830   2.6292   2.7866   2.9293   2.9978   3.1783   3.4163
     4.9302   5.0389   5.1295   5.1346   5.1916   5.2053   5.2566   5.2747
     5.8442   5.9628   6.1452   6.2164   6.4611   6.6981   6.7772   7.0785

     occupation numbers 
     1.0000   1.0000   1.0000   1.0000   1.0000   1.0000   1.0000   1.0000
     1.0000   1.0000   1.0000   1.0000   1.0000   1.0000   1.0000   1.0000
     1.0000   1.0000   1.0000   1.0000   1.0000   1.0000   1.0000   1.0000
     1.0000   1.0000   1.0000   1.0000   1.0000   1.0000   1.0000   1.0000
     1.0000   1.0000   1.0000   1.0000   1.0000   1.0000   1.0000   1.0000
     1.0000   1.0000   1.0000   1.0000   1.0000   1.0000   1.0000   1.0000
     1.0000   1.0000   1.0000   1.0000   1.0000   1.0000   1.0000   1.0000
     1.0000   1.0000   0.0000   0.0000   0.0000   0.0000   0.0000   0.0000

          k = 0.3333 0.2051 0.1051 (  2800 PWs)   bands (ev):

   -81.5864 -81.5858 -81.5818 -81.5800 -47.2989 -47.2917 -47.2817 -47.2768
   -47.0774 -47.0762 -47.0618 -47.0563 -47.0494 -47.0468 -47.0335 -47.0321
   -16.8685 -16.8660 -16.5989 -16.5982 -12.2402 -12.2339 -12.1024 -12.1008
     0.1549   0.2236   0.3550   0.4454   0.5028   0.5779   0.7511   0.7742
     1.1658   1.2754   1.3144   1.4039   1.7880   1.9443   1.9969   2.0445
     2.0920   2.1621   2.6988   2.7859   2.8832   2.9173   3.2622   3.3709
     4.9559   5.0096   5.1423   5.1576   5.1954   5.2110   5.2266   5.2511
     5.8759   5.9349   6.1630   6.1995   6.5374   6.6921   6.7687   6.9348

     occupation numbers 
     1.0000   1.0000   1.0000   1.0000   1.0000   1.0000   1.0000   1.0000
     1.0000   1.0000   1.0000   1.0000   1.0000   1.0000   1.0000   1.0000
     1.0000   1.0000   1.0000   1.0000   1.0000   1.0000   1.0000   1.0000
     1.0000   1.0000   1.0000   1.0000   1.0000   1.0000   1.0000   1.0000
     1.0000   1.0000   1.0000   1.0000   1.0000   1.0000   1.0000   1.0000
     1.0000   1.0000   1.0000   1.0000   1.0000   1.0000   1.0000   1.0000
     1.0000   1.0000   1.0000   1.0000   1.0000   1.0000   1.0000   1.0000
     1.0000   1.0000   0.0000   0.0000   0.0000   0.0000   0.0000   0.0000

          k = 0.3333 0.2051-0.1051 (  2800 PWs)   bands (ev):

   -81.5861 -81.5860 -81.5820 -81.5798 -47.2987 -47.2919 -47.2819 -47.2765
   -47.0775 -47.0761 -47.0619 -47.0561 -47.0492 -47.0470 -47.0334 -47.0322
   -16.8684 -16.8661 -16.5989 -16.5982 -12.2402 -12.2339 -12.1024 -12.1008
     0.1548   0.2238   0.3547   0.4454   0.5029   0.5780   0.7510   0.7743
     1.1657   1.2754   1.3144   1.4039   1.7880   1.9443   1.9969   2.0444
     2.0923   2.1619   2.6990   2.7856   2.8834   2.9173   3.2621   3.3710
     4.9560   5.0096   5.1422   5.1576   5.1952   5.2111   5.2267   5.2511
     5.8759   5.9348   6.1630   6.1994   6.5373   6.6921   6.7687   6.9348

     occupation numbers 
     1.0000   1.0000   1.0000   1.0000   1.0000   1.0000   1.0000   1.0000
     1.0000   1.0000   1.0000   1.0000   1.0000   1.0000   1.0000   1.0000
     1.0000   1.0000   1.0000   1.0000   1.0000   1.0000   1.0000   1.0000
     1.0000   1.0000   1.0000   1.0000   1.0000   1.0000   1.0000   1.0000
     1.0000   1.0000   1.0000   1.0000   1.0000   1.0000   1.0000   1.0000
     1.0000   1.0000   1.0000   1.0000   1.0000   1.0000   1.0000   1.0000
     1.0000   1.0000   1.0000   1.0000   1.0000   1.0000   1.0000   1.0000
     1.0000   1.0000   0.0000   0.0000   0.0000   0.0000   0.0000   0.0000

     highest occupied, lowest unoccupied level (ev):     5.9628    5.9533

!    total energy              =   -1676.68218249 Ry
     estimated scf accuracy    <       0.00000096 Ry

     The total energy is the sum of the following terms:
     one-electron contribution =    -932.50250142 Ry
     hartree contribution      =     515.01222652 Ry
     xc contribution           =    -204.70129090 Ry
     ewald contribution        =    -712.07514593 Ry
     one-center paw contrib.   =    -342.41547076 Ry
      -> PAW hartree energy AE =     412.90200166 Ry
      -> PAW hartree energy PS =    -411.32735839 Ry
      -> PAW xc energy AE      =    -221.85521925 Ry
      -> PAW xc energy PS      =      68.13294009 Ry
      -> total E_H with PAW    =     516.58686978 Ry
      -> total E_XC with PAW   =    -358.42357006 Ry

     convergence has been achieved in  32 iterations

     Writing all to output data dir calculations_bands_val/myprefix.save/
 
     init_run     :      7.45s CPU      2.31s WALL (       1 calls)
     electrons    :     91.98s CPU     24.32s WALL (       1 calls)

     Called by init_run:
     wfcinit      :      0.78s CPU      0.21s WALL (       1 calls)
     wfcinit:atom :      0.01s CPU      0.00s WALL (       5 calls)
     wfcinit:wfcr :      0.71s CPU      0.19s WALL (       5 calls)
     potinit      :      2.44s CPU      0.63s WALL (       1 calls)
     hinit0       :      3.34s CPU      1.07s WALL (       1 calls)

     Called by electrons:
     c_bands      :     54.43s CPU     14.23s WALL (      32 calls)
     sum_band     :     12.05s CPU      3.35s WALL (      32 calls)
     v_of_rho     :      1.35s CPU      0.36s WALL (      33 calls)
     v_h          :      0.12s CPU      0.03s WALL (      33 calls)
     v_xc         :      1.23s CPU      0.32s WALL (      33 calls)
     newd         :      3.04s CPU      0.86s WALL (      33 calls)
     PAW_pot      :     21.08s CPU      5.50s WALL (      33 calls)
     mix_rho      :      0.47s CPU      0.13s WALL (      32 calls)

     Called by c_bands:
     init_us_2    :      0.34s CPU      0.09s WALL (     325 calls)
     init_us_2:cp :      0.33s CPU      0.09s WALL (     325 calls)
     cegterg      :     49.54s CPU     12.95s WALL (     160 calls)

     Called by sum_band:
     sum_band:wei :      0.01s CPU      0.00s WALL (      32 calls)
     sum_band:loo :      7.91s CPU      2.07s WALL (      32 calls)
     sum_band:buf :      0.11s CPU      0.03s WALL (     160 calls)
     sum_band:ini :      0.16s CPU      0.04s WALL (     160 calls)
     sum_band:cal :      0.35s CPU      0.09s WALL (     160 calls)
     sum_band:bec :      0.12s CPU      0.03s WALL (     160 calls)
     addusdens    :      2.58s CPU      0.87s WALL (      32 calls)
     addusd:skk   :      0.04s CPU      0.01s WALL (      96 calls)
     addusd:dgemm :      0.49s CPU      0.33s WALL (      96 calls)
     addusd:qvan2 :      1.80s CPU      0.46s WALL (      96 calls)

     Called by *egterg:
     cdiaghg      :     10.50s CPU      2.76s WALL (     684 calls)
     cegterg:over :      1.66s CPU      0.43s WALL (     524 calls)
     cegterg:upda :      0.92s CPU      0.24s WALL (     524 calls)
     cegterg:last :      1.15s CPU      0.30s WALL (     283 calls)
     cdiaghg:chol :      0.78s CPU      0.20s WALL (     684 calls)
     cdiaghg:inve :      0.15s CPU      0.04s WALL (     684 calls)
     cdiaghg:para :      1.64s CPU      0.43s WALL (    1368 calls)
     h_psi        :     34.38s CPU      8.98s WALL (     689 calls)
     s_psi        :      0.60s CPU      0.15s WALL (     689 calls)
     g_psi        :      0.06s CPU      0.02s WALL (     524 calls)

     Called by h_psi:
     h_psi:calbec :      1.05s CPU      0.28s WALL (     689 calls)
     vloc_psi     :     32.45s CPU      8.48s WALL (     689 calls)
     add_vuspsi   :      0.75s CPU      0.19s WALL (     689 calls)

     General routines
     calbec       :      1.37s CPU      0.36s WALL (     849 calls)
     fft          :      2.26s CPU      0.60s WALL (     427 calls)
     ffts         :      1.32s CPU      0.34s WALL (      65 calls)
     fftw         :     33.69s CPU      8.83s WALL (   58890 calls)
     interpolate  :      1.33s CPU      0.35s WALL (      33 calls)
 
     Parallel routines

     PAW routines
     PAW_pot      :     21.08s CPU      5.50s WALL (      33 calls)
     PAW_symme    :      0.05s CPU      0.01s WALL (      65 calls)
 
     PWSCF        :   1m40.82s CPU     27.27s WALL

 
   This run was terminated on:  13:30:51   4Jun2023            

=------------------------------------------------------------------------------=
   JOB DONE.
=------------------------------------------------------------------------------=
