
     Program PWSCF v.7.0 starts on  4Jun2023 at 14:39:57 

     This program is part of the open-source Quantum ESPRESSO suite
     for quantum simulation of materials; please cite
         "P. Giannozzi et al., J. Phys.:Condens. Matter 21 395502 (2009);
         "P. Giannozzi et al., J. Phys.:Condens. Matter 29 465901 (2017);
         "P. Giannozzi et al., J. Chem. Phys. 152 154105 (2020);
          URL http://www.quantum-espresso.org", 
     in publications or presentations arising from this work. More details at
     http://www.quantum-espresso.org/quote

     Parallel version (MPI & OpenMP), running on      32 processor cores
     Number of MPI processes:                 8
     Threads/MPI process:                     4

     MPI processes distributed on     1 nodes
     K-points division:     npool     =       2
     R & G space division:  proc/nbgrp/npool/nimage =       4
     143165 MiB available memory on the printing compute node when the environment starts
 
     Reading input from espresso_763.pwi
Warning: card &CELL ignored
Warning: card / ignored

     Current dimensions of program PWSCF are:
     Max number of different atomic species (ntypx) = 10
     Max number of k-points (npk) =  40000
     Max angular momentum in pseudopotentials (lmaxx) =  4
     Message from routine setup:
     using ibrav=0 with symmetry is DISCOURAGED, use correct ibrav instead

     Subspace diagonalization in iterative solution of the eigenvalue problem:
     one sub-group per band group will be used
     scalapack distributed-memory algorithm (size of sub-group:  2*  2 procs)

 
     Parallelization info
     --------------------
     sticks:   dense  smooth     PW     G-vecs:    dense   smooth      PW
     Min         253     124     37                16440     5804     963
     Max         254     125     38                16444     5819     974
     Sum        1015     499    151                65767    23259    3885
 
     Using Slab Decomposition
 


     bravais-lattice index     =            0
     lattice parameter (alat)  =       7.8060  a.u.
     unit-cell volume          =    1047.0309 (a.u.)^3
     number of atoms/cell      =            8
     number of atomic types    =            3
     number of electrons       =       120.00
     number of Kohn-Sham states=           64
     kinetic-energy cutoff     =      30.0000  Ry
     charge density cutoff     =     240.0000  Ry
     scf convergence threshold =      1.0E-06
     mixing beta               =       0.7000
     number of iterations used =            8  plain     mixing
     Exchange-correlation=  SLA  PW   PBX  PBC
                           (   1   4   3   4   0   0   0)

     celldm(1)=   7.805963  celldm(2)=   0.000000  celldm(3)=   0.000000
     celldm(4)=   0.000000  celldm(5)=   0.000000  celldm(6)=   0.000000

     crystal axes: (cart. coord. in units of alat)
               a(1) = (   1.000000   0.000000   0.000000 )  
               a(2) = (  -0.500000   0.866025   0.000000 )  
               a(3) = (   0.000000   0.000000   2.541847 )  

     reciprocal axes: (cart. coord. in units 2 pi/alat)
               b(1) = (  1.000000  0.577350  0.000000 )  
               b(2) = (  0.000000  1.154701  0.000000 )  
               b(3) = (  0.000000  0.000000  0.393415 )  


     PseudoPot. # 1 for Sr read from file:
     /home/pragov/projects/rrg-bengioy-ad/pragov/crystal_structure_design/SSSP/Sr_pbe_v1.uspp.F.UPF
     MD5 check sum: 6b418c05fbe9db5448babca5e47b7a5b
     Pseudo is Ultrasoft + core correction, Zval = 10.0
     Generated by new atomic code, or converted to UPF format
     Using radial grid of  883 points,  6 beta functions with: 
                l(1) =   0
                l(2) =   0
                l(3) =   1
                l(4) =   1
                l(5) =   2
                l(6) =   2
     Q(r) pseudized with  6 coefficients,  rinner =    1.400   1.400   1.400
                                                       1.400   1.400

     PseudoPot. # 2 for Ni read from file:
     /home/pragov/projects/rrg-bengioy-ad/pragov/crystal_structure_design/SSSP/ni_pbe_v1.4.uspp.F.UPF
     MD5 check sum: 1ee80287db30b12d2bc1f57a5b5d6409
     Pseudo is Ultrasoft + core correction, Zval = 18.0
     Generated by new atomic code, or converted to UPF format
     Using radial grid of  865 points,  6 beta functions with: 
                l(1) =   0
                l(2) =   0
                l(3) =   1
                l(4) =   1
                l(5) =   2
                l(6) =   2
     Q(r) pseudized with 10 coefficients,  rinner =    0.980   0.980   0.980
                                                       0.980   0.980

     PseudoPot. # 3 for Ge read from file:
     /home/pragov/projects/rrg-bengioy-ad/pragov/crystal_structure_design/SSSP/ge_pbe_v1.4.uspp.F.UPF
     MD5 check sum: 9c9eaa91e581c3f09632fb3098b2c6b2
     Pseudo is Ultrasoft + core correction, Zval = 14.0
     Generated by new atomic code, or converted to UPF format
     Using radial grid of  873 points,  6 beta functions with: 
                l(1) =   0
                l(2) =   0
                l(3) =   1
                l(4) =   1
                l(5) =   2
                l(6) =   2
     Q(r) pseudized with  8 coefficients,  rinner =    1.400   1.400   1.400
                                                       1.400   1.400

     atomic species   valence    mass     pseudopotential
        Sr            10.00    87.62000     Sr( 1.00)
        Ni            18.00    58.69340     Ni( 1.00)
        Ge            14.00    72.63000     Ge( 1.00)

     24 Sym. Ops., with inversion, found (12 have fractional translation)


                                    s                        frac. trans.

      isym =  1     identity                                     

 cryst.   s( 1) = (     1          0          0      )
                  (     0          1          0      )
                  (     0          0          1      )

 cart.    s( 1) = (  1.0000000  0.0000000  0.0000000 )
                  (  0.0000000  1.0000000  0.0000000 )
                  (  0.0000000  0.0000000  1.0000000 )


      isym =  2     180 deg rotation - cart. axis [0,0,1]        

 cryst.   s( 2) = (    -1          0          0      )    f =(  0.0000000 )
                  (     0         -1          0      )       ( -0.0000000 )
                  (     0          0          1      )       (  0.5000000 )

 cart.    s( 2) = ( -1.0000000 -0.0000000  0.0000000 )    f =(  0.0000000 )
                  (  0.0000000 -1.0000000  0.0000000 )       ( -0.0000000 )
                  (  0.0000000  0.0000000  1.0000000 )       (  1.2709233 )


      isym =  3     180 deg rotation - cart. axis [0,1,0]        

 cryst.   s( 3) = (    -1          0          0      )    f =( -0.0000010 )
                  (     1          1          0      )       (  0.0000000 )
                  (     0          0         -1      )       (  0.5000000 )

 cart.    s( 3) = ( -1.0000000  0.0000000  0.0000000 )    f =( -0.0000010 )
                  (  0.0000000  1.0000000  0.0000000 )       (  0.0000000 )
                  (  0.0000000  0.0000000 -1.0000000 )       (  1.2709233 )


      isym =  4     180 deg rotation - cart. axis [1,0,0]        

 cryst.   s( 4) = (     1          0          0      )
                  (    -1         -1          0      )
                  (     0          0         -1      )

 cart.    s( 4) = (  1.0000000 -0.0000000  0.0000000 )
                  (  0.0000000 -1.0000000  0.0000000 )
                  (  0.0000000  0.0000000 -1.0000000 )


      isym =  5      60 deg rotation - cryst. axis [0,0,1]       

 cryst.   s( 5) = (     1          1          0      )    f =( -0.0000010 )
                  (    -1          0          0      )       ( -0.0000000 )
                  (     0          0          1      )       (  0.5000000 )

 cart.    s( 5) = (  0.5000000 -0.8660254  0.0000000 )    f =( -0.0000010 )
                  (  0.8660254  0.5000000  0.0000000 )       ( -0.0000000 )
                  (  0.0000000  0.0000000  1.0000000 )       (  1.2709233 )


      isym =  6      60 deg rotation - cryst. axis [0,0,-1]      

 cryst.   s( 6) = (     0         -1          0      )    f =( -0.0000000 )
                  (     1          1          0      )       (  0.0000010 )
                  (     0          0          1      )       (  0.5000000 )

 cart.    s( 6) = (  0.5000000  0.8660254  0.0000000 )    f =( -0.0000005 )
                  ( -0.8660254  0.5000000  0.0000000 )       (  0.0000009 )
                  (  0.0000000  0.0000000  1.0000000 )       (  1.2709233 )


      isym =  7     120 deg rotation - cryst. axis [0,0,1]       

 cryst.   s( 7) = (     0          1          0      )
                  (    -1         -1          0      )
                  (     0          0          1      )

 cart.    s( 7) = ( -0.5000000 -0.8660254  0.0000000 )
                  (  0.8660254 -0.5000000  0.0000000 )
                  (  0.0000000  0.0000000  1.0000000 )


      isym =  8     120 deg rotation - cryst. axis [0,0,-1]      

 cryst.   s( 8) = (    -1         -1          0      )
                  (     1          0          0      )
                  (     0          0          1      )

 cart.    s( 8) = ( -0.5000000  0.8660254  0.0000000 )
                  ( -0.8660254 -0.5000000  0.0000000 )
                  (  0.0000000  0.0000000  1.0000000 )


      isym =  9     180 deg rotation - cryst. axis [1,-1,0]      

 cryst.   s( 9) = (     0         -1          0      )    f =( -0.0000000 )
                  (    -1          0          0      )       ( -0.0000000 )
                  (     0          0         -1      )       (  0.5000000 )

 cart.    s( 9) = (  0.5000000 -0.8660254  0.0000000 )    f =( -0.0000000 )
                  ( -0.8660254 -0.5000000  0.0000000 )       ( -0.0000000 )
                  (  0.0000000  0.0000000 -1.0000000 )       (  1.2709233 )


      isym = 10     180 deg rotation - cryst. axis [2,1,0]       

 cryst.   s(10) = (     1          1          0      )    f =(  0.0000000 )
                  (     0         -1          0      )       (  0.0000010 )
                  (     0          0         -1      )       (  0.5000000 )

 cart.    s(10) = (  0.5000000  0.8660254  0.0000000 )    f =( -0.0000005 )
                  (  0.8660254 -0.5000000  0.0000000 )       (  0.0000009 )
                  (  0.0000000  0.0000000 -1.0000000 )       (  1.2709233 )


      isym = 11     180 deg rotation - cryst. axis [0,1,0]       

 cryst.   s(11) = (    -1         -1          0      )
                  (     0          1          0      )
                  (     0          0         -1      )

 cart.    s(11) = ( -0.5000000 -0.8660254  0.0000000 )
                  ( -0.8660254  0.5000000  0.0000000 )
                  (  0.0000000  0.0000000 -1.0000000 )


      isym = 12     180 deg rotation - cryst. axis [1,1,0]       

 cryst.   s(12) = (     0          1          0      )
                  (     1          0          0      )
                  (     0          0         -1      )

 cart.    s(12) = ( -0.5000000  0.8660254  0.0000000 )
                  (  0.8660254  0.5000000  0.0000000 )
                  (  0.0000000  0.0000000 -1.0000000 )


      isym = 13     inversion                                    

 cryst.   s(13) = (    -1          0          0      )
                  (     0         -1          0      )
                  (     0          0         -1      )

 cart.    s(13) = ( -1.0000000 -0.0000000  0.0000000 )
                  (  0.0000000 -1.0000000  0.0000000 )
                  (  0.0000000  0.0000000 -1.0000000 )


      isym = 14     inv. 180 deg rotation - cart. axis [0,0,1]   

 cryst.   s(14) = (     1          0          0      )    f =(  0.0000000 )
                  (     0          1          0      )       (  0.0000000 )
                  (     0          0         -1      )       (  0.5000000 )

 cart.    s(14) = (  1.0000000  0.0000000  0.0000000 )    f =(  0.0000000 )
                  (  0.0000000  1.0000000  0.0000000 )       (  0.0000000 )
                  (  0.0000000  0.0000000 -1.0000000 )       (  1.2709233 )


      isym = 15     inv. 180 deg rotation - cart. axis [0,1,0]   

 cryst.   s(15) = (     1          0          0      )    f =( -0.0000010 )
                  (    -1         -1          0      )       ( -0.0000000 )
                  (     0          0          1      )       (  0.5000000 )

 cart.    s(15) = (  1.0000000 -0.0000000  0.0000000 )    f =( -0.0000010 )
                  (  0.0000000 -1.0000000  0.0000000 )       ( -0.0000000 )
                  (  0.0000000  0.0000000  1.0000000 )       (  1.2709233 )


      isym = 16     inv. 180 deg rotation - cart. axis [1,0,0]   

 cryst.   s(16) = (    -1          0          0      )
                  (     1          1          0      )
                  (     0          0          1      )

 cart.    s(16) = ( -1.0000000  0.0000000  0.0000000 )
                  (  0.0000000  1.0000000  0.0000000 )
                  (  0.0000000  0.0000000  1.0000000 )


      isym = 17     inv.  60 deg rotation - cryst. axis [0,0,1]  

 cryst.   s(17) = (    -1         -1          0      )    f =( -0.0000010 )
                  (     1          0          0      )       ( -0.0000000 )
                  (     0          0         -1      )       (  0.5000000 )

 cart.    s(17) = ( -0.5000000  0.8660254  0.0000000 )    f =( -0.0000010 )
                  ( -0.8660254 -0.5000000  0.0000000 )       ( -0.0000000 )
                  (  0.0000000  0.0000000 -1.0000000 )       (  1.2709233 )


      isym = 18     inv.  60 deg rotation - cryst. axis [0,0,-1] 

 cryst.   s(18) = (     0          1          0      )    f =( -0.0000000 )
                  (    -1         -1          0      )       (  0.0000010 )
                  (     0          0         -1      )       (  0.5000000 )

 cart.    s(18) = ( -0.5000000 -0.8660254  0.0000000 )    f =( -0.0000005 )
                  (  0.8660254 -0.5000000  0.0000000 )       (  0.0000009 )
                  (  0.0000000  0.0000000 -1.0000000 )       (  1.2709233 )


      isym = 19     inv. 120 deg rotation - cryst. axis [0,0,1]  

 cryst.   s(19) = (     0         -1          0      )
                  (     1          1          0      )
                  (     0          0         -1      )

 cart.    s(19) = (  0.5000000  0.8660254  0.0000000 )
                  ( -0.8660254  0.5000000  0.0000000 )
                  (  0.0000000  0.0000000 -1.0000000 )


      isym = 20     inv. 120 deg rotation - cryst. axis [0,0,-1] 

 cryst.   s(20) = (     1          1          0      )
                  (    -1          0          0      )
                  (     0          0         -1      )

 cart.    s(20) = (  0.5000000 -0.8660254  0.0000000 )
                  (  0.8660254  0.5000000  0.0000000 )
                  (  0.0000000  0.0000000 -1.0000000 )


      isym = 21     inv. 180 deg rotation - cryst. axis [1,-1,0] 

 cryst.   s(21) = (     0          1          0      )    f =( -0.0000000 )
                  (     1          0          0      )       ( -0.0000000 )
                  (     0          0          1      )       (  0.5000000 )

 cart.    s(21) = ( -0.5000000  0.8660254  0.0000000 )    f =( -0.0000000 )
                  (  0.8660254  0.5000000  0.0000000 )       ( -0.0000000 )
                  (  0.0000000  0.0000000  1.0000000 )       (  1.2709233 )


      isym = 22     inv. 180 deg rotation - cryst. axis [2,1,0]  

 cryst.   s(22) = (    -1         -1          0      )    f =(  0.0000000 )
                  (     0          1          0      )       (  0.0000010 )
                  (     0          0          1      )       (  0.5000000 )

 cart.    s(22) = ( -0.5000000 -0.8660254  0.0000000 )    f =( -0.0000005 )
                  ( -0.8660254  0.5000000  0.0000000 )       (  0.0000009 )
                  (  0.0000000  0.0000000  1.0000000 )       (  1.2709233 )


      isym = 23     inv. 180 deg rotation - cryst. axis [0,1,0]  

 cryst.   s(23) = (     1          1          0      )
                  (     0         -1          0      )
                  (     0          0          1      )

 cart.    s(23) = (  0.5000000  0.8660254  0.0000000 )
                  (  0.8660254 -0.5000000  0.0000000 )
                  (  0.0000000  0.0000000  1.0000000 )


      isym = 24     inv. 180 deg rotation - cryst. axis [1,1,0]  

 cryst.   s(24) = (     0         -1          0      )
                  (    -1          0          0      )
                  (     0          0          1      )

 cart.    s(24) = (  0.5000000 -0.8660254  0.0000000 )
                  ( -0.8660254 -0.5000000  0.0000000 )
                  (  0.0000000  0.0000000  1.0000000 )


   Cartesian axes

     site n.     atom                  positions (alat units)
         1           Sr  tau(   1) = (   0.5000005   0.2886748   1.9063849  )
         2           Sr  tau(   2) = (  -0.0000005   0.5773506   0.6354616  )
         3           Ni  tau(   3) = (   0.5000005   0.2886748   0.0878411  )
         4           Ni  tau(   4) = (  -0.0000005   0.5773506   1.3587644  )
         5           Ni  tau(   5) = (  -0.0000005   0.5773506   2.4540054  )
         6           Ni  tau(   6) = (   0.5000005   0.2886748   1.1830821  )
         7           Ge  tau(   7) = (   0.0000000   0.0000000   1.2709233  )
         8           Ge  tau(   8) = (   0.0000000   0.0000000   0.0000000  )

   Crystallographic axes

     site n.     atom                  positions (cryst. coord.)
         1           Sr  tau(   1) = (  0.6666670  0.3333330  0.7500000  )
         2           Sr  tau(   2) = (  0.3333330  0.6666670  0.2500000  )
         3           Ni  tau(   3) = (  0.6666670  0.3333330  0.0345580  )
         4           Ni  tau(   4) = (  0.3333330  0.6666670  0.5345580  )
         5           Ni  tau(   5) = (  0.3333330  0.6666670  0.9654420  )
         6           Ni  tau(   6) = (  0.6666670  0.3333330  0.4654420  )
         7           Ge  tau(   7) = (  0.0000000  0.0000000  0.5000000  )
         8           Ge  tau(   8) = (  0.0000000  0.0000000  0.0000000  )

     number of k points=     6
                       cart. coord. in units 2pi/alat
        k(    1) = (   0.0000000   0.0000000   0.0000000), wk =   0.0740741
        k(    2) = (   0.0000000   0.0000000   0.1311383), wk =   0.1481481
        k(    3) = (   0.0000000   0.3849002   0.0000000), wk =   0.4444444
        k(    4) = (   0.0000000   0.3849002   0.1311383), wk =   0.8888889
        k(    5) = (   0.3333333   0.5773503   0.0000000), wk =   0.1481481
        k(    6) = (   0.3333333   0.5773503   0.1311383), wk =   0.2962963

                       cryst. coord.
        k(    1) = (   0.0000000   0.0000000   0.0000000), wk =   0.0740741
        k(    2) = (   0.0000000   0.0000000   0.3333333), wk =   0.1481481
        k(    3) = (   0.0000000   0.3333333   0.0000000), wk =   0.4444444
        k(    4) = (   0.0000000   0.3333333   0.3333333), wk =   0.8888889
        k(    5) = (   0.3333333   0.3333333   0.0000000), wk =   0.1481481
        k(    6) = (   0.3333333   0.3333333   0.3333333), wk =   0.2962963

     Dense  grid:    65767 G-vectors     FFT dimensions: (  40,  40, 100)

     Smooth grid:    23259 G-vectors     FFT dimensions: (  27,  27,  72)

     Dynamical RAM for                 wfc:       0.71 MB

     Dynamical RAM for     wfc (w. buffer):       2.84 MB

     Dynamical RAM for           str. fact:       0.75 MB

     Dynamical RAM for           local pot:       0.00 MB

     Dynamical RAM for          nlocal pot:       1.60 MB

     Dynamical RAM for                qrad:       3.73 MB

     Dynamical RAM for          rho,v,vnew:       1.67 MB

     Dynamical RAM for               rhoin:       0.56 MB

     Dynamical RAM for            rho*nmix:       4.01 MB

     Dynamical RAM for           G-vectors:       0.99 MB

     Dynamical RAM for          h,s,v(r/c):       0.19 MB

     Dynamical RAM for          <psi|beta>:       0.14 MB

     Dynamical RAM for                 psi:       1.42 MB

     Dynamical RAM for                hpsi:       1.42 MB

     Dynamical RAM for                spsi:       1.42 MB

     Dynamical RAM for      wfcinit/wfcrot:       2.34 MB

     Dynamical RAM for           addusdens:      23.96 MB

     Estimated static dynamical RAM per process >      14.65 MB

     Estimated max dynamical RAM per process >      42.62 MB

     Estimated total dynamical RAM >     324.94 MB

     Check: negative core charge=   -0.000007

     Initial potential from superposition of free atoms

     starting charge     111.9309, renormalised to     120.0000

     negative rho (up, down):  1.343E-01 0.000E+00
     Starting wfcs are   96 randomized atomic wfcs

     total cpu time spent up to now is        1.8 secs

     Self-consistent Calculation

     iteration #  1     ecut=    30.00 Ry     beta= 0.70
     Davidson diagonalization with overlap

---- Real-time Memory Report at c_bands before calling an iterative solver
           187 MiB given to the printing process from OS
             0 MiB allocation reported by mallinfo(arena+hblkhd)
        142417 MiB available memory on the node where the printing process lives
------------------
     ethr =  1.00E-02,  avg # of iterations =  3.5

     negative rho (up, down):  1.150E-01 0.000E+00

     total cpu time spent up to now is        2.4 secs

     total energy              =   -1820.17779173 Ry
     estimated scf accuracy    <     163.61289663 Ry

     iteration #  2     ecut=    30.00 Ry     beta= 0.70
     Davidson diagonalization with overlap

---- Real-time Memory Report at c_bands before calling an iterative solver
           221 MiB given to the printing process from OS
             0 MiB allocation reported by mallinfo(arena+hblkhd)
        142164 MiB available memory on the node where the printing process lives
------------------
     ethr =  1.00E-02,  avg # of iterations =  6.3

     negative rho (up, down):  8.493E-02 0.000E+00

     total cpu time spent up to now is        3.1 secs

     total energy              =   -1914.66771840 Ry
     estimated scf accuracy    <     440.86315189 Ry

     iteration #  3     ecut=    30.00 Ry     beta= 0.70
     Davidson diagonalization with overlap

---- Real-time Memory Report at c_bands before calling an iterative solver
           226 MiB given to the printing process from OS
             0 MiB allocation reported by mallinfo(arena+hblkhd)
        142131 MiB available memory on the node where the printing process lives
------------------
     ethr =  1.00E-02,  avg # of iterations =  6.5

     negative rho (up, down):  1.174E-01 0.000E+00

     total cpu time spent up to now is        3.6 secs

     total energy              =   -1944.86486172 Ry
     estimated scf accuracy    <      64.09261656 Ry

     iteration #  4     ecut=    30.00 Ry     beta= 0.70
     Davidson diagonalization with overlap

---- Real-time Memory Report at c_bands before calling an iterative solver
           229 MiB given to the printing process from OS
             0 MiB allocation reported by mallinfo(arena+hblkhd)
        142119 MiB available memory on the node where the printing process lives
------------------
     ethr =  1.00E-02,  avg # of iterations =  2.0

     negative rho (up, down):  1.240E-01 0.000E+00

     total cpu time spent up to now is        4.0 secs

     total energy              =   -1940.78963009 Ry
     estimated scf accuracy    <      25.80961076 Ry

     iteration #  5     ecut=    30.00 Ry     beta= 0.70
     Davidson diagonalization with overlap

---- Real-time Memory Report at c_bands before calling an iterative solver
           229 MiB given to the printing process from OS
             0 MiB allocation reported by mallinfo(arena+hblkhd)
        142124 MiB available memory on the node where the printing process lives
------------------
     ethr =  1.00E-02,  avg # of iterations =  2.0

     negative rho (up, down):  1.277E-01 0.000E+00

     total cpu time spent up to now is        4.4 secs

     total energy              =   -1939.10467120 Ry
     estimated scf accuracy    <       8.76616496 Ry

     iteration #  6     ecut=    30.00 Ry     beta= 0.70
     Davidson diagonalization with overlap

---- Real-time Memory Report at c_bands before calling an iterative solver
           230 MiB given to the printing process from OS
             0 MiB allocation reported by mallinfo(arena+hblkhd)
        142126 MiB available memory on the node where the printing process lives
------------------
     ethr =  7.31E-03,  avg # of iterations =  4.5

     negative rho (up, down):  1.267E-01 0.000E+00

     total cpu time spent up to now is        4.8 secs

     total energy              =   -1940.36234561 Ry
     estimated scf accuracy    <       0.17925423 Ry

     iteration #  7     ecut=    30.00 Ry     beta= 0.70
     Davidson diagonalization with overlap

---- Real-time Memory Report at c_bands before calling an iterative solver
           230 MiB given to the printing process from OS
             0 MiB allocation reported by mallinfo(arena+hblkhd)
        142122 MiB available memory on the node where the printing process lives
------------------
     ethr =  1.49E-04,  avg # of iterations =  4.8

     negative rho (up, down):  1.313E-01 0.000E+00

     total cpu time spent up to now is        5.3 secs

     total energy              =   -1939.58201164 Ry
     estimated scf accuracy    <       3.15898303 Ry

     iteration #  8     ecut=    30.00 Ry     beta= 0.70
     Davidson diagonalization with overlap

---- Real-time Memory Report at c_bands before calling an iterative solver
           230 MiB given to the printing process from OS
             0 MiB allocation reported by mallinfo(arena+hblkhd)
        142118 MiB available memory on the node where the printing process lives
------------------
     ethr =  1.49E-04,  avg # of iterations =  7.5

     negative rho (up, down):  1.299E-01 0.000E+00

     total cpu time spent up to now is        5.9 secs

     total energy              =   -1939.88297982 Ry
     estimated scf accuracy    <       1.67049114 Ry

     iteration #  9     ecut=    30.00 Ry     beta= 0.70
     Davidson diagonalization with overlap

---- Real-time Memory Report at c_bands before calling an iterative solver
           233 MiB given to the printing process from OS
             0 MiB allocation reported by mallinfo(arena+hblkhd)
        142102 MiB available memory on the node where the printing process lives
------------------
     ethr =  1.49E-04,  avg # of iterations =  5.0

     negative rho (up, down):  1.309E-01 0.000E+00

     total cpu time spent up to now is        6.4 secs

     total energy              =   -1940.13587360 Ry
     estimated scf accuracy    <       0.66644988 Ry

     iteration # 10     ecut=    30.00 Ry     beta= 0.70
     Davidson diagonalization with overlap

---- Real-time Memory Report at c_bands before calling an iterative solver
           233 MiB given to the printing process from OS
             0 MiB allocation reported by mallinfo(arena+hblkhd)
        142101 MiB available memory on the node where the printing process lives
------------------
     ethr =  1.49E-04,  avg # of iterations =  4.2

     negative rho (up, down):  1.313E-01 0.000E+00

     total cpu time spent up to now is        6.8 secs

     total energy              =   -1940.22102707 Ry
     estimated scf accuracy    <       0.03537142 Ry

     iteration # 11     ecut=    30.00 Ry     beta= 0.70
     Davidson diagonalization with overlap

---- Real-time Memory Report at c_bands before calling an iterative solver
           233 MiB given to the printing process from OS
             0 MiB allocation reported by mallinfo(arena+hblkhd)
        142101 MiB available memory on the node where the printing process lives
------------------
     ethr =  2.95E-05,  avg # of iterations =  2.2

     negative rho (up, down):  1.313E-01 0.000E+00

     total cpu time spent up to now is        7.2 secs

     total energy              =   -1940.22504208 Ry
     estimated scf accuracy    <       0.00034117 Ry

     iteration # 12     ecut=    30.00 Ry     beta= 0.70
     Davidson diagonalization with overlap

---- Real-time Memory Report at c_bands before calling an iterative solver
           233 MiB given to the printing process from OS
             0 MiB allocation reported by mallinfo(arena+hblkhd)
        142098 MiB available memory on the node where the printing process lives
------------------
     ethr =  2.84E-07,  avg # of iterations =  5.8

     negative rho (up, down):  1.312E-01 0.000E+00

     total cpu time spent up to now is        7.7 secs

     total energy              =   -1940.22524474 Ry
     estimated scf accuracy    <       0.00015706 Ry

     iteration # 13     ecut=    30.00 Ry     beta= 0.70
     Davidson diagonalization with overlap

---- Real-time Memory Report at c_bands before calling an iterative solver
           233 MiB given to the printing process from OS
             0 MiB allocation reported by mallinfo(arena+hblkhd)
        142101 MiB available memory on the node where the printing process lives
------------------
     ethr =  1.31E-07,  avg # of iterations =  2.0

     negative rho (up, down):  1.312E-01 0.000E+00

     total cpu time spent up to now is        8.0 secs

     total energy              =   -1940.22525672 Ry
     estimated scf accuracy    <       0.00003074 Ry

     iteration # 14     ecut=    30.00 Ry     beta= 0.70
     Davidson diagonalization with overlap

---- Real-time Memory Report at c_bands before calling an iterative solver
           233 MiB given to the printing process from OS
             0 MiB allocation reported by mallinfo(arena+hblkhd)
        142100 MiB available memory on the node where the printing process lives
------------------
     ethr =  2.56E-08,  avg # of iterations =  2.2

     negative rho (up, down):  1.312E-01 0.000E+00

     total cpu time spent up to now is        8.4 secs

     total energy              =   -1940.22525491 Ry
     estimated scf accuracy    <       0.00001177 Ry

     iteration # 15     ecut=    30.00 Ry     beta= 0.70
     Davidson diagonalization with overlap

---- Real-time Memory Report at c_bands before calling an iterative solver
           233 MiB given to the printing process from OS
             0 MiB allocation reported by mallinfo(arena+hblkhd)
        142100 MiB available memory on the node where the printing process lives
------------------
     ethr =  9.80E-09,  avg # of iterations =  3.2

     negative rho (up, down):  1.312E-01 0.000E+00

     total cpu time spent up to now is        8.8 secs

     End of self-consistent calculation

          k = 0.0000 0.0000 0.0000 (  2879 PWs)   bands (ev):

   -91.9886 -91.9820 -91.9775 -91.9714 -52.4642 -52.4642 -52.4545 -52.4544
   -52.3826 -52.3825 -52.3633 -52.3633 -52.1520 -52.1337 -52.1228 -52.1182
   -23.8504 -23.8498 -13.1331 -13.1300 -13.1177 -13.1177 -13.1157 -13.1157
   -13.1028 -13.1028 -13.0997 -13.0997  -5.9645  -5.9101  -5.8378  -5.8378
    -5.8365  -5.8365   0.8930   1.2493   7.1439   7.5297   7.5298   7.5802
     7.5802   8.7682   8.9450   8.9451   8.9578   8.9578   8.9765   9.3983
     9.7017   9.7017   9.8058   9.8059   9.9684  10.3306  10.3306  10.3499
    10.3499  10.3789  11.4694  13.4898  13.8202  13.8203  14.1324  14.1324

     occupation numbers 
     1.0000   1.0000   1.0000   1.0000   1.0000   1.0000   1.0000   1.0000
     1.0000   1.0000   1.0000   1.0000   1.0000   1.0000   1.0000   1.0000
     1.0000   1.0000   1.0000   1.0000   1.0000   1.0000   1.0000   1.0000
     1.0000   1.0000   1.0000   1.0000   1.0000   1.0000   1.0000   1.0000
     1.0000   1.0000   1.0000   1.0000   1.0000   1.0000   1.0000   1.0000
     1.0000   1.0000   1.0000   1.0000   1.0000   1.0000   1.0000   1.0000
     1.0000   1.0000   1.0000   1.0000   1.0000   1.0000   1.0000   1.0000
     1.0000   1.0000   1.0000   1.0000   0.0000   0.0000   0.0000   0.0000

          k = 0.0000 0.0000 0.1311 (  2908 PWs)   bands (ev):

   -91.9895 -91.9866 -91.9766 -91.9733 -52.4630 -52.4630 -52.4608 -52.4608
   -52.3833 -52.3833 -52.3749 -52.3749 -52.1475 -52.1393 -52.1343 -52.1238
   -23.8503 -23.8499 -13.1311 -13.1297 -13.1189 -13.1188 -13.1187 -13.1187
   -13.1061 -13.1061 -13.1026 -13.1026  -5.9511  -5.9239  -5.8375  -5.8375
    -5.8368  -5.8368   0.9771   1.1548   7.4290   7.5400   7.5401   7.5618
     7.5619   8.1265   8.9287   8.9287   8.9374   8.9375   9.3103   9.4389
     9.7142   9.7142   9.7620   9.7620   9.9666  10.1175  10.3096  10.3096
    10.3188  10.3188  12.2199  13.4435  13.6540  13.8142  13.9301  13.9301

     occupation numbers 
     1.0000   1.0000   1.0000   1.0000   1.0000   1.0000   1.0000   1.0000
     1.0000   1.0000   1.0000   1.0000   1.0000   1.0000   1.0000   1.0000
     1.0000   1.0000   1.0000   1.0000   1.0000   1.0000   1.0000   1.0000
     1.0000   1.0000   1.0000   1.0000   1.0000   1.0000   1.0000   1.0000
     1.0000   1.0000   1.0000   1.0000   1.0000   1.0000   1.0000   1.0000
     1.0000   1.0000   1.0000   1.0000   1.0000   1.0000   1.0000   1.0000
     1.0000   1.0000   1.0000   1.0000   1.0000   1.0000   1.0000   1.0000
     1.0000   1.0000   1.0000   1.0000   0.0000   0.0000   0.0000   0.0000

          k = 0.0000 0.3849 0.0000 (  2908 PWs)   bands (ev):

   -91.9846 -91.9837 -91.9766 -91.9765 -52.4664 -52.4616 -52.4464 -52.4441
   -52.3888 -52.3801 -52.3780 -52.3769 -52.1356 -52.1341 -52.1327 -52.1314
   -23.8382 -23.8379 -13.1297 -13.1264 -13.1195 -13.1186 -13.1172 -13.1159
   -13.1052 -13.1038 -13.1026 -13.1014  -6.0229  -6.0187  -5.9057  -5.8794
    -5.8787  -5.8782   1.8999   2.0075   6.2431   6.4340   7.8570   8.1184
     8.1723   8.1915   8.8435   9.0599   9.0893   9.1104   9.2079   9.4297
     9.4798   9.4917   9.6433   9.7992   9.9769  10.2945  10.2977  10.3053
    10.4684  10.6020  10.7321  11.1625  11.3611  11.5821  12.2632  12.4741

     occupation numbers 
     1.0000   1.0000   1.0000   1.0000   1.0000   1.0000   1.0000   1.0000
     1.0000   1.0000   1.0000   1.0000   1.0000   1.0000   1.0000   1.0000
     1.0000   1.0000   1.0000   1.0000   1.0000   1.0000   1.0000   1.0000
     1.0000   1.0000   1.0000   1.0000   1.0000   1.0000   1.0000   1.0000
     1.0000   1.0000   1.0000   1.0000   1.0000   1.0000   1.0000   1.0000
     1.0000   1.0000   1.0000   1.0000   1.0000   1.0000   1.0000   1.0000
     1.0000   1.0000   1.0000   1.0000   1.0000   1.0000   1.0000   1.0000
     1.0000   1.0000   1.0000   1.0000   0.0000   0.0000   0.0000   0.0000

          k = 0.0000 0.3849 0.1311 (  2897 PWs)   bands (ev):

   -91.9833 -91.9831 -91.9769 -91.9755 -52.4631 -52.4615 -52.4452 -52.4419
   -52.3863 -52.3830 -52.3747 -52.3718 -52.1369 -52.1348 -52.1296 -52.1269
   -23.8381 -23.8380 -13.1294 -13.1259 -13.1186 -13.1177 -13.1160 -13.1152
   -13.1039 -13.1023 -13.1021 -13.1017  -6.0221  -6.0200  -5.8987  -5.8852
    -5.8791  -5.8785   1.9265   1.9801   6.2867   6.3818   7.9423   8.1095
     8.1411   8.1652   8.9037   9.0246   9.0675   9.0935   9.2992   9.4244
     9.4427   9.4795   9.6863   9.7662  10.0358  10.1847  10.3109  10.3151
    10.5005  10.5592  10.8243  10.9973  11.4147  11.5272  12.5224  12.6742

     occupation numbers 
     1.0000   1.0000   1.0000   1.0000   1.0000   1.0000   1.0000   1.0000
     1.0000   1.0000   1.0000   1.0000   1.0000   1.0000   1.0000   1.0000
     1.0000   1.0000   1.0000   1.0000   1.0000   1.0000   1.0000   1.0000
     1.0000   1.0000   1.0000   1.0000   1.0000   1.0000   1.0000   1.0000
     1.0000   1.0000   1.0000   1.0000   1.0000   1.0000   1.0000   1.0000
     1.0000   1.0000   1.0000   1.0000   1.0000   1.0000   1.0000   1.0000
     1.0000   1.0000   1.0000   1.0000   1.0000   1.0000   1.0000   1.0000
     1.0000   1.0000   1.0000   1.0000   0.0000   0.0000   0.0000   0.0000

          k = 0.3333 0.5774 0.0000 (  2913 PWs)   bands (ev):

   -91.9816 -91.9816 -91.9792 -91.9792 -52.4742 -52.4692 -52.4254 -52.4254
   -52.4154 -52.4154 -52.3733 -52.3579 -52.1318 -52.1317 -52.1303 -52.1303
   -23.8320 -23.8320 -13.1272 -13.1223 -13.1199 -13.1199 -13.1196 -13.1196
   -13.1052 -13.1052 -13.1019 -13.1018  -6.0089  -6.0046  -6.0046  -6.0039
    -5.8700  -5.8700   2.5519   2.6052   6.6567   6.6570   6.7669   6.7671
     8.2662   8.3948   8.9761   8.9762   8.9796   9.0357   9.2477   9.2477
     9.4830   9.4830   9.6383   9.6383  10.0631  10.0632  10.1941  10.1948
    10.1950  10.2244  10.2244  10.2520  11.7101  12.1870  12.1871  12.2873

     occupation numbers 
     1.0000   1.0000   1.0000   1.0000   1.0000   1.0000   1.0000   1.0000
     1.0000   1.0000   1.0000   1.0000   1.0000   1.0000   1.0000   1.0000
     1.0000   1.0000   1.0000   1.0000   1.0000   1.0000   1.0000   1.0000
     1.0000   1.0000   1.0000   1.0000   1.0000   1.0000   1.0000   1.0000
     1.0000   1.0000   1.0000   1.0000   1.0000   1.0000   1.0000   1.0000
     1.0000   1.0000   1.0000   1.0000   1.0000   1.0000   1.0000   1.0000
     1.0000   1.0000   1.0000   1.0000   1.0000   1.0000   1.0000   1.0000
     1.0000   1.0000   1.0000   1.0000   0.0000   0.0000   0.0000   0.0000

          k = 0.3333 0.5774 0.1311 (  2904 PWs)   bands (ev):

   -91.9803 -91.9803 -91.9794 -91.9794 -52.4717 -52.4670 -52.4211 -52.4211
   -52.4155 -52.4155 -52.3666 -52.3613 -52.1335 -52.1335 -52.1279 -52.1278
   -23.8320 -23.8320 -13.1264 -13.1259 -13.1187 -13.1187 -13.1183 -13.1183
   -13.1034 -13.1034 -13.1013 -13.1012  -6.0077  -6.0052  -6.0048  -6.0048
    -5.8697  -5.8697   2.5659   2.5918   6.5861   6.5861   6.8498   6.8499
     8.2944   8.3733   8.9869   8.9869   9.0109   9.0252   9.2438   9.2438
     9.4833   9.4833   9.5955   9.5955  10.0944  10.0944  10.1776  10.2025
    10.2025  10.2030  10.2357  10.2421  11.8144  12.0715  12.4156  12.4156

     occupation numbers 
     1.0000   1.0000   1.0000   1.0000   1.0000   1.0000   1.0000   1.0000
     1.0000   1.0000   1.0000   1.0000   1.0000   1.0000   1.0000   1.0000
     1.0000   1.0000   1.0000   1.0000   1.0000   1.0000   1.0000   1.0000
     1.0000   1.0000   1.0000   1.0000   1.0000   1.0000   1.0000   1.0000
     1.0000   1.0000   1.0000   1.0000   1.0000   1.0000   1.0000   1.0000
     1.0000   1.0000   1.0000   1.0000   1.0000   1.0000   1.0000   1.0000
     1.0000   1.0000   1.0000   1.0000   1.0000   1.0000   1.0000   1.0000
     1.0000   1.0000   1.0000   1.0000   0.0000   0.0000   0.0000   0.0000

     highest occupied, lowest unoccupied level (ev):    13.4898   11.3611

!    total energy              =   -1940.22525681 Ry
     estimated scf accuracy    <       0.00000025 Ry

     The total energy is the sum of the following terms:
     one-electron contribution =   -1651.32237749 Ry
     hartree contribution      =     891.70348078 Ry
     xc contribution           =    -295.47711243 Ry
     ewald contribution        =    -885.12924768 Ry

     convergence has been achieved in  15 iterations

     Writing all to output data dir calculations_bands_val/myprefix.save/
 
     init_run     :      4.46s CPU      1.52s WALL (       1 calls)
     electrons    :     26.51s CPU      6.99s WALL (       1 calls)

     Called by init_run:
     wfcinit      :      0.52s CPU      0.14s WALL (       1 calls)
     wfcinit:atom :      0.00s CPU      0.00s WALL (       3 calls)
     wfcinit:wfcr :      0.47s CPU      0.12s WALL (       3 calls)
     potinit      :      1.06s CPU      0.28s WALL (       1 calls)
     hinit0       :      2.44s CPU      0.78s WALL (       1 calls)

     Called by electrons:
     c_bands      :     17.95s CPU      4.67s WALL (      15 calls)
     sum_band     :      5.36s CPU      1.48s WALL (      15 calls)
     v_of_rho     :      0.68s CPU      0.18s WALL (      16 calls)
     v_h          :      0.05s CPU      0.01s WALL (      16 calls)
     v_xc         :      0.62s CPU      0.16s WALL (      16 calls)
     newd         :      2.34s CPU      0.62s WALL (      16 calls)
     mix_rho      :      0.18s CPU      0.05s WALL (      15 calls)

     Called by c_bands:
     init_us_2    :      0.07s CPU      0.02s WALL (      93 calls)
     init_us_2:cp :      0.07s CPU      0.02s WALL (      93 calls)
     cegterg      :     15.81s CPU      4.12s WALL (      45 calls)

     Called by sum_band:
     sum_band:wei :      0.01s CPU      0.00s WALL (      15 calls)
     sum_band:loo :      1.85s CPU      0.48s WALL (      15 calls)
     sum_band:buf :      0.02s CPU      0.01s WALL (      45 calls)
     sum_band:ini :      0.03s CPU      0.01s WALL (      45 calls)
     sum_band:cal :      0.10s CPU      0.03s WALL (      45 calls)
     sum_band:bec :      0.02s CPU      0.00s WALL (      45 calls)
     addusdens    :      1.90s CPU      0.56s WALL (      15 calls)
     addusd:skk   :      0.01s CPU      0.00s WALL (      45 calls)
     addusd:dgemm :      0.32s CPU      0.16s WALL (      45 calls)
     addusd:qvan2 :      1.27s CPU      0.32s WALL (      45 calls)

     Called by *egterg:
     cdiaghg      :      3.67s CPU      0.96s WALL (     240 calls)
     cegterg:over :      0.64s CPU      0.17s WALL (     195 calls)
     cegterg:upda :      0.33s CPU      0.09s WALL (     195 calls)
     cegterg:last :      0.55s CPU      0.14s WALL (     111 calls)
     cdiaghg:chol :      0.28s CPU      0.07s WALL (     240 calls)
     cdiaghg:inve :      0.07s CPU      0.02s WALL (     240 calls)
     cdiaghg:para :      0.56s CPU      0.15s WALL (     480 calls)
     h_psi        :     10.55s CPU      2.74s WALL (     243 calls)
     s_psi        :      0.18s CPU      0.05s WALL (     243 calls)
     g_psi        :      0.02s CPU      0.01s WALL (     195 calls)

     Called by h_psi:
     h_psi:calbec :      0.39s CPU      0.10s WALL (     243 calls)
     vloc_psi     :      9.90s CPU      2.58s WALL (     243 calls)
     add_vuspsi   :      0.23s CPU      0.06s WALL (     243 calls)

     General routines
     calbec       :      0.48s CPU      0.12s WALL (     288 calls)
     fft          :      1.63s CPU      0.44s WALL (     206 calls)
     ffts         :      0.76s CPU      0.20s WALL (      31 calls)
     fftw         :     10.37s CPU      2.70s WALL (   19732 calls)
     interpolate  :      0.78s CPU      0.20s WALL (      16 calls)
 
     Parallel routines
 
     PWSCF        :     31.73s CPU      8.95s WALL

 
   This run was terminated on:  14:40: 5   4Jun2023            

=------------------------------------------------------------------------------=
   JOB DONE.
=------------------------------------------------------------------------------=
