
     Program PWSCF v.7.0 starts on  4Jun2023 at 14:38:25 

     This program is part of the open-source Quantum ESPRESSO suite
     for quantum simulation of materials; please cite
         "P. Giannozzi et al., J. Phys.:Condens. Matter 21 395502 (2009);
         "P. Giannozzi et al., J. Phys.:Condens. Matter 29 465901 (2017);
         "P. Giannozzi et al., J. Chem. Phys. 152 154105 (2020);
          URL http://www.quantum-espresso.org", 
     in publications or presentations arising from this work. More details at
     http://www.quantum-espresso.org/quote

     Parallel version (MPI & OpenMP), running on      32 processor cores
     Number of MPI processes:                 8
     Threads/MPI process:                     4

     MPI processes distributed on     1 nodes
     K-points division:     npool     =       2
     R & G space division:  proc/nbgrp/npool/nimage =       4
     143221 MiB available memory on the printing compute node when the environment starts
 
     Reading input from espresso_761.pwi
Warning: card &CELL ignored
Warning: card / ignored

     Current dimensions of program PWSCF are:
     Max number of different atomic species (ntypx) = 10
     Max number of k-points (npk) =  40000
     Max angular momentum in pseudopotentials (lmaxx) =  4
     file Al.pbe-n-kjpaw_psl.1.0.0.UPF: wavefunction(s)  3S 3P renormalized
     Message from routine setup:
     using ibrav=0 with symmetry is DISCOURAGED, use correct ibrav instead

     Subspace diagonalization in iterative solution of the eigenvalue problem:
     one sub-group per band group will be used
     scalapack distributed-memory algorithm (size of sub-group:  2*  2 procs)

 
     Parallelization info
     --------------------
     sticks:   dense  smooth     PW     G-vecs:    dense   smooth      PW
     Min         289     145     40                 6573     2342     362
     Max         290     146     41                 6577     2345     366
     Sum        1159     583    163                26301     9377    1459
 
     Using Slab Decomposition
 


     bravais-lattice index     =            0
     lattice parameter (alat)  =       8.4042  a.u.
     unit-cell volume          =     419.7292 (a.u.)^3
     number of atoms/cell      =            4
     number of atomic types    =            3
     number of electrons       =        42.00
     number of Kohn-Sham states=           64
     kinetic-energy cutoff     =      30.0000  Ry
     charge density cutoff     =     240.0000  Ry
     scf convergence threshold =      1.0E-06
     mixing beta               =       0.7000
     number of iterations used =            8  plain     mixing
     Exchange-correlation= SLA  PW   PBE  PBE
                           (   1   4   3   4   0   0   0)

     celldm(1)=   8.404168  celldm(2)=   0.000000  celldm(3)=   0.000000
     celldm(4)=   0.000000  celldm(5)=   0.000000  celldm(6)=   0.000000

     crystal axes: (cart. coord. in units of alat)
               a(1) = (   1.000000   0.000000   0.000000 )  
               a(2) = (   0.500000   0.866025   0.000000 )  
               a(3) = (   0.500000   0.288675   0.816497 )  

     reciprocal axes: (cart. coord. in units 2 pi/alat)
               b(1) = (  1.000000 -0.577350 -0.408248 )  
               b(2) = (  0.000000  1.154701 -0.408248 )  
               b(3) = (  0.000000  0.000000  1.224745 )  


     PseudoPot. # 1 for Ti read from file:
     /home/pragov/projects/rrg-bengioy-ad/pragov/crystal_structure_design/SSSP/ti_pbe_v1.4.uspp.F.UPF
     MD5 check sum: 88a00a6731bd790ddea75d31a80cb452
     Pseudo is Ultrasoft + core correction, Zval = 12.0
     Generated by new atomic code, or converted to UPF format
     Using radial grid of  851 points,  6 beta functions with: 
                l(1) =   0
                l(2) =   0
                l(3) =   1
                l(4) =   1
                l(5) =   2
                l(6) =   2
     Q(r) pseudized with  6 coefficients,  rinner =    1.000   1.000   1.000
                                                       1.000   1.000

     PseudoPot. # 2 for Al read from file:
     /home/pragov/projects/rrg-bengioy-ad/pragov/crystal_structure_design/SSSP/Al.pbe-n-kjpaw_psl.1.0.0.UPF
     MD5 check sum: cfc449ca30b5f3223ec38ddd88ac046d
     Pseudo is Projector augmented-wave + core cor, Zval =  3.0
     Generated using "atomic" code by A. Dal Corso  v.5.1
     Shape of augmentation charge: PSQ
     Using radial grid of 1135 points,  6 beta functions with: 
                l(1) =   0
                l(2) =   0
                l(3) =   1
                l(4) =   1
                l(5) =   2
                l(6) =   2
     Q(r) pseudized with 0 coefficients 


     PseudoPot. # 3 for Re read from file:
     /home/pragov/projects/rrg-bengioy-ad/pragov/crystal_structure_design/SSSP/Re_pbe_v1.2.uspp.F.UPF
     MD5 check sum: 85f993410f3e006da9d71c142b4ad953
     Pseudo is Ultrasoft + core correction, Zval = 15.0
     Generated by new atomic code, or converted to UPF format
     Using radial grid of  981 points,  8 beta functions with: 
                l(1) =   0
                l(2) =   0
                l(3) =   1
                l(4) =   1
                l(5) =   2
                l(6) =   2
                l(7) =   3
                l(8) =   3
     Q(r) pseudized with  8 coefficients,  rinner =    1.150   1.150   1.150
                                                       1.150   1.150   1.150
                                                       1.150

     atomic species   valence    mass     pseudopotential
        Ti            12.00    47.86700     Ti( 1.00)
        Al             3.00    26.98154     Al( 1.00)
        Re            15.00   186.20700     Re( 1.00)

     12 Sym. Ops., with inversion, found


                                    s                        frac. trans.

      isym =  1     identity                                     

 cryst.   s( 1) = (     1          0          0      )
                  (     0          1          0      )
                  (     0          0          1      )

 cart.    s( 1) = (  1.0000000  0.0000000  0.0000000 )
                  (  0.0000000  1.0000000  0.0000000 )
                  (  0.0000000  0.0000000  1.0000000 )


      isym =  2     180 deg rotation - cart. axis [1,0,0]        

 cryst.   s( 2) = (     1          0          0      )
                  (     1         -1          0      )
                  (     1          0         -1      )

 cart.    s( 2) = (  1.0000000  0.0000000  0.0000000 )
                  (  0.0000000 -1.0000000 -0.0000000 )
                  (  0.0000000  0.0000000 -1.0000000 )


      isym =  3     120 deg rotation - cryst. axis [0,0,1]       

 cryst.   s( 3) = (    -1          1          0      )
                  (    -1          0          0      )
                  (    -1          0          1      )

 cart.    s( 3) = ( -0.5000000 -0.8660254 -0.0000000 )
                  (  0.8660254 -0.5000000 -0.0000000 )
                  (  0.0000000  0.0000000  1.0000000 )


      isym =  4     120 deg rotation - cryst. axis [0,0,-1]      

 cryst.   s( 4) = (     0         -1          0      )
                  (     1         -1          0      )
                  (     0         -1          1      )

 cart.    s( 4) = ( -0.5000000  0.8660254  0.0000000 )
                  ( -0.8660254 -0.5000000 -0.0000000 )
                  (  0.0000000  0.0000000  1.0000000 )


      isym =  5     180 deg rotation - cryst. axis [0,1,0]       

 cryst.   s( 5) = (     0         -1          0      )
                  (    -1          0          0      )
                  (     0          0         -1      )

 cart.    s( 5) = ( -0.5000000 -0.8660254 -0.0000000 )
                  ( -0.8660254  0.5000000  0.0000000 )
                  (  0.0000000  0.0000000 -1.0000000 )


      isym =  6     180 deg rotation - cryst. axis [1,1,0]       

 cryst.   s( 6) = (    -1          1          0      )
                  (     0          1          0      )
                  (     0          1         -1      )

 cart.    s( 6) = ( -0.5000000  0.8660254  0.0000000 )
                  (  0.8660254  0.5000000  0.0000000 )
                  (  0.0000000  0.0000000 -1.0000000 )


      isym =  7     inversion                                    

 cryst.   s( 7) = (    -1          0          0      )
                  (     0         -1          0      )
                  (     0          0         -1      )

 cart.    s( 7) = ( -1.0000000  0.0000000  0.0000000 )
                  (  0.0000000 -1.0000000 -0.0000000 )
                  (  0.0000000  0.0000000 -1.0000000 )


      isym =  8     inv. 180 deg rotation - cart. axis [1,0,0]   

 cryst.   s( 8) = (    -1          0          0      )
                  (    -1          1          0      )
                  (    -1          0          1      )

 cart.    s( 8) = ( -1.0000000  0.0000000 -0.0000000 )
                  (  0.0000000  1.0000000  0.0000000 )
                  (  0.0000000  0.0000000  1.0000000 )


      isym =  9     inv. 120 deg rotation - cryst. axis [0,0,1]  

 cryst.   s( 9) = (     1         -1          0      )
                  (     1          0          0      )
                  (     1          0         -1      )

 cart.    s( 9) = (  0.5000000  0.8660254  0.0000000 )
                  ( -0.8660254  0.5000000  0.0000000 )
                  (  0.0000000  0.0000000 -1.0000000 )


      isym = 10     inv. 120 deg rotation - cryst. axis [0,0,-1] 

 cryst.   s(10) = (     0          1          0      )
                  (    -1          1          0      )
                  (     0          1         -1      )

 cart.    s(10) = (  0.5000000 -0.8660254 -0.0000000 )
                  (  0.8660254  0.5000000  0.0000000 )
                  (  0.0000000  0.0000000 -1.0000000 )


      isym = 11     inv. 180 deg rotation - cryst. axis [0,1,0]  

 cryst.   s(11) = (     0          1          0      )
                  (     1          0          0      )
                  (     0          0          1      )

 cart.    s(11) = (  0.5000000  0.8660254  0.0000000 )
                  (  0.8660254 -0.5000000 -0.0000000 )
                  (  0.0000000  0.0000000  1.0000000 )


      isym = 12     inv. 180 deg rotation - cryst. axis [1,1,0]  

 cryst.   s(12) = (     1         -1          0      )
                  (     0         -1          0      )
                  (     0         -1          1      )

 cart.    s(12) = (  0.5000000 -0.8660254 -0.0000000 )
                  ( -0.8660254 -0.5000000 -0.0000000 )
                  (  0.0000000  0.0000000  1.0000000 )


   Cartesian axes

     site n.     atom                  positions (alat units)
         1           Ti  tau(   1) = (   0.5000000   0.2886751   0.2041241  )
         2           Ti  tau(   2) = (   1.5000000   0.8660254   0.6123724  )
         3           Al  tau(   3) = (   1.0000000   0.5773503   0.4082483  )
         4           Re  tau(   4) = (   0.0000000   0.0000000   0.0000000  )

   Crystallographic axes

     site n.     atom                  positions (cryst. coord.)
         1           Ti  tau(   1) = (  0.2500000  0.2500000  0.2500000  )
         2           Ti  tau(   2) = (  0.7500000  0.7500000  0.7500000  )
         3           Al  tau(   3) = (  0.5000000  0.5000000  0.5000000  )
         4           Re  tau(   4) = (  0.0000000  0.0000000  0.0000000  )

     number of k points=     6
                       cart. coord. in units 2pi/alat
        k(    1) = (   0.0000000   0.0000000   0.0000000), wk =   0.0740741
        k(    2) = (   0.0000000   0.0000000   0.4082483), wk =   0.1481481
        k(    3) = (   0.0000000   0.3849002  -0.1360828), wk =   0.4444444
        k(    4) = (   0.0000000   0.3849002   0.2721655), wk =   0.4444444
        k(    5) = (   0.0000000   0.3849002  -0.5443311), wk =   0.4444444
        k(    6) = (   0.3333333  -0.5773503  -0.0000000), wk =   0.4444444

                       cryst. coord.
        k(    1) = (   0.0000000   0.0000000   0.0000000), wk =   0.0740741
        k(    2) = (   0.0000000   0.0000000   0.3333333), wk =   0.1481481
        k(    3) = (   0.0000000   0.3333333   0.0000000), wk =   0.4444444
        k(    4) = (   0.0000000   0.3333333   0.3333333), wk =   0.4444444
        k(    5) = (   0.0000000   0.3333333  -0.3333333), wk =   0.4444444
        k(    6) = (   0.3333333  -0.3333333   0.0000000), wk =   0.4444444

     Dense  grid:    26301 G-vectors     FFT dimensions: (  45,  45,  45)

     Smooth grid:     9377 G-vectors     FFT dimensions: (  30,  30,  30)

     Dynamical RAM for                 wfc:       0.28 MB

     Dynamical RAM for     wfc (w. buffer):       1.14 MB

     Dynamical RAM for           str. fact:       0.30 MB

     Dynamical RAM for           local pot:       0.00 MB

     Dynamical RAM for          nlocal pot:       0.38 MB

     Dynamical RAM for                qrad:       8.96 MB

     Dynamical RAM for          rho,v,vnew:       0.86 MB

     Dynamical RAM for               rhoin:       0.29 MB

     Dynamical RAM for            rho*nmix:       1.61 MB

     Dynamical RAM for           G-vectors:       0.39 MB

     Dynamical RAM for          h,s,v(r/c):       0.19 MB

     Dynamical RAM for          <psi|beta>:       0.08 MB

     Dynamical RAM for                 psi:       0.57 MB

     Dynamical RAM for                hpsi:       0.57 MB

     Dynamical RAM for                spsi:       0.57 MB

     Dynamical RAM for      wfcinit/wfcrot:       0.66 MB

     Dynamical RAM for           addusdens:      28.00 MB

     Estimated static dynamical RAM per process >      13.64 MB

     Estimated max dynamical RAM per process >      43.24 MB

     Estimated total dynamical RAM >     339.53 MB

     Check: negative core charge=   -0.000004

     Initial potential from superposition of free atoms

     starting charge      39.4976, renormalised to      42.0000

     negative rho (up, down):  1.410E-01 0.000E+00
     Starting wfcs are   37 randomized atomic wfcs +   27 random wfcs
     Checking if some PAW data can be deallocated... 
       PAW data deallocated on    6 nodes for type:  2

     total cpu time spent up to now is        1.3 secs

     Self-consistent Calculation

     iteration #  1     ecut=    30.00 Ry     beta= 0.70
     Davidson diagonalization with overlap

---- Real-time Memory Report at c_bands before calling an iterative solver
           177 MiB given to the printing process from OS
             0 MiB allocation reported by mallinfo(arena+hblkhd)
        142775 MiB available memory on the node where the printing process lives
------------------
     ethr =  1.00E-02,  avg # of iterations =  6.0

     negative rho (up, down):  1.481E-01 0.000E+00

     total cpu time spent up to now is        1.7 secs

     total energy              =    -467.46946446 Ry
     estimated scf accuracy    <       2.40081407 Ry

     iteration #  2     ecut=    30.00 Ry     beta= 0.70
     Davidson diagonalization with overlap

---- Real-time Memory Report at c_bands before calling an iterative solver
           202 MiB given to the printing process from OS
             0 MiB allocation reported by mallinfo(arena+hblkhd)
        142651 MiB available memory on the node where the printing process lives
------------------
     ethr =  5.72E-03,  avg # of iterations =  2.8

     negative rho (up, down):  1.308E-01 0.000E+00

     total cpu time spent up to now is        2.0 secs

     total energy              =    -467.01008083 Ry
     estimated scf accuracy    <      11.32247887 Ry

     iteration #  3     ecut=    30.00 Ry     beta= 0.70
     Davidson diagonalization with overlap

---- Real-time Memory Report at c_bands before calling an iterative solver
           205 MiB given to the printing process from OS
             0 MiB allocation reported by mallinfo(arena+hblkhd)
        142628 MiB available memory on the node where the printing process lives
------------------
     ethr =  5.72E-03,  avg # of iterations =  1.5

     negative rho (up, down):  1.297E-01 0.000E+00

     total cpu time spent up to now is        2.3 secs

     total energy              =    -468.50990000 Ry
     estimated scf accuracy    <       1.67008972 Ry

     iteration #  4     ecut=    30.00 Ry     beta= 0.70
     Davidson diagonalization with overlap

---- Real-time Memory Report at c_bands before calling an iterative solver
           205 MiB given to the printing process from OS
             0 MiB allocation reported by mallinfo(arena+hblkhd)
        142626 MiB available memory on the node where the printing process lives
------------------
     ethr =  3.98E-03,  avg # of iterations =  1.0

     negative rho (up, down):  1.299E-01 0.000E+00

     total cpu time spent up to now is        2.6 secs

     total energy              =    -468.76459685 Ry
     estimated scf accuracy    <       0.11086263 Ry

     iteration #  5     ecut=    30.00 Ry     beta= 0.70
     Davidson diagonalization with overlap

---- Real-time Memory Report at c_bands before calling an iterative solver
           205 MiB given to the printing process from OS
             0 MiB allocation reported by mallinfo(arena+hblkhd)
        142628 MiB available memory on the node where the printing process lives
------------------
     ethr =  2.64E-04,  avg # of iterations =  1.5

     negative rho (up, down):  1.304E-01 0.000E+00

     total cpu time spent up to now is        2.9 secs

     total energy              =    -468.77050125 Ry
     estimated scf accuracy    <       0.00715783 Ry

     iteration #  6     ecut=    30.00 Ry     beta= 0.70
     Davidson diagonalization with overlap

---- Real-time Memory Report at c_bands before calling an iterative solver
           205 MiB given to the printing process from OS
             0 MiB allocation reported by mallinfo(arena+hblkhd)
        142654 MiB available memory on the node where the printing process lives
------------------
     ethr =  1.70E-05,  avg # of iterations =  4.8

     negative rho (up, down):  1.307E-01 0.000E+00

     total cpu time spent up to now is        3.2 secs

     total energy              =    -468.77041843 Ry
     estimated scf accuracy    <       0.00131563 Ry

     iteration #  7     ecut=    30.00 Ry     beta= 0.70
     Davidson diagonalization with overlap

---- Real-time Memory Report at c_bands before calling an iterative solver
           205 MiB given to the printing process from OS
             0 MiB allocation reported by mallinfo(arena+hblkhd)
        142628 MiB available memory on the node where the printing process lives
------------------
     ethr =  3.13E-06,  avg # of iterations =  2.2

     negative rho (up, down):  1.307E-01 0.000E+00

     total cpu time spent up to now is        3.5 secs

     total energy              =    -468.77063744 Ry
     estimated scf accuracy    <       0.00038220 Ry

     iteration #  8     ecut=    30.00 Ry     beta= 0.70
     Davidson diagonalization with overlap

---- Real-time Memory Report at c_bands before calling an iterative solver
           205 MiB given to the printing process from OS
             0 MiB allocation reported by mallinfo(arena+hblkhd)
        142628 MiB available memory on the node where the printing process lives
------------------
     ethr =  9.10E-07,  avg # of iterations =  3.5

     negative rho (up, down):  1.307E-01 0.000E+00

     total cpu time spent up to now is        3.8 secs

     total energy              =    -468.77068190 Ry
     estimated scf accuracy    <       0.00000115 Ry

     iteration #  9     ecut=    30.00 Ry     beta= 0.70
     Davidson diagonalization with overlap

---- Real-time Memory Report at c_bands before calling an iterative solver
           205 MiB given to the printing process from OS
             0 MiB allocation reported by mallinfo(arena+hblkhd)
        142628 MiB available memory on the node where the printing process lives
------------------
     ethr =  2.73E-09,  avg # of iterations =  2.0

     negative rho (up, down):  1.307E-01 0.000E+00

     total cpu time spent up to now is        4.1 secs

     End of self-consistent calculation

          k = 0.0000 0.0000 0.0000 (  1211 PWs)   bands (ev):

   -64.3516 -41.5185 -41.4704 -26.1896 -26.1896 -26.1896 -17.8475 -17.8475
   -17.8475 -17.6937 -17.6936 -17.6936   6.6474  12.1884  12.1884  13.0828
    13.0829  13.0829  13.4258  13.4258  13.4258  17.3766  17.3766  17.3766
    17.6705  17.6705  18.3021  18.3021  18.8493  21.0659  21.0659  21.0659
    23.5291  23.5291  23.5291  24.8422  24.8422  24.8422  25.7103  28.5601
    28.5601  31.2931  32.9111  32.9111  32.9111  37.6904  37.6904  37.9409
    37.9410  37.9410  39.1309  39.1309  39.1309  43.4569  44.1989  44.1989
    44.1989  44.3831  44.3831  44.3831  45.6746  45.6747  45.6747  47.0236

     occupation numbers 
     1.0000   1.0000   1.0000   1.0000   1.0000   1.0000   1.0000   1.0000
     1.0000   1.0000   1.0000   1.0000   1.0000   1.0000   1.0000   1.0000
     1.0000   1.0000   1.0000   1.0000   1.0000   0.0000   0.0000   0.0000
     0.0000   0.0000   0.0000   0.0000   0.0000   0.0000   0.0000   0.0000
     0.0000   0.0000   0.0000   0.0000   0.0000   0.0000   0.0000   0.0000
     0.0000   0.0000   0.0000   0.0000   0.0000   0.0000   0.0000   0.0000
     0.0000   0.0000   0.0000   0.0000   0.0000   0.0000   0.0000   0.0000
     0.0000   0.0000   0.0000   0.0000   0.0000   0.0000   0.0000   0.0000

          k = 0.0000 0.0000 0.4082 (  1167 PWs)   bands (ev):

   -64.3514 -41.5069 -41.4821 -26.1915 -26.1915 -26.1887 -17.8088 -17.8088
   -17.8051 -17.7461 -17.7305 -17.7305   8.0545  11.2208  12.0357  12.0357
    13.0889  13.3249  13.3249  14.4034  14.4034  16.3050  16.3276  16.3276
    17.5376  17.5376  18.0013  18.0013  18.8666  20.7194  21.6819  21.6819
    21.9890  21.9890  22.6469  25.5351  25.5351  26.5775  30.4292  30.4292
    30.6204  31.5647  31.5647  32.2425  34.0719  35.7859  36.4659  36.4659
    37.7299  37.7299  38.1818  39.2149  39.8970  39.8970  40.8153  43.0020
    43.0020  44.9859  44.9859  45.1419  46.3274  46.7694  46.7695  48.3018

     occupation numbers 
     1.0000   1.0000   1.0000   1.0000   1.0000   1.0000   1.0000   1.0000
     1.0000   1.0000   1.0000   1.0000   1.0000   1.0000   1.0000   1.0000
     1.0000   1.0000   1.0000   1.0000   1.0000   0.0000   0.0000   0.0000
     0.0000   0.0000   0.0000   0.0000   0.0000   0.0000   0.0000   0.0000
     0.0000   0.0000   0.0000   0.0000   0.0000   0.0000   0.0000   0.0000
     0.0000   0.0000   0.0000   0.0000   0.0000   0.0000   0.0000   0.0000
     0.0000   0.0000   0.0000   0.0000   0.0000   0.0000   0.0000   0.0000
     0.0000   0.0000   0.0000   0.0000   0.0000   0.0000   0.0000   0.0000

          k = 0.0000 0.3849-0.1361 (  1167 PWs)   bands (ev):

   -64.3514 -41.5069 -41.4821 -26.1915 -26.1915 -26.1887 -17.8088 -17.8088
   -17.8051 -17.7461 -17.7305 -17.7305   8.0545  11.2208  12.0357  12.0357
    13.0889  13.3249  13.3249  14.4034  14.4034  16.3050  16.3276  16.3276
    17.5376  17.5376  18.0013  18.0013  18.8666  20.7194  21.6819  21.6819
    21.9890  21.9891  22.6469  25.5351  25.5351  26.5775  30.4292  30.4292
    30.6204  31.5647  31.5647  32.2425  34.0719  35.7859  36.4659  36.4659
    37.7299  37.7299  38.1818  39.2149  39.8970  39.8970  40.8153  43.0020
    43.0020  44.9859  44.9859  45.1419  46.3274  46.7695  46.7696  48.3018

     occupation numbers 
     1.0000   1.0000   1.0000   1.0000   1.0000   1.0000   1.0000   1.0000
     1.0000   1.0000   1.0000   1.0000   1.0000   1.0000   1.0000   1.0000
     1.0000   1.0000   1.0000   1.0000   1.0000   0.0000   0.0000   0.0000
     0.0000   0.0000   0.0000   0.0000   0.0000   0.0000   0.0000   0.0000
     0.0000   0.0000   0.0000   0.0000   0.0000   0.0000   0.0000   0.0000
     0.0000   0.0000   0.0000   0.0000   0.0000   0.0000   0.0000   0.0000
     0.0000   0.0000   0.0000   0.0000   0.0000   0.0000   0.0000   0.0000
     0.0000   0.0000   0.0000   0.0000   0.0000   0.0000   0.0000   0.0000

          k = 0.0000 0.3849 0.2722 (  1174 PWs)   bands (ev):

   -64.3514 -41.5074 -41.4819 -26.1940 -26.1940 -26.1848 -17.8457 -17.8457
   -17.8435 -17.7148 -17.6897 -17.6897   8.4228  10.6317  12.2408  12.9647
    13.3157  13.4273  13.4273  14.0905  14.0905  16.0353  16.2379  16.2379
    17.0234  17.3946  17.9626  18.2515  18.6901  19.1728  19.1728  21.1185
    23.1527  24.2815  24.2816  25.6073  27.9600  28.9976  29.0940  29.0940
    30.3982  30.7526  30.7526  31.1769  31.9239  36.5656  36.7066  36.7066
    37.7551  37.7551  38.2003  39.8521  41.4254  41.4254  41.5092  42.9379
    43.0355  43.3300  44.8107  44.8107  45.7019  46.4004  46.4004  47.8991

     occupation numbers 
     1.0000   1.0000   1.0000   1.0000   1.0000   1.0000   1.0000   1.0000
     1.0000   1.0000   1.0000   1.0000   1.0000   1.0000   1.0000   1.0000
     1.0000   1.0000   1.0000   1.0000   1.0000   0.0000   0.0000   0.0000
     0.0000   0.0000   0.0000   0.0000   0.0000   0.0000   0.0000   0.0000
     0.0000   0.0000   0.0000   0.0000   0.0000   0.0000   0.0000   0.0000
     0.0000   0.0000   0.0000   0.0000   0.0000   0.0000   0.0000   0.0000
     0.0000   0.0000   0.0000   0.0000   0.0000   0.0000   0.0000   0.0000
     0.0000   0.0000   0.0000   0.0000   0.0000   0.0000   0.0000   0.0000

          k = 0.0000 0.3849-0.5443 (  1141 PWs)   bands (ev):

   -64.3513 -41.4945 -41.4944 -26.1937 -26.1918 -26.1881 -17.8727 -17.8223
   -17.8076 -17.7287 -17.7211 -17.6785   9.3134  10.7826  11.5922  12.3519
    12.5439  13.3225  14.1112  14.3521  15.4033  15.4619  15.6712  16.3004
    16.5912  16.8785  18.0079  18.2412  18.3384  18.8707  18.9271  21.7768
    24.4713  24.5581  24.7963  25.4275  26.1522  28.4070  28.8035  28.8726
    31.1602  31.6906  32.0616  32.3862  34.2198  34.6162  35.9307  36.2494
    36.8973  37.2068  38.6959  39.7029  39.9671  40.2402  40.6218  42.4863
    43.6018  44.5370  44.9952  45.1483  45.4720  46.3016  47.4952  47.5975

     occupation numbers 
     1.0000   1.0000   1.0000   1.0000   1.0000   1.0000   1.0000   1.0000
     1.0000   1.0000   1.0000   1.0000   1.0000   1.0000   1.0000   1.0000
     1.0000   1.0000   1.0000   1.0000   1.0000   0.0000   0.0000   0.0000
     0.0000   0.0000   0.0000   0.0000   0.0000   0.0000   0.0000   0.0000
     0.0000   0.0000   0.0000   0.0000   0.0000   0.0000   0.0000   0.0000
     0.0000   0.0000   0.0000   0.0000   0.0000   0.0000   0.0000   0.0000
     0.0000   0.0000   0.0000   0.0000   0.0000   0.0000   0.0000   0.0000
     0.0000   0.0000   0.0000   0.0000   0.0000   0.0000   0.0000   0.0000

          k = 0.3333-0.5774-0.0000 (  1141 PWs)   bands (ev):

   -64.3513 -41.4945 -41.4944 -26.1936 -26.1918 -26.1881 -17.8727 -17.8223
   -17.8076 -17.7287 -17.7211 -17.6785   9.3134  10.7827  11.5922  12.3519
    12.5439  13.3225  14.1112  14.3521  15.4033  15.4619  15.6712  16.3004
    16.5912  16.8785  18.0079  18.2412  18.3384  18.8707  18.9271  21.7768
    24.4713  24.5581  24.7963  25.4275  26.1522  28.4070  28.8035  28.8726
    31.1603  31.6906  32.0616  32.3862  34.2198  34.6162  35.9307  36.2493
    36.8973  37.2068  38.6959  39.7029  39.9671  40.2402  40.6217  42.4863
    43.6018  44.5370  44.9952  45.1483  45.4720  46.3016  47.4952  47.5975

     occupation numbers 
     1.0000   1.0000   1.0000   1.0000   1.0000   1.0000   1.0000   1.0000
     1.0000   1.0000   1.0000   1.0000   1.0000   1.0000   1.0000   1.0000
     1.0000   1.0000   1.0000   1.0000   1.0000   0.0000   0.0000   0.0000
     0.0000   0.0000   0.0000   0.0000   0.0000   0.0000   0.0000   0.0000
     0.0000   0.0000   0.0000   0.0000   0.0000   0.0000   0.0000   0.0000
     0.0000   0.0000   0.0000   0.0000   0.0000   0.0000   0.0000   0.0000
     0.0000   0.0000   0.0000   0.0000   0.0000   0.0000   0.0000   0.0000
     0.0000   0.0000   0.0000   0.0000   0.0000   0.0000   0.0000   0.0000

     highest occupied, lowest unoccupied level (ev):    15.4033   15.4619

!    total energy              =    -468.77068179 Ry
     estimated scf accuracy    <       0.00000050 Ry

     The total energy is the sum of the following terms:
     one-electron contribution =    -131.68718004 Ry
     hartree contribution      =      83.29492465 Ry
     xc contribution           =     -91.36267637 Ry
     ewald contribution        =    -294.32096757 Ry
     one-center paw contrib.   =     -34.69478246 Ry
      -> PAW hartree energy AE =       0.00000000 Ry
      -> PAW hartree energy PS =       0.00000000 Ry
      -> PAW xc energy AE      =       0.00000000 Ry
      -> PAW xc energy PS      =       0.00000000 Ry
      -> total E_H with PAW    =      83.29492465 Ry
      -> total E_XC with PAW   =     -91.36267637 Ry

     convergence has been achieved in   9 iterations

     Writing all to output data dir calculations_bands_val/myprefix.save/
 
     init_run     :      2.99s CPU      0.94s WALL (       1 calls)
     electrons    :     10.88s CPU      2.88s WALL (       1 calls)

     Called by init_run:
     wfcinit      :      0.21s CPU      0.06s WALL (       1 calls)
     wfcinit:atom :      0.00s CPU      0.00s WALL (       3 calls)
     wfcinit:wfcr :      0.20s CPU      0.05s WALL (       3 calls)
     potinit      :      0.85s CPU      0.22s WALL (       1 calls)
     hinit0       :      1.49s CPU      0.48s WALL (       1 calls)

     Called by electrons:
     c_bands      :      5.21s CPU      1.36s WALL (       9 calls)
     sum_band     :      2.08s CPU      0.56s WALL (       9 calls)
     v_of_rho     :      0.25s CPU      0.07s WALL (      10 calls)
     v_h          :      0.02s CPU      0.01s WALL (      10 calls)
     v_xc         :      0.23s CPU      0.06s WALL (      10 calls)
     newd         :      1.35s CPU      0.36s WALL (      10 calls)
     PAW_pot      :      2.22s CPU      0.58s WALL (      10 calls)
     mix_rho      :      0.06s CPU      0.02s WALL (       9 calls)

     Called by c_bands:
     init_us_2    :      0.05s CPU      0.01s WALL (      57 calls)
     init_us_2:cp :      0.05s CPU      0.01s WALL (      57 calls)
     cegterg      :      4.67s CPU      1.21s WALL (      27 calls)

     Called by sum_band:
     sum_band:wei :      0.00s CPU      0.00s WALL (       9 calls)
     sum_band:loo :      0.71s CPU      0.19s WALL (       9 calls)
     sum_band:buf :      0.01s CPU      0.00s WALL (      27 calls)
     sum_band:ini :      0.03s CPU      0.01s WALL (      27 calls)
     sum_band:cal :      0.03s CPU      0.01s WALL (      27 calls)
     sum_band:bec :      0.01s CPU      0.00s WALL (      27 calls)
     addusdens    :      1.26s CPU      0.35s WALL (       9 calls)
     addusd:skk   :      0.00s CPU      0.00s WALL (      27 calls)
     addusd:dgemm :      0.12s CPU      0.06s WALL (      27 calls)
     addusd:qvan2 :      1.08s CPU      0.27s WALL (      27 calls)

     Called by *egterg:
     cdiaghg      :      1.30s CPU      0.34s WALL (      91 calls)
     cegterg:over :      0.15s CPU      0.04s WALL (      64 calls)
     cegterg:upda :      0.08s CPU      0.02s WALL (      64 calls)
     cegterg:last :      0.09s CPU      0.02s WALL (      44 calls)
     cdiaghg:chol :      0.09s CPU      0.02s WALL (      91 calls)
     cdiaghg:inve :      0.02s CPU      0.01s WALL (      91 calls)
     cdiaghg:para :      0.20s CPU      0.05s WALL (     182 calls)
     h_psi        :      3.11s CPU      0.81s WALL (      94 calls)
     s_psi        :      0.04s CPU      0.01s WALL (      94 calls)
     g_psi        :      0.00s CPU      0.00s WALL (      64 calls)

     Called by h_psi:
     h_psi:calbec :      0.08s CPU      0.02s WALL (      94 calls)
     vloc_psi     :      2.97s CPU      0.77s WALL (      94 calls)
     add_vuspsi   :      0.05s CPU      0.01s WALL (      94 calls)

     General routines
     calbec       :      0.10s CPU      0.03s WALL (     121 calls)
     fft          :      0.59s CPU      0.15s WALL (     128 calls)
     ffts         :      0.58s CPU      0.15s WALL (      19 calls)
     fftw         :      2.94s CPU      0.77s WALL (    9926 calls)
     interpolate  :      0.60s CPU      0.16s WALL (      10 calls)
 
     Parallel routines

     PAW routines
     PAW_pot      :      2.22s CPU      0.58s WALL (      10 calls)
     PAW_symme    :      0.01s CPU      0.00s WALL (      19 calls)
 
     PWSCF        :     14.77s CPU      4.56s WALL

 
   This run was terminated on:  14:38:30   4Jun2023            

=------------------------------------------------------------------------------=
   JOB DONE.
=------------------------------------------------------------------------------=
