
     Program PWSCF v.7.0 starts on  4Jun2023 at 11:48:56 

     This program is part of the open-source Quantum ESPRESSO suite
     for quantum simulation of materials; please cite
         "P. Giannozzi et al., J. Phys.:Condens. Matter 21 395502 (2009);
         "P. Giannozzi et al., J. Phys.:Condens. Matter 29 465901 (2017);
         "P. Giannozzi et al., J. Chem. Phys. 152 154105 (2020);
          URL http://www.quantum-espresso.org", 
     in publications or presentations arising from this work. More details at
     http://www.quantum-espresso.org/quote

     Parallel version (MPI & OpenMP), running on      32 processor cores
     Number of MPI processes:                 8
     Threads/MPI process:                     4

     MPI processes distributed on     1 nodes
     K-points division:     npool     =       2
     R & G space division:  proc/nbgrp/npool/nimage =       4
     141748 MiB available memory on the printing compute node when the environment starts
 
     Reading input from espresso_286.pwi
Warning: card &CELL ignored
Warning: card / ignored

     Current dimensions of program PWSCF are:
     Max number of different atomic species (ntypx) = 10
     Max number of k-points (npk) =  40000
     Max angular momentum in pseudopotentials (lmaxx) =  4
     Message from routine setup:
     using ibrav=0 with symmetry is DISCOURAGED, use correct ibrav instead

     Subspace diagonalization in iterative solution of the eigenvalue problem:
     one sub-group per band group will be used
     scalapack distributed-memory algorithm (size of sub-group:  2*  2 procs)

 
     Parallelization info
     --------------------
     sticks:   dense  smooth     PW     G-vecs:    dense   smooth      PW
     Min         654     328     90                25268     8932    1314
     Max         655     329     92                25269     8933    1315
     Sum        2617    1313    365               101073    35729    5257
 
     Using Slab Decomposition
 


     bravais-lattice index     =            0
     lattice parameter (alat)  =      11.7201  a.u.
     unit-cell volume          =    1609.8826 (a.u.)^3
     number of atoms/cell      =            9
     number of atomic types    =            4
     number of electrons       =       102.00
     number of Kohn-Sham states=           64
     kinetic-energy cutoff     =      30.0000  Ry
     charge density cutoff     =     240.0000  Ry
     scf convergence threshold =      1.0E-06
     mixing beta               =       0.7000
     number of iterations used =            8  plain     mixing
     Exchange-correlation= SLA  PW   PBE  PBE
                           (   1   4   3   4   0   0   0)

     celldm(1)=  11.720102  celldm(2)=   0.000000  celldm(3)=   0.000000
     celldm(4)=   0.000000  celldm(5)=   0.000000  celldm(6)=   0.000000

     crystal axes: (cart. coord. in units of alat)
               a(1) = (   1.000000   0.000000   0.000000 )  
               a(2) = (   0.000000   1.000000   0.000000 )  
               a(3) = (   0.000000   0.000000   1.000000 )  

     reciprocal axes: (cart. coord. in units 2 pi/alat)
               b(1) = (  1.000000  0.000000  0.000000 )  
               b(2) = (  0.000000  1.000000  0.000000 )  
               b(3) = (  0.000000  0.000000  1.000000 )  


     PseudoPot. # 1 for Rb read from file:
     /home/pragov/projects/rrg-bengioy-ad/pragov/crystal_structure_design/SSSP/Rb_ONCV_PBE-1.0.oncvpsp.upf
     MD5 check sum: 55a5172d6bfbce6759a58e35d43f6aa9
     Pseudo is Norm-conserving, Zval =  9.0
     Generated using ONCVPSP code by D. R. Hamann
     Using radial grid of 2308 points,  6 beta functions with: 
                l(1) =   0
                l(2) =   0
                l(3) =   1
                l(4) =   1
                l(5) =   2
                l(6) =   2

     PseudoPot. # 2 for Ti read from file:
     /home/pragov/projects/rrg-bengioy-ad/pragov/crystal_structure_design/SSSP/ti_pbe_v1.4.uspp.F.UPF
     MD5 check sum: 88a00a6731bd790ddea75d31a80cb452
     Pseudo is Ultrasoft + core correction, Zval = 12.0
     Generated by new atomic code, or converted to UPF format
     Using radial grid of  851 points,  6 beta functions with: 
                l(1) =   0
                l(2) =   0
                l(3) =   1
                l(4) =   1
                l(5) =   2
                l(6) =   2
     Q(r) pseudized with  6 coefficients,  rinner =    1.000   1.000   1.000
                                                       1.000   1.000

     PseudoPot. # 3 for Cu read from file:
     /home/pragov/projects/rrg-bengioy-ad/pragov/crystal_structure_design/SSSP/Cu_pbe_v1.2.uspp.F.UPF
     MD5 check sum: 6e991ff952a84172a2a52a1c1e996048
     Pseudo is Ultrasoft + core correction, Zval = 19.0
     Generated by new atomic code, or converted to UPF format
     Using radial grid of  867 points,  6 beta functions with: 
                l(1) =   0
                l(2) =   0
                l(3) =   1
                l(4) =   1
                l(5) =   2
                l(6) =   2
     Q(r) pseudized with  8 coefficients,  rinner =    1.150   1.150   1.150
                                                       1.150   1.150

     PseudoPot. # 4 for Se read from file:
     /home/pragov/projects/rrg-bengioy-ad/pragov/crystal_structure_design/SSSP/Se_pbe_v1.uspp.F.UPF
     MD5 check sum: 1b3568f3a8ae88f9a2a0ad0698632c85
     Pseudo is Ultrasoft + core correction, Zval =  6.0
     Generated by new atomic code, or converted to UPF format
     Using radial grid of  877 points,  6 beta functions with: 
                l(1) =   0
                l(2) =   0
                l(3) =   1
                l(4) =   1
                l(5) =   2
                l(6) =   2
     Q(r) pseudized with  8 coefficients,  rinner =    1.300   1.300   1.300
                                                       1.300   1.300

     atomic species   valence    mass     pseudopotential
        Rb             9.00    85.46780     Rb( 1.00)
        Ti            12.00    47.86700     Ti( 1.00)
        Cu            19.00    63.54600     Cu( 1.00)
        Se             6.00    78.97100     Se( 1.00)

     24 Sym. Ops. (no inversion) found


                                    s                        frac. trans.

      isym =  1     identity                                     

 cryst.   s( 1) = (     1          0          0      )
                  (     0          1          0      )
                  (     0          0          1      )

 cart.    s( 1) = (  1.0000000  0.0000000  0.0000000 )
                  (  0.0000000  1.0000000  0.0000000 )
                  (  0.0000000  0.0000000  1.0000000 )


      isym =  2     180 deg rotation - cart. axis [0,0,1]        

 cryst.   s( 2) = (    -1          0          0      )
                  (     0         -1          0      )
                  (     0          0          1      )

 cart.    s( 2) = ( -1.0000000  0.0000000  0.0000000 )
                  (  0.0000000 -1.0000000  0.0000000 )
                  (  0.0000000  0.0000000  1.0000000 )


      isym =  3     180 deg rotation - cart. axis [0,1,0]        

 cryst.   s( 3) = (    -1          0          0      )
                  (     0          1          0      )
                  (     0          0         -1      )

 cart.    s( 3) = ( -1.0000000  0.0000000  0.0000000 )
                  (  0.0000000  1.0000000  0.0000000 )
                  (  0.0000000  0.0000000 -1.0000000 )


      isym =  4     180 deg rotation - cart. axis [1,0,0]        

 cryst.   s( 4) = (     1          0          0      )
                  (     0         -1          0      )
                  (     0          0         -1      )

 cart.    s( 4) = (  1.0000000  0.0000000  0.0000000 )
                  (  0.0000000 -1.0000000  0.0000000 )
                  (  0.0000000  0.0000000 -1.0000000 )


      isym =  5     120 deg rotation - cart. axis [-1,-1,-1]     

 cryst.   s( 5) = (     0          0          1      )
                  (     1          0          0      )
                  (     0          1          0      )

 cart.    s( 5) = (  0.0000000  1.0000000  0.0000000 )
                  (  0.0000000  0.0000000  1.0000000 )
                  (  1.0000000  0.0000000  0.0000000 )


      isym =  6     120 deg rotation - cart. axis [-1,1,1]       

 cryst.   s( 6) = (     0          0         -1      )
                  (    -1          0          0      )
                  (     0          1          0      )

 cart.    s( 6) = (  0.0000000 -1.0000000  0.0000000 )
                  (  0.0000000  0.0000000  1.0000000 )
                  ( -1.0000000  0.0000000  0.0000000 )


      isym =  7     120 deg rotation - cart. axis [1,1,-1]       

 cryst.   s( 7) = (     0          0         -1      )
                  (     1          0          0      )
                  (     0         -1          0      )

 cart.    s( 7) = (  0.0000000  1.0000000  0.0000000 )
                  (  0.0000000  0.0000000 -1.0000000 )
                  ( -1.0000000  0.0000000  0.0000000 )


      isym =  8     120 deg rotation - cart. axis [1,-1,1]       

 cryst.   s( 8) = (     0          0          1      )
                  (    -1          0          0      )
                  (     0         -1          0      )

 cart.    s( 8) = (  0.0000000 -1.0000000  0.0000000 )
                  (  0.0000000  0.0000000 -1.0000000 )
                  (  1.0000000  0.0000000  0.0000000 )


      isym =  9     120 deg rotation - cart. axis [1,1,1]        

 cryst.   s( 9) = (     0          1          0      )
                  (     0          0          1      )
                  (     1          0          0      )

 cart.    s( 9) = (  0.0000000  0.0000000  1.0000000 )
                  (  1.0000000  0.0000000  0.0000000 )
                  (  0.0000000  1.0000000  0.0000000 )


      isym = 10     120 deg rotation - cart. axis [-1,1,-1]      

 cryst.   s(10) = (     0         -1          0      )
                  (     0          0         -1      )
                  (     1          0          0      )

 cart.    s(10) = (  0.0000000  0.0000000  1.0000000 )
                  ( -1.0000000  0.0000000  0.0000000 )
                  (  0.0000000 -1.0000000  0.0000000 )


      isym = 11     120 deg rotation - cart. axis [1,-1,-1]      

 cryst.   s(11) = (     0         -1          0      )
                  (     0          0          1      )
                  (    -1          0          0      )

 cart.    s(11) = (  0.0000000  0.0000000 -1.0000000 )
                  ( -1.0000000  0.0000000  0.0000000 )
                  (  0.0000000  1.0000000  0.0000000 )


      isym = 12     120 deg rotation - cart. axis [-1,-1,1]      

 cryst.   s(12) = (     0          1          0      )
                  (     0          0         -1      )
                  (    -1          0          0      )

 cart.    s(12) = (  0.0000000  0.0000000 -1.0000000 )
                  (  1.0000000  0.0000000  0.0000000 )
                  (  0.0000000 -1.0000000  0.0000000 )


      isym = 13     inv. 180 deg rotation - cart. axis [1,1,0]   

 cryst.   s(13) = (     0         -1          0      )
                  (    -1          0          0      )
                  (     0          0          1      )

 cart.    s(13) = (  0.0000000 -1.0000000  0.0000000 )
                  ( -1.0000000  0.0000000  0.0000000 )
                  (  0.0000000  0.0000000  1.0000000 )


      isym = 14     inv. 180 deg rotation - cart. axis [1,-1,0]  

 cryst.   s(14) = (     0          1          0      )
                  (     1          0          0      )
                  (     0          0          1      )

 cart.    s(14) = (  0.0000000  1.0000000  0.0000000 )
                  (  1.0000000  0.0000000  0.0000000 )
                  (  0.0000000  0.0000000  1.0000000 )


      isym = 15     inv.  90 deg rotation - cart. axis [0,0,-1]  

 cryst.   s(15) = (     0          1          0      )
                  (    -1          0          0      )
                  (     0          0         -1      )

 cart.    s(15) = (  0.0000000 -1.0000000  0.0000000 )
                  (  1.0000000  0.0000000  0.0000000 )
                  (  0.0000000  0.0000000 -1.0000000 )


      isym = 16     inv.  90 deg rotation - cart. axis [0,0,1]   

 cryst.   s(16) = (     0         -1          0      )
                  (     1          0          0      )
                  (     0          0         -1      )

 cart.    s(16) = (  0.0000000  1.0000000  0.0000000 )
                  ( -1.0000000  0.0000000  0.0000000 )
                  (  0.0000000  0.0000000 -1.0000000 )


      isym = 17     inv. 180 deg rotation - cart. axis [1,0,1]   

 cryst.   s(17) = (     0          0         -1      )
                  (     0          1          0      )
                  (    -1          0          0      )

 cart.    s(17) = (  0.0000000  0.0000000 -1.0000000 )
                  (  0.0000000  1.0000000  0.0000000 )
                  ( -1.0000000  0.0000000  0.0000000 )


      isym = 18     inv. 180 deg rotation - cart. axis [-1,0,1]  

 cryst.   s(18) = (     0          0          1      )
                  (     0          1          0      )
                  (     1          0          0      )

 cart.    s(18) = (  0.0000000  0.0000000  1.0000000 )
                  (  0.0000000  1.0000000  0.0000000 )
                  (  1.0000000  0.0000000  0.0000000 )


      isym = 19     inv.  90 deg rotation - cart. axis [0,1,0]   

 cryst.   s(19) = (     0          0          1      )
                  (     0         -1          0      )
                  (    -1          0          0      )

 cart.    s(19) = (  0.0000000  0.0000000 -1.0000000 )
                  (  0.0000000 -1.0000000  0.0000000 )
                  (  1.0000000  0.0000000  0.0000000 )


      isym = 20     inv.  90 deg rotation - cart. axis [0,-1,0]  

 cryst.   s(20) = (     0          0         -1      )
                  (     0         -1          0      )
                  (     1          0          0      )

 cart.    s(20) = (  0.0000000  0.0000000  1.0000000 )
                  (  0.0000000 -1.0000000  0.0000000 )
                  ( -1.0000000  0.0000000  0.0000000 )


      isym = 21     inv. 180 deg rotation - cart. axis [0,1,1]   

 cryst.   s(21) = (     1          0          0      )
                  (     0          0         -1      )
                  (     0         -1          0      )

 cart.    s(21) = (  1.0000000  0.0000000  0.0000000 )
                  (  0.0000000  0.0000000 -1.0000000 )
                  (  0.0000000 -1.0000000  0.0000000 )


      isym = 22     inv. 180 deg rotation - cart. axis [0,1,-1]  

 cryst.   s(22) = (     1          0          0      )
                  (     0          0          1      )
                  (     0          1          0      )

 cart.    s(22) = (  1.0000000  0.0000000  0.0000000 )
                  (  0.0000000  0.0000000  1.0000000 )
                  (  0.0000000  1.0000000  0.0000000 )


      isym = 23     inv.  90 deg rotation - cart. axis [-1,0,0]  

 cryst.   s(23) = (    -1          0          0      )
                  (     0          0          1      )
                  (     0         -1          0      )

 cart.    s(23) = ( -1.0000000  0.0000000  0.0000000 )
                  (  0.0000000  0.0000000 -1.0000000 )
                  (  0.0000000  1.0000000  0.0000000 )


      isym = 24     inv.  90 deg rotation - cart. axis [1,0,0]   

 cryst.   s(24) = (    -1          0          0      )
                  (     0          0         -1      )
                  (     0          1          0      )

 cart.    s(24) = ( -1.0000000  0.0000000  0.0000000 )
                  (  0.0000000  0.0000000  1.0000000 )
                  (  0.0000000 -1.0000000  0.0000000 )


   Cartesian axes

     site n.     atom                  positions (alat units)
         1           Rb  tau(   1) = (   0.5000000   0.5000000   0.5000000  )
         2           Ti  tau(   2) = (   0.0000000   0.0000000   0.0000000  )
         3           Cu  tau(   3) = (   0.0000000   0.5000000   0.0000000  )
         4           Cu  tau(   4) = (   0.0000000   0.0000000   0.5000000  )
         5           Cu  tau(   5) = (   0.5000000   0.0000000   0.0000000  )
         6           Se  tau(   6) = (   0.2204210   0.2204210   0.2204210  )
         7           Se  tau(   7) = (   0.7795790   0.7795790   0.2204210  )
         8           Se  tau(   8) = (   0.2204210   0.7795790   0.7795790  )
         9           Se  tau(   9) = (   0.7795790   0.2204210   0.7795790  )

   Crystallographic axes

     site n.     atom                  positions (cryst. coord.)
         1           Rb  tau(   1) = (  0.5000000  0.5000000  0.5000000  )
         2           Ti  tau(   2) = (  0.0000000  0.0000000  0.0000000  )
         3           Cu  tau(   3) = (  0.0000000  0.5000000  0.0000000  )
         4           Cu  tau(   4) = (  0.0000000  0.0000000  0.5000000  )
         5           Cu  tau(   5) = (  0.5000000  0.0000000  0.0000000  )
         6           Se  tau(   6) = (  0.2204210  0.2204210  0.2204210  )
         7           Se  tau(   7) = (  0.7795790  0.7795790  0.2204210  )
         8           Se  tau(   8) = (  0.2204210  0.7795790  0.7795790  )
         9           Se  tau(   9) = (  0.7795790  0.2204210  0.7795790  )

     number of k points=     4
                       cart. coord. in units 2pi/alat
        k(    1) = (   0.0000000   0.0000000   0.0000000), wk =   0.0740741
        k(    2) = (   0.0000000   0.0000000   0.3333333), wk =   0.4444444
        k(    3) = (   0.0000000   0.3333333   0.3333333), wk =   0.8888889
        k(    4) = (   0.3333333   0.3333333   0.3333333), wk =   0.5925926

                       cryst. coord.
        k(    1) = (   0.0000000   0.0000000   0.0000000), wk =   0.0740741
        k(    2) = (   0.0000000   0.0000000   0.3333333), wk =   0.4444444
        k(    3) = (   0.0000000   0.3333333   0.3333333), wk =   0.8888889
        k(    4) = (   0.3333333   0.3333333   0.3333333), wk =   0.5925926

     Dense  grid:   101073 G-vectors     FFT dimensions: (  60,  60,  60)

     Smooth grid:    35729 G-vectors     FFT dimensions: (  45,  45,  45)

     Dynamical RAM for                 wfc:       1.09 MB

     Dynamical RAM for     wfc (w. buffer):       3.27 MB

     Dynamical RAM for           str. fact:       1.54 MB

     Dynamical RAM for           local pot:       0.00 MB

     Dynamical RAM for          nlocal pot:       2.76 MB

     Dynamical RAM for                qrad:       4.98 MB

     Dynamical RAM for          rho,v,vnew:       2.39 MB

     Dynamical RAM for               rhoin:       0.80 MB

     Dynamical RAM for            rho*nmix:       6.17 MB

     Dynamical RAM for           G-vectors:       1.51 MB

     Dynamical RAM for          h,s,v(r/c):       0.19 MB

     Dynamical RAM for          <psi|beta>:       0.16 MB

     Dynamical RAM for                 psi:       2.18 MB

     Dynamical RAM for                hpsi:       2.18 MB

     Dynamical RAM for                spsi:       2.18 MB

     Dynamical RAM for      wfcinit/wfcrot:       2.50 MB

     Dynamical RAM for           addusdens:      36.82 MB

     Estimated static dynamical RAM per process >      21.24 MB

     Estimated max dynamical RAM per process >      64.23 MB

     Estimated total dynamical RAM >     489.15 MB

     Check: negative core charge=   -0.000001

     Initial potential from superposition of free atoms

     starting charge      97.9749, renormalised to     102.0000

     negative rho (up, down):  1.744E-03 0.000E+00
     Starting wfcs are   70 randomized atomic wfcs

     total cpu time spent up to now is        1.3 secs

     Self-consistent Calculation

     iteration #  1     ecut=    30.00 Ry     beta= 0.70
     Davidson diagonalization with overlap

---- Real-time Memory Report at c_bands before calling an iterative solver
           199 MiB given to the printing process from OS
             0 MiB allocation reported by mallinfo(arena+hblkhd)
        140981 MiB available memory on the node where the printing process lives
------------------
     ethr =  1.00E-02,  avg # of iterations =  3.8

     total cpu time spent up to now is        1.8 secs

     total energy              =   -1523.38230967 Ry
     estimated scf accuracy    <      37.23471622 Ry

     iteration #  2     ecut=    30.00 Ry     beta= 0.70
     Davidson diagonalization with overlap

---- Real-time Memory Report at c_bands before calling an iterative solver
           246 MiB given to the printing process from OS
             0 MiB allocation reported by mallinfo(arena+hblkhd)
        140674 MiB available memory on the node where the printing process lives
------------------
     ethr =  1.00E-02,  avg # of iterations =  4.8

     total cpu time spent up to now is        2.3 secs

     total energy              =   -1539.59097114 Ry
     estimated scf accuracy    <     170.83349343 Ry

     iteration #  3     ecut=    30.00 Ry     beta= 0.70
     Davidson diagonalization with overlap

---- Real-time Memory Report at c_bands before calling an iterative solver
           258 MiB given to the printing process from OS
             0 MiB allocation reported by mallinfo(arena+hblkhd)
        140526 MiB available memory on the node where the printing process lives
------------------
     ethr =  1.00E-02,  avg # of iterations =  4.0

     total cpu time spent up to now is        2.9 secs

     total energy              =   -1556.14504749 Ry
     estimated scf accuracy    <      17.45432085 Ry

     iteration #  4     ecut=    30.00 Ry     beta= 0.70
     Davidson diagonalization with overlap

---- Real-time Memory Report at c_bands before calling an iterative solver
           260 MiB given to the printing process from OS
             0 MiB allocation reported by mallinfo(arena+hblkhd)
        140522 MiB available memory on the node where the printing process lives
------------------
     ethr =  1.00E-02,  avg # of iterations =  2.0

     negative rho (up, down):  2.667E-04 0.000E+00

     total cpu time spent up to now is        3.2 secs

     total energy              =   -1555.77852020 Ry
     estimated scf accuracy    <       9.26688883 Ry

     iteration #  5     ecut=    30.00 Ry     beta= 0.70
     Davidson diagonalization with overlap

---- Real-time Memory Report at c_bands before calling an iterative solver
           260 MiB given to the printing process from OS
             0 MiB allocation reported by mallinfo(arena+hblkhd)
        140524 MiB available memory on the node where the printing process lives
------------------
     ethr =  9.09E-03,  avg # of iterations =  1.0

     negative rho (up, down):  4.894E-04 0.000E+00

     total cpu time spent up to now is        3.6 secs

     total energy              =   -1555.37741593 Ry
     estimated scf accuracy    <       6.61855011 Ry

     iteration #  6     ecut=    30.00 Ry     beta= 0.70
     Davidson diagonalization with overlap

---- Real-time Memory Report at c_bands before calling an iterative solver
           260 MiB given to the printing process from OS
             0 MiB allocation reported by mallinfo(arena+hblkhd)
        140525 MiB available memory on the node where the printing process lives
------------------
     ethr =  6.49E-03,  avg # of iterations =  1.0

     negative rho (up, down):  1.659E-03 0.000E+00

     total cpu time spent up to now is        4.0 secs

     total energy              =   -1553.13427762 Ry
     estimated scf accuracy    <       5.30962958 Ry

     iteration #  7     ecut=    30.00 Ry     beta= 0.70
     Davidson diagonalization with overlap

---- Real-time Memory Report at c_bands before calling an iterative solver
           260 MiB given to the printing process from OS
             0 MiB allocation reported by mallinfo(arena+hblkhd)
        140525 MiB available memory on the node where the printing process lives
------------------
     ethr =  5.21E-03,  avg # of iterations =  4.2

     negative rho (up, down):  1.588E-03 0.000E+00

     total cpu time spent up to now is        4.5 secs

     total energy              =   -1554.23311635 Ry
     estimated scf accuracy    <       2.45821416 Ry

     iteration #  8     ecut=    30.00 Ry     beta= 0.70
     Davidson diagonalization with overlap

---- Real-time Memory Report at c_bands before calling an iterative solver
           261 MiB given to the printing process from OS
             0 MiB allocation reported by mallinfo(arena+hblkhd)
        140523 MiB available memory on the node where the printing process lives
------------------
     ethr =  2.41E-03,  avg # of iterations =  1.5

     negative rho (up, down):  1.625E-03 0.000E+00

     total cpu time spent up to now is        4.8 secs

     total energy              =   -1554.25477876 Ry
     estimated scf accuracy    <       1.71790113 Ry

     iteration #  9     ecut=    30.00 Ry     beta= 0.70
     Davidson diagonalization with overlap

---- Real-time Memory Report at c_bands before calling an iterative solver
           261 MiB given to the printing process from OS
             0 MiB allocation reported by mallinfo(arena+hblkhd)
        140523 MiB available memory on the node where the printing process lives
------------------
     ethr =  1.68E-03,  avg # of iterations =  1.0

     negative rho (up, down):  1.315E-03 0.000E+00

     total cpu time spent up to now is        5.2 secs

     total energy              =   -1553.92285660 Ry
     estimated scf accuracy    <       2.09085763 Ry

     iteration # 10     ecut=    30.00 Ry     beta= 0.70
     Davidson diagonalization with overlap

---- Real-time Memory Report at c_bands before calling an iterative solver
           261 MiB given to the printing process from OS
             0 MiB allocation reported by mallinfo(arena+hblkhd)
        140554 MiB available memory on the node where the printing process lives
------------------
     ethr =  1.68E-03,  avg # of iterations =  1.0

     negative rho (up, down):  1.438E-03 0.000E+00

     total cpu time spent up to now is        5.5 secs

     total energy              =   -1554.10216372 Ry
     estimated scf accuracy    <       0.18595230 Ry

     iteration # 11     ecut=    30.00 Ry     beta= 0.70
     Davidson diagonalization with overlap

---- Real-time Memory Report at c_bands before calling an iterative solver
           261 MiB given to the printing process from OS
             0 MiB allocation reported by mallinfo(arena+hblkhd)
        140519 MiB available memory on the node where the printing process lives
------------------
     ethr =  1.82E-04,  avg # of iterations =  5.0

     negative rho (up, down):  1.375E-03 0.000E+00

     total cpu time spent up to now is        6.0 secs

     total energy              =   -1554.12287554 Ry
     estimated scf accuracy    <       0.08795477 Ry

     iteration # 12     ecut=    30.00 Ry     beta= 0.70
     Davidson diagonalization with overlap

---- Real-time Memory Report at c_bands before calling an iterative solver
           261 MiB given to the printing process from OS
             0 MiB allocation reported by mallinfo(arena+hblkhd)
        140514 MiB available memory on the node where the printing process lives
------------------
     ethr =  8.62E-05,  avg # of iterations =  1.8

     negative rho (up, down):  1.359E-03 0.000E+00

     total cpu time spent up to now is        6.3 secs

     total energy              =   -1554.12592393 Ry
     estimated scf accuracy    <       0.01313051 Ry

     iteration # 13     ecut=    30.00 Ry     beta= 0.70
     Davidson diagonalization with overlap

---- Real-time Memory Report at c_bands before calling an iterative solver
           261 MiB given to the printing process from OS
             0 MiB allocation reported by mallinfo(arena+hblkhd)
        140515 MiB available memory on the node where the printing process lives
------------------
     ethr =  1.29E-05,  avg # of iterations =  9.2

     negative rho (up, down):  1.347E-03 0.000E+00

     total cpu time spent up to now is        6.9 secs

     total energy              =   -1554.12753614 Ry
     estimated scf accuracy    <       0.00056912 Ry

     iteration # 14     ecut=    30.00 Ry     beta= 0.70
     Davidson diagonalization with overlap

---- Real-time Memory Report at c_bands before calling an iterative solver
           261 MiB given to the printing process from OS
             0 MiB allocation reported by mallinfo(arena+hblkhd)
        140502 MiB available memory on the node where the printing process lives
------------------
     ethr =  5.58E-07,  avg # of iterations =  5.5

     negative rho (up, down):  1.354E-03 0.000E+00

     total cpu time spent up to now is        7.3 secs

     total energy              =   -1554.12699195 Ry
     estimated scf accuracy    <       0.00346551 Ry

     iteration # 15     ecut=    30.00 Ry     beta= 0.70
     Davidson diagonalization with overlap

---- Real-time Memory Report at c_bands before calling an iterative solver
           261 MiB given to the printing process from OS
             0 MiB allocation reported by mallinfo(arena+hblkhd)
        140504 MiB available memory on the node where the printing process lives
------------------
     ethr =  5.58E-07,  avg # of iterations =  2.8

     negative rho (up, down):  1.349E-03 0.000E+00

     total cpu time spent up to now is        7.7 secs

     total energy              =   -1554.12734818 Ry
     estimated scf accuracy    <       0.00006382 Ry

     iteration # 16     ecut=    30.00 Ry     beta= 0.70
     Davidson diagonalization with overlap

---- Real-time Memory Report at c_bands before calling an iterative solver
           261 MiB given to the printing process from OS
             0 MiB allocation reported by mallinfo(arena+hblkhd)
        140508 MiB available memory on the node where the printing process lives
------------------
     ethr =  6.26E-08,  avg # of iterations =  4.5

     negative rho (up, down):  1.351E-03 0.000E+00

     total cpu time spent up to now is        8.2 secs

     total energy              =   -1554.12736971 Ry
     estimated scf accuracy    <       0.00003504 Ry

     iteration # 17     ecut=    30.00 Ry     beta= 0.70
     Davidson diagonalization with overlap

---- Real-time Memory Report at c_bands before calling an iterative solver
           263 MiB given to the printing process from OS
             0 MiB allocation reported by mallinfo(arena+hblkhd)
        140502 MiB available memory on the node where the printing process lives
------------------
     ethr =  3.43E-08,  avg # of iterations =  2.0

     negative rho (up, down):  1.352E-03 0.000E+00

     total cpu time spent up to now is        8.5 secs

     End of self-consistent calculation

          k = 0.0000 0.0000 0.0000 (  4457 PWs)   bands (ev):

  -105.9247-105.9237-105.9237 -63.3545 -63.3545 -63.3545 -63.3043 -63.3043
   -63.3043 -63.2988 -63.2988 -63.2988 -51.4966 -27.8048 -27.8048 -27.8048
   -20.8284  -7.5481  -7.0425  -7.0425  -7.0425  -4.9186  -4.9186  -4.9186
     0.8119   0.8119   1.4657   2.3388   2.3388   2.3388   2.8162   2.8162
     2.8162   3.0716   3.0716   3.0716   3.7318   3.7318   3.9798   3.9798
     3.9798   4.0436   4.0436   4.0955   4.4871   4.5007   4.5007   4.5007
     4.9866   4.9866   4.9866   6.5590   7.0766   7.0766   7.4378   7.4378
     7.4378   9.5905   9.5905   9.8598   9.8598   9.8598  11.3056  12.5454

     occupation numbers 
     1.0000   1.0000   1.0000   1.0000   1.0000   1.0000   1.0000   1.0000
     1.0000   1.0000   1.0000   1.0000   1.0000   1.0000   1.0000   1.0000
     1.0000   1.0000   1.0000   1.0000   1.0000   1.0000   1.0000   1.0000
     1.0000   1.0000   1.0000   1.0000   1.0000   1.0000   1.0000   1.0000
     1.0000   1.0000   1.0000   1.0000   1.0000   1.0000   1.0000   1.0000
     1.0000   1.0000   1.0000   1.0000   1.0000   1.0000   1.0000   1.0000
     1.0000   1.0000   1.0000   0.0000   0.0000   0.0000   0.0000   0.0000
     0.0000   0.0000   0.0000   0.0000   0.0000   0.0000   0.0000   0.0000

          k = 0.0000 0.0000 0.3333 (  4492 PWs)   bands (ev):

  -105.9252-105.9249-105.9241 -63.3561 -63.3556 -63.3556 -63.3039 -63.3039
   -63.3032 -63.3030 -63.3013 -63.3013 -51.4967 -27.8050 -27.8048 -27.8048
   -20.8284  -7.5355  -7.0389  -7.0389  -7.0386  -4.9610  -4.9242  -4.9242
     0.9320   1.1279   1.6648   1.9525   2.3594   2.3594   2.5514   2.6470
     2.7608   2.7608   3.0435   3.0435   3.7646   3.9257   3.9524   3.9526
     4.0097   4.0097   4.0574   4.1209   4.3635   4.3635   4.4303   4.5410
     4.5976   5.0739   5.0739   6.9050   7.1933   7.4274   7.7076   7.7076
     8.1285   9.3791   9.8195  10.2762  10.2762  10.2982  11.4519  11.8222

     occupation numbers 
     1.0000   1.0000   1.0000   1.0000   1.0000   1.0000   1.0000   1.0000
     1.0000   1.0000   1.0000   1.0000   1.0000   1.0000   1.0000   1.0000
     1.0000   1.0000   1.0000   1.0000   1.0000   1.0000   1.0000   1.0000
     1.0000   1.0000   1.0000   1.0000   1.0000   1.0000   1.0000   1.0000
     1.0000   1.0000   1.0000   1.0000   1.0000   1.0000   1.0000   1.0000
     1.0000   1.0000   1.0000   1.0000   1.0000   1.0000   1.0000   1.0000
     1.0000   1.0000   1.0000   0.0000   0.0000   0.0000   0.0000   0.0000
     0.0000   0.0000   0.0000   0.0000   0.0000   0.0000   0.0000   0.0000

          k = 0.0000 0.3333 0.3333 (  4454 PWs)   bands (ev):

  -105.9249-105.9238-105.9237 -63.3550 -63.3548 -63.3541 -63.3026 -63.3023
   -63.3022 -63.3016 -63.3013 -63.3000 -51.4966 -27.8050 -27.8050 -27.8048
   -20.8283  -7.4709  -7.1360  -7.0971  -6.9380  -4.9855  -4.9258  -4.9234
     1.1264   1.2007   1.6447   1.8709   2.2072   2.3287   2.5782   2.6223
     2.6904   2.7329   2.8811   2.9466   3.8524   3.9305   3.9681   3.9908
     4.0059   4.0102   4.0796   4.1985   4.2050   4.3915   4.4045   4.4505
     4.8720   4.9428   5.2026   7.1083   7.3120   7.5497   7.7415   7.8194
     8.5091   9.6925   9.7762   9.9938  10.3832  11.0400  11.1116  11.2788

     occupation numbers 
     1.0000   1.0000   1.0000   1.0000   1.0000   1.0000   1.0000   1.0000
     1.0000   1.0000   1.0000   1.0000   1.0000   1.0000   1.0000   1.0000
     1.0000   1.0000   1.0000   1.0000   1.0000   1.0000   1.0000   1.0000
     1.0000   1.0000   1.0000   1.0000   1.0000   1.0000   1.0000   1.0000
     1.0000   1.0000   1.0000   1.0000   1.0000   1.0000   1.0000   1.0000
     1.0000   1.0000   1.0000   1.0000   1.0000   1.0000   1.0000   1.0000
     1.0000   1.0000   1.0000   0.0000   0.0000   0.0000   0.0000   0.0000
     0.0000   0.0000   0.0000   0.0000   0.0000   0.0000   0.0000   0.0000

          k = 0.3333 0.3333 0.3333 (  4476 PWs)   bands (ev):

  -105.9250-105.9244-105.9244 -63.3570 -63.3547 -63.3547 -63.3035 -63.3035
   -63.3027 -63.3021 -63.3021 -63.3009 -51.4967 -27.8050 -27.8050 -27.8050
   -20.8282  -7.3890  -7.1297  -7.1297  -6.9990  -4.9650  -4.9341  -4.9341
     1.1862   1.1862   1.4488   1.7329   2.3442   2.3442   2.6278   2.6278
     2.6827   2.7157   2.8770   2.8770   3.9121   3.9121   3.9650   3.9985
     3.9985   4.0168   4.1113   4.1113   4.1965   4.3334   4.3478   4.3478
     5.2380   5.2380   5.2545   7.2966   7.2966   7.7240   7.8018   7.8018
     8.1229   9.0947   9.0947  10.6285  10.9219  10.9219  11.6302  11.6303

     occupation numbers 
     1.0000   1.0000   1.0000   1.0000   1.0000   1.0000   1.0000   1.0000
     1.0000   1.0000   1.0000   1.0000   1.0000   1.0000   1.0000   1.0000
     1.0000   1.0000   1.0000   1.0000   1.0000   1.0000   1.0000   1.0000
     1.0000   1.0000   1.0000   1.0000   1.0000   1.0000   1.0000   1.0000
     1.0000   1.0000   1.0000   1.0000   1.0000   1.0000   1.0000   1.0000
     1.0000   1.0000   1.0000   1.0000   1.0000   1.0000   1.0000   1.0000
     1.0000   1.0000   1.0000   0.0000   0.0000   0.0000   0.0000   0.0000
     0.0000   0.0000   0.0000   0.0000   0.0000   0.0000   0.0000   0.0000

     highest occupied, lowest unoccupied level (ev):     5.2545    6.5590

!    total energy              =   -1554.12737475 Ry
     estimated scf accuracy    <       0.00000061 Ry

     The total energy is the sum of the following terms:
     one-electron contribution =   -1445.78595877 Ry
     hartree contribution      =     752.46976429 Ry
     xc contribution           =    -260.91477970 Ry
     ewald contribution        =    -599.89640058 Ry

     convergence has been achieved in  17 iterations

     Writing all to output data dir calculations_bands_val/myprefix.save/
 
     init_run     :      3.51s CPU      1.05s WALL (       1 calls)
     electrons    :     27.50s CPU      7.21s WALL (       1 calls)

     Called by init_run:
     wfcinit      :      0.37s CPU      0.10s WALL (       1 calls)
     wfcinit:atom :      0.00s CPU      0.00s WALL (       2 calls)
     wfcinit:wfcr :      0.34s CPU      0.09s WALL (       2 calls)
     potinit      :      0.66s CPU      0.17s WALL (       1 calls)
     hinit0       :      2.18s CPU      0.67s WALL (       1 calls)

     Called by electrons:
     c_bands      :     15.57s CPU      4.04s WALL (      17 calls)
     sum_band     :      6.74s CPU      1.82s WALL (      17 calls)
     v_of_rho     :      1.15s CPU      0.30s WALL (      18 calls)
     v_h          :      0.09s CPU      0.02s WALL (      18 calls)
     v_xc         :      1.06s CPU      0.28s WALL (      18 calls)
     newd         :      3.80s CPU      0.99s WALL (      18 calls)
     mix_rho      :      0.30s CPU      0.08s WALL (      17 calls)

     Called by c_bands:
     init_us_2    :      0.13s CPU      0.03s WALL (      70 calls)
     init_us_2:cp :      0.13s CPU      0.03s WALL (      70 calls)
     cegterg      :     14.09s CPU      3.65s WALL (      34 calls)

     Called by sum_band:
     sum_band:wei :      0.01s CPU      0.00s WALL (      17 calls)
     sum_band:loo :      2.20s CPU      0.57s WALL (      17 calls)
     sum_band:buf :      0.02s CPU      0.01s WALL (      34 calls)
     sum_band:ini :      0.06s CPU      0.02s WALL (      34 calls)
     sum_band:cal :      0.13s CPU      0.03s WALL (      34 calls)
     sum_band:bec :      0.01s CPU      0.00s WALL (      34 calls)
     addusdens    :      3.55s CPU      0.99s WALL (      17 calls)
     addusd:skk   :      0.01s CPU      0.00s WALL (      51 calls)
     addusd:dgemm :      0.57s CPU      0.23s WALL (      51 calls)
     addusd:qvan2 :      2.13s CPU      0.54s WALL (      51 calls)

     Called by *egterg:
     cdiaghg      :      2.50s CPU      0.65s WALL (     138 calls)
     cegterg:over :      0.54s CPU      0.14s WALL (     104 calls)
     cegterg:upda :      0.33s CPU      0.09s WALL (     104 calls)
     cegterg:last :      0.44s CPU      0.11s WALL (      62 calls)
     cdiaghg:chol :      0.18s CPU      0.05s WALL (     138 calls)
     cdiaghg:inve :      0.04s CPU      0.01s WALL (     138 calls)
     cdiaghg:para :      0.36s CPU      0.09s WALL (     276 calls)
     h_psi        :     10.04s CPU      2.60s WALL (     140 calls)
     s_psi        :      0.19s CPU      0.05s WALL (     140 calls)
     g_psi        :      0.02s CPU      0.00s WALL (     104 calls)

     Called by h_psi:
     h_psi:calbec :      0.40s CPU      0.11s WALL (     140 calls)
     vloc_psi     :      9.38s CPU      2.43s WALL (     140 calls)
     add_vuspsi   :      0.23s CPU      0.06s WALL (     140 calls)

     General routines
     calbec       :      0.53s CPU      0.14s WALL (     174 calls)
     fft          :      2.11s CPU      0.62s WALL (     232 calls)
     ffts         :      0.71s CPU      0.18s WALL (      35 calls)
     fftw         :     10.26s CPU      2.66s WALL (   12998 calls)
     interpolate  :      0.51s CPU      0.13s WALL (      18 calls)
 
     Parallel routines
 
     PWSCF        :     32.31s CPU      8.96s WALL

 
   This run was terminated on:  11:49: 5   4Jun2023            

=------------------------------------------------------------------------------=
   JOB DONE.
=------------------------------------------------------------------------------=
