
     Program PWSCF v.7.0 starts on  4Jun2023 at 12:21:59 

     This program is part of the open-source Quantum ESPRESSO suite
     for quantum simulation of materials; please cite
         "P. Giannozzi et al., J. Phys.:Condens. Matter 21 395502 (2009);
         "P. Giannozzi et al., J. Phys.:Condens. Matter 29 465901 (2017);
         "P. Giannozzi et al., J. Chem. Phys. 152 154105 (2020);
          URL http://www.quantum-espresso.org", 
     in publications or presentations arising from this work. More details at
     http://www.quantum-espresso.org/quote

     Parallel version (MPI & OpenMP), running on      32 processor cores
     Number of MPI processes:                 8
     Threads/MPI process:                     4

     MPI processes distributed on     1 nodes
     K-points division:     npool     =       2
     R & G space division:  proc/nbgrp/npool/nimage =       4
     142093 MiB available memory on the printing compute node when the environment starts
 
     Reading input from espresso_395.pwi
Warning: card &CELL ignored
Warning: card / ignored

     Current dimensions of program PWSCF are:
     Max number of different atomic species (ntypx) = 10
     Max number of k-points (npk) =  40000
     Max angular momentum in pseudopotentials (lmaxx) =  4
     Message from routine setup:
     using ibrav=0 with symmetry is DISCOURAGED, use correct ibrav instead

     Subspace diagonalization in iterative solution of the eigenvalue problem:
     one sub-group per band group will be used
     scalapack distributed-memory algorithm (size of sub-group:  2*  2 procs)

 
     Parallelization info
     --------------------
     sticks:   dense  smooth     PW     G-vecs:    dense   smooth      PW
     Min         427     215     63                11320     3991     650
     Max         428     216     64                11321     3993     653
     Sum        1711     861    253                45283    15967    2603
 
     Using Slab Decomposition
 


     bravais-lattice index     =            0
     lattice parameter (alat)  =      10.4593  a.u.
     unit-cell volume          =     721.9847 (a.u.)^3
     number of atoms/cell      =           10
     number of atomic types    =            3
     number of electrons       =        84.00
     number of Kohn-Sham states=           64
     kinetic-energy cutoff     =      30.0000  Ry
     charge density cutoff     =     240.0000  Ry
     scf convergence threshold =      1.0E-06
     mixing beta               =       0.7000
     number of iterations used =            8  plain     mixing
     Exchange-correlation=  SLA  PW   PBX  PBC
                           (   1   4   3   4   0   0   0)

     celldm(1)=  10.459319  celldm(2)=   0.000000  celldm(3)=   0.000000
     celldm(4)=   0.000000  celldm(5)=   0.000000  celldm(6)=   0.000000

     crystal axes: (cart. coord. in units of alat)
               a(1) = (   1.000000   0.000000   0.000000 )  
               a(2) = (   0.568332   0.822799   0.000000 )  
               a(3) = (   0.568332   0.298166   0.766874 )  

     reciprocal axes: (cart. coord. in units 2 pi/alat)
               b(1) = (  1.000000 -0.690730 -0.472542 )  
               b(2) = (  0.000000  1.215363 -0.472542 )  
               b(3) = (  0.000000  0.000000  1.303995 )  


     PseudoPot. # 1 for Li read from file:
     /home/pragov/projects/rrg-bengioy-ad/pragov/crystal_structure_design/SSSP/li_pbe_v1.4.uspp.F.UPF
     MD5 check sum: e912e257baa3777c20ea3d68f190483c
     Pseudo is Ultrasoft, Zval =  3.0
     Generated by new atomic code, or converted to UPF format
     Using radial grid of  751 points,  5 beta functions with: 
                l(1) =   0
                l(2) =   0
                l(3) =   0
                l(4) =   1
                l(5) =   1
     Q(r) pseudized with 10 coefficients,  rinner =    1.150   1.150   1.150


     PseudoPot. # 2 for Ni read from file:
     /home/pragov/projects/rrg-bengioy-ad/pragov/crystal_structure_design/SSSP/ni_pbe_v1.4.uspp.F.UPF
     MD5 check sum: 1ee80287db30b12d2bc1f57a5b5d6409
     Pseudo is Ultrasoft + core correction, Zval = 18.0
     Generated by new atomic code, or converted to UPF format
     Using radial grid of  865 points,  6 beta functions with: 
                l(1) =   0
                l(2) =   0
                l(3) =   1
                l(4) =   1
                l(5) =   2
                l(6) =   2
     Q(r) pseudized with 10 coefficients,  rinner =    0.980   0.980   0.980
                                                       0.980   0.980

     PseudoPot. # 3 for F  read from file:
     /home/pragov/projects/rrg-bengioy-ad/pragov/crystal_structure_design/SSSP/f_pbe_v1.4.uspp.F.UPF
     MD5 check sum: 4c38b6a325caf53ec0e86aed9459de46
     Pseudo is Ultrasoft, Zval =  7.0
     Generated by new atomic code, or converted to UPF format
     Using radial grid of  799 points,  4 beta functions with: 
                l(1) =   0
                l(2) =   0
                l(3) =   1
                l(4) =   1
     Q(r) pseudized with  8 coefficients,  rinner =    0.950   0.950   0.950


     atomic species   valence    mass     pseudopotential
        Li             3.00     6.94000     Li( 1.00)
        Ni            18.00    58.69340     Ni( 1.00)
        F              7.00    18.99840     F ( 1.00)

      2 Sym. Ops., with inversion, found


                                    s                        frac. trans.

      isym =  1     identity                                     

 cryst.   s( 1) = (     1          0          0      )
                  (     0          1          0      )
                  (     0          0          1      )

 cart.    s( 1) = (  1.0000000  0.0000000  0.0000000 )
                  (  0.0000000  1.0000000  0.0000000 )
                  (  0.0000000  0.0000000  1.0000000 )


      isym =  2     inversion                                    

 cryst.   s( 2) = (    -1          0          0      )
                  (     0         -1          0      )
                  (     0          0         -1      )

 cart.    s( 2) = ( -1.0000000 -0.0000000 -0.0000000 )
                  (  0.0000000 -1.0000000 -0.0000000 )
                  (  0.0000000  0.0000000 -1.0000000 )


   Cartesian axes

     site n.     atom                  positions (alat units)
         1           Li  tau(   1) = (   1.5011861   0.7875722   0.5387933  )
         2           Li  tau(   2) = (   0.6354781   0.3333930   0.2280806  )
         3           Ni  tau(   3) = (   0.0000000   0.0000000   0.0000000  )
         4           Ni  tau(   4) = (   1.0683321   0.5604826   0.3834370  )
         5           F   tau(   5) = (   1.0148192   0.2067460   0.3025670  )
         6           F   tau(   6) = (   0.7468648   0.5420065   0.5590802  )
         7           F   tau(   7) = (   0.8704298   0.6321421   0.0830494  )
         8           F   tau(   8) = (   1.2662344   0.4888231   0.6838245  )
         9           F   tau(   9) = (   1.3897993   0.5789587   0.2077937  )
        10           F   tau(  10) = (   1.1218449   0.9142192   0.4643069  )

   Crystallographic axes

     site n.     atom                  positions (cryst. coord.)
         1           Li  tau(   1) = (  0.7025840  0.7025840  0.7025840  )
         2           Li  tau(   2) = (  0.2974160  0.2974160  0.2974160  )
         3           Ni  tau(   3) = (  0.0000000  0.0000000  0.0000000  )
         4           Ni  tau(   4) = (  0.5000000  0.5000000  0.5000000  )
         5           F   tau(   5) = (  0.7290380  0.1082960  0.3945460  )
         6           F   tau(   6) = (  0.1082960  0.3945460  0.7290380  )
         7           F   tau(   7) = (  0.3945460  0.7290380  0.1082960  )
         8           F   tau(   8) = (  0.6054540  0.2709620  0.8917040  )
         9           F   tau(   9) = (  0.8917040  0.6054540  0.2709620  )
        10           F   tau(  10) = (  0.2709620  0.8917040  0.6054540  )

     number of k points=    14
                       cart. coord. in units 2pi/alat
        k(    1) = (   0.0000000   0.0000000   0.0000000), wk =   0.0740741
        k(    2) = (   0.0000000   0.0000000   0.4346651), wk =   0.1481481
        k(    3) = (   0.0000000   0.4051211  -0.1575139), wk =   0.1481481
        k(    4) = (   0.0000000   0.4051211   0.2771512), wk =   0.1481481
        k(    5) = (   0.0000000   0.4051211  -0.5921790), wk =   0.1481481
        k(    6) = (   0.3333333  -0.2302433  -0.1575139), wk =   0.1481481
        k(    7) = (   0.3333333  -0.2302433   0.2771512), wk =   0.1481481
        k(    8) = (   0.3333333  -0.2302433  -0.5921790), wk =   0.1481481
        k(    9) = (   0.3333333   0.1748778  -0.3150278), wk =   0.1481481
        k(   10) = (   0.3333333   0.1748778   0.1196373), wk =   0.1481481
        k(   11) = (   0.3333333   0.1748778  -0.7496929), wk =   0.1481481
        k(   12) = (   0.3333333  -0.6353644  -0.0000000), wk =   0.1481481
        k(   13) = (   0.3333333  -0.6353644   0.4346651), wk =   0.1481481
        k(   14) = (   0.3333333  -0.6353644  -0.4346651), wk =   0.1481481

                       cryst. coord.
        k(    1) = (   0.0000000   0.0000000   0.0000000), wk =   0.0740741
        k(    2) = (   0.0000000   0.0000000   0.3333333), wk =   0.1481481
        k(    3) = (   0.0000000   0.3333333   0.0000000), wk =   0.1481481
        k(    4) = (   0.0000000   0.3333333   0.3333333), wk =   0.1481481
        k(    5) = (   0.0000000   0.3333333  -0.3333333), wk =   0.1481481
        k(    6) = (   0.3333333  -0.0000000   0.0000000), wk =   0.1481481
        k(    7) = (   0.3333333  -0.0000000   0.3333333), wk =   0.1481481
        k(    8) = (   0.3333333  -0.0000000  -0.3333333), wk =   0.1481481
        k(    9) = (   0.3333333   0.3333333  -0.0000000), wk =   0.1481481
        k(   10) = (   0.3333333   0.3333333   0.3333333), wk =   0.1481481
        k(   11) = (   0.3333333   0.3333333  -0.3333333), wk =   0.1481481
        k(   12) = (   0.3333333  -0.3333333   0.0000000), wk =   0.1481481
        k(   13) = (   0.3333333  -0.3333333   0.3333333), wk =   0.1481481
        k(   14) = (   0.3333333  -0.3333333  -0.3333333), wk =   0.1481481

     Dense  grid:    45283 G-vectors     FFT dimensions: (  54,  54,  54)

     Smooth grid:    15967 G-vectors     FFT dimensions: (  40,  40,  40)

     Dynamical RAM for                 wfc:       0.49 MB

     Dynamical RAM for     wfc (w. buffer):       3.91 MB

     Dynamical RAM for           str. fact:       0.52 MB

     Dynamical RAM for           local pot:       0.00 MB

     Dynamical RAM for          nlocal pot:       0.78 MB

     Dynamical RAM for                qrad:       3.73 MB

     Dynamical RAM for          rho,v,vnew:       1.45 MB

     Dynamical RAM for               rhoin:       0.48 MB

     Dynamical RAM for            rho*nmix:       2.76 MB

     Dynamical RAM for           G-vectors:       0.68 MB

     Dynamical RAM for          h,s,v(r/c):       0.19 MB

     Dynamical RAM for          <psi|beta>:       0.10 MB

     Dynamical RAM for                 psi:       0.98 MB

     Dynamical RAM for                hpsi:       0.98 MB

     Dynamical RAM for                spsi:       0.98 MB

     Dynamical RAM for      wfcinit/wfcrot:       1.07 MB

     Dynamical RAM for           addusdens:      16.67 MB

     Estimated static dynamical RAM per process >      13.80 MB

     Estimated max dynamical RAM per process >      33.23 MB

     Estimated total dynamical RAM >     254.79 MB

     Check: negative core charge=   -0.000005

     Initial potential from superposition of free atoms

     starting charge      79.0985, renormalised to      84.0000
     Starting wfcs are   60 randomized atomic wfcs +    4 random wfcs

     total cpu time spent up to now is        1.6 secs

     Self-consistent Calculation

     iteration #  1     ecut=    30.00 Ry     beta= 0.70
     Davidson diagonalization with overlap

---- Real-time Memory Report at c_bands before calling an iterative solver
           185 MiB given to the printing process from OS
             0 MiB allocation reported by mallinfo(arena+hblkhd)
        141411 MiB available memory on the node where the printing process lives
------------------
     ethr =  1.00E-02,  avg # of iterations =  5.1

     total cpu time spent up to now is        3.0 secs

     total energy              =    -959.55084363 Ry
     estimated scf accuracy    <      63.06347516 Ry

     iteration #  2     ecut=    30.00 Ry     beta= 0.70
     Davidson diagonalization with overlap

---- Real-time Memory Report at c_bands before calling an iterative solver
           217 MiB given to the printing process from OS
             0 MiB allocation reported by mallinfo(arena+hblkhd)
        141281 MiB available memory on the node where the printing process lives
------------------
     ethr =  1.00E-02,  avg # of iterations =  3.0

     total cpu time spent up to now is        4.5 secs

     total energy              =    -993.37762484 Ry
     estimated scf accuracy    <     182.79818004 Ry

     iteration #  3     ecut=    30.00 Ry     beta= 0.70
     Davidson diagonalization with overlap

---- Real-time Memory Report at c_bands before calling an iterative solver
           218 MiB given to the printing process from OS
             0 MiB allocation reported by mallinfo(arena+hblkhd)
        141272 MiB available memory on the node where the printing process lives
------------------
     ethr =  1.00E-02,  avg # of iterations =  3.3

     total cpu time spent up to now is        5.3 secs

     total energy              =   -1008.20159626 Ry
     estimated scf accuracy    <      25.31142121 Ry

     iteration #  4     ecut=    30.00 Ry     beta= 0.70
     Davidson diagonalization with overlap

---- Real-time Memory Report at c_bands before calling an iterative solver
           218 MiB given to the printing process from OS
             0 MiB allocation reported by mallinfo(arena+hblkhd)
        141264 MiB available memory on the node where the printing process lives
------------------
     ethr =  1.00E-02,  avg # of iterations =  2.0

     total cpu time spent up to now is        5.9 secs

     total energy              =   -1007.74201091 Ry
     estimated scf accuracy    <      10.24396684 Ry

     iteration #  5     ecut=    30.00 Ry     beta= 0.70
     Davidson diagonalization with overlap

---- Real-time Memory Report at c_bands before calling an iterative solver
           218 MiB given to the printing process from OS
             0 MiB allocation reported by mallinfo(arena+hblkhd)
        141268 MiB available memory on the node where the printing process lives
------------------
     ethr =  1.00E-02,  avg # of iterations =  1.1

     total cpu time spent up to now is        6.5 secs

     total energy              =   -1007.89827748 Ry
     estimated scf accuracy    <       3.64429185 Ry

     iteration #  6     ecut=    30.00 Ry     beta= 0.70
     Davidson diagonalization with overlap

---- Real-time Memory Report at c_bands before calling an iterative solver
           218 MiB given to the printing process from OS
             0 MiB allocation reported by mallinfo(arena+hblkhd)
        141269 MiB available memory on the node where the printing process lives
------------------
     ethr =  4.34E-03,  avg # of iterations =  1.1

     total cpu time spent up to now is        7.0 secs

     total energy              =   -1007.91754481 Ry
     estimated scf accuracy    <       3.40510733 Ry

     iteration #  7     ecut=    30.00 Ry     beta= 0.70
     Davidson diagonalization with overlap

---- Real-time Memory Report at c_bands before calling an iterative solver
           218 MiB given to the printing process from OS
             0 MiB allocation reported by mallinfo(arena+hblkhd)
        141269 MiB available memory on the node where the printing process lives
------------------
     ethr =  4.05E-03,  avg # of iterations =  1.0

     total cpu time spent up to now is        7.6 secs

     total energy              =   -1007.89187058 Ry
     estimated scf accuracy    <       3.32580647 Ry

     iteration #  8     ecut=    30.00 Ry     beta= 0.70
     Davidson diagonalization with overlap

---- Real-time Memory Report at c_bands before calling an iterative solver
           218 MiB given to the printing process from OS
             0 MiB allocation reported by mallinfo(arena+hblkhd)
        141266 MiB available memory on the node where the printing process lives
------------------
     ethr =  3.96E-03,  avg # of iterations =  1.0

     total cpu time spent up to now is        8.1 secs

     total energy              =   -1007.06166447 Ry
     estimated scf accuracy    <       3.19112808 Ry

     iteration #  9     ecut=    30.00 Ry     beta= 0.70
     Davidson diagonalization with overlap

---- Real-time Memory Report at c_bands before calling an iterative solver
           218 MiB given to the printing process from OS
             0 MiB allocation reported by mallinfo(arena+hblkhd)
        141266 MiB available memory on the node where the printing process lives
------------------
     ethr =  3.80E-03,  avg # of iterations =  1.0

     total cpu time spent up to now is        8.7 secs

     total energy              =   -1007.39501198 Ry
     estimated scf accuracy    <       2.20206650 Ry

     iteration # 10     ecut=    30.00 Ry     beta= 0.70
     Davidson diagonalization with overlap

---- Real-time Memory Report at c_bands before calling an iterative solver
           218 MiB given to the printing process from OS
             0 MiB allocation reported by mallinfo(arena+hblkhd)
        141267 MiB available memory on the node where the printing process lives
------------------
     ethr =  2.62E-03,  avg # of iterations =  1.0

     total cpu time spent up to now is        9.2 secs

     total energy              =   -1007.31874657 Ry
     estimated scf accuracy    <       1.67712364 Ry

     iteration # 11     ecut=    30.00 Ry     beta= 0.70
     Davidson diagonalization with overlap

---- Real-time Memory Report at c_bands before calling an iterative solver
           218 MiB given to the printing process from OS
             0 MiB allocation reported by mallinfo(arena+hblkhd)
        141266 MiB available memory on the node where the printing process lives
------------------
     ethr =  2.00E-03,  avg # of iterations =  1.0

     total cpu time spent up to now is        9.7 secs

     total energy              =   -1007.35621311 Ry
     estimated scf accuracy    <       1.16511262 Ry

     iteration # 12     ecut=    30.00 Ry     beta= 0.70
     Davidson diagonalization with overlap

---- Real-time Memory Report at c_bands before calling an iterative solver
           218 MiB given to the printing process from OS
             0 MiB allocation reported by mallinfo(arena+hblkhd)
        141268 MiB available memory on the node where the printing process lives
------------------
     ethr =  1.39E-03,  avg # of iterations =  1.0

     total cpu time spent up to now is       10.3 secs

     total energy              =   -1007.28554326 Ry
     estimated scf accuracy    <       1.42807410 Ry

     iteration # 13     ecut=    30.00 Ry     beta= 0.70
     Davidson diagonalization with overlap

---- Real-time Memory Report at c_bands before calling an iterative solver
           218 MiB given to the printing process from OS
             0 MiB allocation reported by mallinfo(arena+hblkhd)
        141268 MiB available memory on the node where the printing process lives
------------------
     ethr =  1.39E-03,  avg # of iterations =  1.0

     total cpu time spent up to now is       10.8 secs

     total energy              =   -1007.37539413 Ry
     estimated scf accuracy    <       1.88707433 Ry

     iteration # 14     ecut=    30.00 Ry     beta= 0.70
     Davidson diagonalization with overlap

---- Real-time Memory Report at c_bands before calling an iterative solver
           218 MiB given to the printing process from OS
             0 MiB allocation reported by mallinfo(arena+hblkhd)
        141268 MiB available memory on the node where the printing process lives
------------------
     ethr =  1.39E-03,  avg # of iterations =  1.0

     total cpu time spent up to now is       11.3 secs

     total energy              =   -1007.34929033 Ry
     estimated scf accuracy    <       2.01639427 Ry

     iteration # 15     ecut=    30.00 Ry     beta= 0.70
     Davidson diagonalization with overlap

---- Real-time Memory Report at c_bands before calling an iterative solver
           218 MiB given to the printing process from OS
             0 MiB allocation reported by mallinfo(arena+hblkhd)
        141266 MiB available memory on the node where the printing process lives
------------------
     ethr =  1.39E-03,  avg # of iterations =  1.0

     total cpu time spent up to now is       11.9 secs

     total energy              =   -1007.34027575 Ry
     estimated scf accuracy    <       1.32309634 Ry

     iteration # 16     ecut=    30.00 Ry     beta= 0.70
     Davidson diagonalization with overlap

---- Real-time Memory Report at c_bands before calling an iterative solver
           218 MiB given to the printing process from OS
             0 MiB allocation reported by mallinfo(arena+hblkhd)
        141268 MiB available memory on the node where the printing process lives
------------------
     ethr =  1.39E-03,  avg # of iterations =  1.0

     total cpu time spent up to now is       12.4 secs

     total energy              =   -1007.34029135 Ry
     estimated scf accuracy    <       0.74235663 Ry

     iteration # 17     ecut=    30.00 Ry     beta= 0.70
     Davidson diagonalization with overlap

---- Real-time Memory Report at c_bands before calling an iterative solver
           218 MiB given to the printing process from OS
             0 MiB allocation reported by mallinfo(arena+hblkhd)
        141268 MiB available memory on the node where the printing process lives
------------------
     ethr =  8.84E-04,  avg # of iterations =  1.6

     total cpu time spent up to now is       13.0 secs

     total energy              =   -1007.33703453 Ry
     estimated scf accuracy    <       0.43711655 Ry

     iteration # 18     ecut=    30.00 Ry     beta= 0.70
     Davidson diagonalization with overlap

---- Real-time Memory Report at c_bands before calling an iterative solver
           218 MiB given to the printing process from OS
             0 MiB allocation reported by mallinfo(arena+hblkhd)
        141268 MiB available memory on the node where the printing process lives
------------------
     ethr =  5.20E-04,  avg # of iterations =  1.0

     total cpu time spent up to now is       13.5 secs

     total energy              =   -1007.34464194 Ry
     estimated scf accuracy    <       0.01540853 Ry

     iteration # 19     ecut=    30.00 Ry     beta= 0.70
     Davidson diagonalization with overlap

---- Real-time Memory Report at c_bands before calling an iterative solver
           218 MiB given to the printing process from OS
             0 MiB allocation reported by mallinfo(arena+hblkhd)
        141269 MiB available memory on the node where the printing process lives
------------------
     ethr =  1.83E-05,  avg # of iterations =  7.3

     total cpu time spent up to now is       14.3 secs

     total energy              =   -1007.34625215 Ry
     estimated scf accuracy    <       0.01729094 Ry

     iteration # 20     ecut=    30.00 Ry     beta= 0.70
     Davidson diagonalization with overlap

---- Real-time Memory Report at c_bands before calling an iterative solver
           218 MiB given to the printing process from OS
             0 MiB allocation reported by mallinfo(arena+hblkhd)
        141267 MiB available memory on the node where the printing process lives
------------------
     ethr =  1.83E-05,  avg # of iterations =  1.0

     total cpu time spent up to now is       14.8 secs

     total energy              =   -1007.34632662 Ry
     estimated scf accuracy    <       0.00039425 Ry

     iteration # 21     ecut=    30.00 Ry     beta= 0.70
     Davidson diagonalization with overlap

---- Real-time Memory Report at c_bands before calling an iterative solver
           218 MiB given to the printing process from OS
             0 MiB allocation reported by mallinfo(arena+hblkhd)
        141267 MiB available memory on the node where the printing process lives
------------------
     ethr =  4.69E-07,  avg # of iterations =  4.2

     total cpu time spent up to now is       15.5 secs

     total energy              =   -1007.34633587 Ry
     estimated scf accuracy    <       0.00017568 Ry

     iteration # 22     ecut=    30.00 Ry     beta= 0.70
     Davidson diagonalization with overlap

---- Real-time Memory Report at c_bands before calling an iterative solver
           218 MiB given to the printing process from OS
             0 MiB allocation reported by mallinfo(arena+hblkhd)
        141265 MiB available memory on the node where the printing process lives
------------------
     ethr =  2.09E-07,  avg # of iterations =  1.0

     total cpu time spent up to now is       16.0 secs

     total energy              =   -1007.34633858 Ry
     estimated scf accuracy    <       0.00000760 Ry

     iteration # 23     ecut=    30.00 Ry     beta= 0.70
     Davidson diagonalization with overlap

---- Real-time Memory Report at c_bands before calling an iterative solver
           218 MiB given to the printing process from OS
             0 MiB allocation reported by mallinfo(arena+hblkhd)
        141062 MiB available memory on the node where the printing process lives
------------------
     ethr =  9.05E-09,  avg # of iterations =  1.0

     total cpu time spent up to now is       16.6 secs

     total energy              =   -1007.34633853 Ry
     estimated scf accuracy    <       0.00000505 Ry

     iteration # 24     ecut=    30.00 Ry     beta= 0.70
     Davidson diagonalization with overlap

---- Real-time Memory Report at c_bands before calling an iterative solver
           218 MiB given to the printing process from OS
             0 MiB allocation reported by mallinfo(arena+hblkhd)
        140973 MiB available memory on the node where the printing process lives
------------------
     ethr =  6.01E-09,  avg # of iterations =  1.0

     total cpu time spent up to now is       17.1 secs

     End of self-consistent calculation

          k = 0.0000 0.0000 0.0000 (  2019 PWs)   bands (ev):

   -97.8477 -97.8346 -58.2436 -58.2435 -58.2277 -58.1495 -58.1494 -58.0796
   -38.9355 -38.9251 -18.3534 -17.7482 -17.7300 -17.7300 -17.7095 -17.7094
    -1.6969  -0.6805  -0.6804  -0.6041  -0.6041  -0.4138  -0.2968  -0.2968
    -0.2228   0.6543   0.7620   1.3509   1.3509   1.4652   1.4652   1.7402
     1.7402   1.7765   4.2674   4.2674   4.2885   4.5349   4.5349   4.8244
     5.1236   5.1236   6.2090   6.2090   8.8265  13.8413  15.2991  15.8606
    15.9974  16.0227  16.0227  16.7995  16.7995  17.5414  17.5414  17.5512
    18.1415  19.1374  19.1375  21.8126  21.8126  22.1766  22.2166  26.2671

     occupation numbers 
     1.0000   1.0000   1.0000   1.0000   1.0000   1.0000   1.0000   1.0000
     1.0000   1.0000   1.0000   1.0000   1.0000   1.0000   1.0000   1.0000
     1.0000   1.0000   1.0000   1.0000   1.0000   1.0000   1.0000   1.0000
     1.0000   1.0000   1.0000   1.0000   1.0000   1.0000   1.0000   1.0000
     1.0000   1.0000   1.0000   1.0000   1.0000   1.0000   1.0000   1.0000
     1.0000   1.0000   0.0000   0.0000   0.0000   0.0000   0.0000   0.0000
     0.0000   0.0000   0.0000   0.0000   0.0000   0.0000   0.0000   0.0000
     0.0000   0.0000   0.0000   0.0000   0.0000   0.0000   0.0000   0.0000

          k = 0.0000 0.0000 0.4347 (  1998 PWs)   bands (ev):

   -97.8458 -97.8347 -58.2394 -58.2390 -58.2252 -58.1480 -58.1459 -58.0778
   -38.9327 -38.9272 -18.2092 -17.9059 -17.7773 -17.7447 -17.6856 -17.6735
    -1.5168  -1.0159  -0.7275  -0.6224  -0.3696  -0.2535  -0.1581   0.0124
     0.1370   0.6339   0.7032   0.8349   1.2093   1.3112   1.3693   1.5572
     1.6453   1.6827   4.4138   4.4475   4.4790   4.5975   4.6148   4.7053
     5.2457   5.3157   5.8534   5.8771  10.1623  12.8803  14.4656  14.5427
    15.3582  16.0138  16.1240  16.5655  17.1477  17.9271  17.9552  19.2067
    19.5599  19.8524  20.5931  21.0983  21.7399  21.7663  22.4916  23.8702

     occupation numbers 
     1.0000   1.0000   1.0000   1.0000   1.0000   1.0000   1.0000   1.0000
     1.0000   1.0000   1.0000   1.0000   1.0000   1.0000   1.0000   1.0000
     1.0000   1.0000   1.0000   1.0000   1.0000   1.0000   1.0000   1.0000
     1.0000   1.0000   1.0000   1.0000   1.0000   1.0000   1.0000   1.0000
     1.0000   1.0000   1.0000   1.0000   1.0000   1.0000   1.0000   1.0000
     1.0000   1.0000   0.0000   0.0000   0.0000   0.0000   0.0000   0.0000
     0.0000   0.0000   0.0000   0.0000   0.0000   0.0000   0.0000   0.0000
     0.0000   0.0000   0.0000   0.0000   0.0000   0.0000   0.0000   0.0000

          k = 0.0000 0.4051-0.1575 (  1998 PWs)   bands (ev):

   -97.8458 -97.8347 -58.2393 -58.2391 -58.2252 -58.1479 -58.1460 -58.0778
   -38.9327 -38.9272 -18.2092 -17.9059 -17.7773 -17.7448 -17.6856 -17.6735
    -1.5168  -1.0159  -0.7275  -0.6224  -0.3696  -0.2535  -0.1582   0.0124
     0.1370   0.6339   0.7032   0.8349   1.2093   1.3112   1.3693   1.5572
     1.6453   1.6827   4.4138   4.4475   4.4791   4.5975   4.6148   4.7053
     5.2457   5.3157   5.8534   5.8771  10.1623  12.8803  14.4656  14.5427
    15.3582  16.0138  16.1240  16.5655  17.1477  17.9271  17.9552  19.2067
    19.5599  19.8524  20.5931  21.0983  21.7400  21.7663  22.4916  23.8703

     occupation numbers 
     1.0000   1.0000   1.0000   1.0000   1.0000   1.0000   1.0000   1.0000
     1.0000   1.0000   1.0000   1.0000   1.0000   1.0000   1.0000   1.0000
     1.0000   1.0000   1.0000   1.0000   1.0000   1.0000   1.0000   1.0000
     1.0000   1.0000   1.0000   1.0000   1.0000   1.0000   1.0000   1.0000
     1.0000   1.0000   1.0000   1.0000   1.0000   1.0000   1.0000   1.0000
     1.0000   1.0000   0.0000   0.0000   0.0000   0.0000   0.0000   0.0000
     0.0000   0.0000   0.0000   0.0000   0.0000   0.0000   0.0000   0.0000
     0.0000   0.0000   0.0000   0.0000   0.0000   0.0000   0.0000   0.0000

          k = 0.0000 0.4051 0.2772 (  2011 PWs)   bands (ev):

   -97.8466 -97.8360 -58.2433 -58.2423 -58.2261 -58.1511 -58.1509 -58.0793
   -38.9332 -38.9274 -18.1810 -17.8622 -17.7990 -17.7810 -17.7110 -17.6680
    -1.5662  -1.0435  -0.6013  -0.5809  -0.4099  -0.3620   0.0263   0.1537
     0.3009   0.6349   0.7763   0.8036   0.9910   1.1373   1.4503   1.5123
     1.5542   1.6272   4.2539   4.3587   4.4320   4.5619   4.6538   4.7540
     5.1462   5.4350   5.5118   6.2021  10.4954  13.6796  13.8070  14.2002
    14.3700  15.6024  17.1845  17.5266  17.5846  17.9250  18.2850  18.7947
    19.0311  19.6817  20.3562  21.0507  21.4764  21.9490  22.9846  23.2004

     occupation numbers 
     1.0000   1.0000   1.0000   1.0000   1.0000   1.0000   1.0000   1.0000
     1.0000   1.0000   1.0000   1.0000   1.0000   1.0000   1.0000   1.0000
     1.0000   1.0000   1.0000   1.0000   1.0000   1.0000   1.0000   1.0000
     1.0000   1.0000   1.0000   1.0000   1.0000   1.0000   1.0000   1.0000
     1.0000   1.0000   1.0000   1.0000   1.0000   1.0000   1.0000   1.0000
     1.0000   1.0000   0.0000   0.0000   0.0000   0.0000   0.0000   0.0000
     0.0000   0.0000   0.0000   0.0000   0.0000   0.0000   0.0000   0.0000
     0.0000   0.0000   0.0000   0.0000   0.0000   0.0000   0.0000   0.0000

          k = 0.0000 0.4051-0.5922 (  1996 PWs)   bands (ev):

   -97.8456 -97.8349 -58.2408 -58.2364 -58.2258 -58.1479 -58.1449 -58.0796
   -38.9300 -38.9299 -18.0375 -17.9765 -17.9035 -17.7162 -17.7112 -17.6619
    -1.3527  -1.2594  -0.7119  -0.4195  -0.2856  -0.2485  -0.0528   0.0731
     0.1923   0.7103   0.7613   0.8494   1.0474   1.0984   1.3312   1.4466
     1.5559   1.6074   4.3617   4.4416   4.4819   4.5527   4.6808   4.7336
     5.2401   5.2798   5.7829   5.8945  11.7938  12.0622  13.1902  14.1961
    14.7230  16.2614  16.8530  16.9572  17.7150  18.0222  18.1646  19.3215
    19.6162  19.7308  20.7901  21.0582  22.1334  22.2333  22.3558  22.5328

     occupation numbers 
     1.0000   1.0000   1.0000   1.0000   1.0000   1.0000   1.0000   1.0000
     1.0000   1.0000   1.0000   1.0000   1.0000   1.0000   1.0000   1.0000
     1.0000   1.0000   1.0000   1.0000   1.0000   1.0000   1.0000   1.0000
     1.0000   1.0000   1.0000   1.0000   1.0000   1.0000   1.0000   1.0000
     1.0000   1.0000   1.0000   1.0000   1.0000   1.0000   1.0000   1.0000
     1.0000   1.0000   0.0000   0.0000   0.0000   0.0000   0.0000   0.0000
     0.0000   0.0000   0.0000   0.0000   0.0000   0.0000   0.0000   0.0000
     0.0000   0.0000   0.0000   0.0000   0.0000   0.0000   0.0000   0.0000

          k = 0.3333-0.2302-0.1575 (  1998 PWs)   bands (ev):

   -97.8458 -97.8347 -58.2393 -58.2390 -58.2252 -58.1479 -58.1460 -58.0778
   -38.9327 -38.9272 -18.2092 -17.9059 -17.7773 -17.7447 -17.6856 -17.6735
    -1.5168  -1.0159  -0.7275  -0.6224  -0.3696  -0.2535  -0.1582   0.0124
     0.1370   0.6339   0.7032   0.8349   1.2093   1.3112   1.3693   1.5572
     1.6453   1.6827   4.4138   4.4475   4.4791   4.5975   4.6148   4.7053
     5.2457   5.3157   5.8534   5.8771  10.1623  12.8803  14.4656  14.5427
    15.3582  16.0138  16.1241  16.5655  17.1477  17.9271  17.9552  19.2067
    19.5599  19.8523  20.5931  21.0983  21.7399  21.7663  22.4916  23.8702

     occupation numbers 
     1.0000   1.0000   1.0000   1.0000   1.0000   1.0000   1.0000   1.0000
     1.0000   1.0000   1.0000   1.0000   1.0000   1.0000   1.0000   1.0000
     1.0000   1.0000   1.0000   1.0000   1.0000   1.0000   1.0000   1.0000
     1.0000   1.0000   1.0000   1.0000   1.0000   1.0000   1.0000   1.0000
     1.0000   1.0000   1.0000   1.0000   1.0000   1.0000   1.0000   1.0000
     1.0000   1.0000   0.0000   0.0000   0.0000   0.0000   0.0000   0.0000
     0.0000   0.0000   0.0000   0.0000   0.0000   0.0000   0.0000   0.0000
     0.0000   0.0000   0.0000   0.0000   0.0000   0.0000   0.0000   0.0000

          k = 0.3333-0.2302 0.2772 (  2011 PWs)   bands (ev):

   -97.8466 -97.8360 -58.2433 -58.2422 -58.2261 -58.1511 -58.1509 -58.0793
   -38.9332 -38.9274 -18.1810 -17.8622 -17.7990 -17.7811 -17.7110 -17.6680
    -1.5662  -1.0435  -0.6013  -0.5809  -0.4099  -0.3619   0.0263   0.1538
     0.3009   0.6349   0.7763   0.8036   0.9910   1.1373   1.4503   1.5123
     1.5542   1.6272   4.2539   4.3587   4.4319   4.5619   4.6538   4.7540
     5.1462   5.4350   5.5118   6.2021  10.4954  13.6796  13.8070  14.2002
    14.3700  15.6024  17.1845  17.5266  17.5846  17.9250  18.2850  18.7947
    19.0311  19.6817  20.3562  21.0507  21.4764  21.9490  22.9846  23.2002

     occupation numbers 
     1.0000   1.0000   1.0000   1.0000   1.0000   1.0000   1.0000   1.0000
     1.0000   1.0000   1.0000   1.0000   1.0000   1.0000   1.0000   1.0000
     1.0000   1.0000   1.0000   1.0000   1.0000   1.0000   1.0000   1.0000
     1.0000   1.0000   1.0000   1.0000   1.0000   1.0000   1.0000   1.0000
     1.0000   1.0000   1.0000   1.0000   1.0000   1.0000   1.0000   1.0000
     1.0000   1.0000   0.0000   0.0000   0.0000   0.0000   0.0000   0.0000
     0.0000   0.0000   0.0000   0.0000   0.0000   0.0000   0.0000   0.0000
     0.0000   0.0000   0.0000   0.0000   0.0000   0.0000   0.0000   0.0000

          k = 0.3333-0.2302-0.5922 (  1996 PWs)   bands (ev):

   -97.8456 -97.8349 -58.2409 -58.2364 -58.2258 -58.1478 -58.1450 -58.0796
   -38.9300 -38.9299 -18.0375 -17.9765 -17.9035 -17.7162 -17.7112 -17.6619
    -1.3527  -1.2594  -0.7119  -0.4195  -0.2856  -0.2485  -0.0528   0.0731
     0.1923   0.7103   0.7613   0.8494   1.0474   1.0984   1.3312   1.4467
     1.5559   1.6074   4.3617   4.4416   4.4819   4.5527   4.6808   4.7337
     5.2401   5.2798   5.7829   5.8945  11.7938  12.0622  13.1902  14.1961
    14.7230  16.2614  16.8530  16.9572  17.7150  18.0222  18.1646  19.3215
    19.6162  19.7308  20.7901  21.0582  22.1334  22.2333  22.3558  22.5328

     occupation numbers 
     1.0000   1.0000   1.0000   1.0000   1.0000   1.0000   1.0000   1.0000
     1.0000   1.0000   1.0000   1.0000   1.0000   1.0000   1.0000   1.0000
     1.0000   1.0000   1.0000   1.0000   1.0000   1.0000   1.0000   1.0000
     1.0000   1.0000   1.0000   1.0000   1.0000   1.0000   1.0000   1.0000
     1.0000   1.0000   1.0000   1.0000   1.0000   1.0000   1.0000   1.0000
     1.0000   1.0000   0.0000   0.0000   0.0000   0.0000   0.0000   0.0000
     0.0000   0.0000   0.0000   0.0000   0.0000   0.0000   0.0000   0.0000
     0.0000   0.0000   0.0000   0.0000   0.0000   0.0000   0.0000   0.0000

          k = 0.3333 0.1749-0.3150 (  2011 PWs)   bands (ev):

   -97.8466 -97.8360 -58.2433 -58.2423 -58.2261 -58.1511 -58.1509 -58.0793
   -38.9332 -38.9274 -18.1810 -17.8622 -17.7990 -17.7810 -17.7110 -17.6680
    -1.5662  -1.0435  -0.6013  -0.5809  -0.4099  -0.3620   0.0263   0.1538
     0.3009   0.6349   0.7763   0.8036   0.9910   1.1373   1.4503   1.5123
     1.5542   1.6271   4.2539   4.3587   4.4319   4.5619   4.6538   4.7540
     5.1462   5.4350   5.5118   6.2021  10.4954  13.6796  13.8070  14.2002
    14.3700  15.6024  17.1845  17.5266  17.5846  17.9250  18.2850  18.7947
    19.0311  19.6817  20.3562  21.0507  21.4764  21.9490  22.9846  23.2002

     occupation numbers 
     1.0000   1.0000   1.0000   1.0000   1.0000   1.0000   1.0000   1.0000
     1.0000   1.0000   1.0000   1.0000   1.0000   1.0000   1.0000   1.0000
     1.0000   1.0000   1.0000   1.0000   1.0000   1.0000   1.0000   1.0000
     1.0000   1.0000   1.0000   1.0000   1.0000   1.0000   1.0000   1.0000
     1.0000   1.0000   1.0000   1.0000   1.0000   1.0000   1.0000   1.0000
     1.0000   1.0000   0.0000   0.0000   0.0000   0.0000   0.0000   0.0000
     0.0000   0.0000   0.0000   0.0000   0.0000   0.0000   0.0000   0.0000
     0.0000   0.0000   0.0000   0.0000   0.0000   0.0000   0.0000   0.0000

          k = 0.3333 0.1749 0.1196 (  2029 PWs)   bands (ev):

   -97.8483 -97.8375 -58.2464 -58.2463 -58.2326 -58.1550 -58.1549 -58.0850
   -38.9356 -38.9260 -18.2298 -17.8863 -17.7333 -17.7333 -17.7080 -17.7080
    -1.2953  -0.7260  -0.7260  -0.6091  -0.4989  -0.4989  -0.1180   0.0004
     0.0004   0.6821   0.8448   0.8792   0.8792   1.0485   1.4484   1.4484
     1.7027   1.7027   4.4422   4.4422   4.4701   4.6009   4.6009   4.6684
     5.2648   5.2648   5.8330   5.8330   9.9661  12.2387  15.5129  15.9057
    15.9057  15.9243  16.4488  16.4488  16.7707  18.0380  18.0380  18.0981
    18.5071  19.9215  19.9215  20.8786  21.9427  21.9427  22.3024  23.1150

     occupation numbers 
     1.0000   1.0000   1.0000   1.0000   1.0000   1.0000   1.0000   1.0000
     1.0000   1.0000   1.0000   1.0000   1.0000   1.0000   1.0000   1.0000
     1.0000   1.0000   1.0000   1.0000   1.0000   1.0000   1.0000   1.0000
     1.0000   1.0000   1.0000   1.0000   1.0000   1.0000   1.0000   1.0000
     1.0000   1.0000   1.0000   1.0000   1.0000   1.0000   1.0000   1.0000
     1.0000   1.0000   0.0000   0.0000   0.0000   0.0000   0.0000   0.0000
     0.0000   0.0000   0.0000   0.0000   0.0000   0.0000   0.0000   0.0000
     0.0000   0.0000   0.0000   0.0000   0.0000   0.0000   0.0000   0.0000

          k = 0.3333 0.1749-0.7497 (  1994 PWs)   bands (ev):

   -97.8452 -97.8346 -58.2392 -58.2352 -58.2260 -58.1478 -58.1432 -58.0792
   -38.9328 -38.9270 -18.0670 -17.9821 -17.8122 -17.7930 -17.6916 -17.6608
    -1.3036  -1.2091  -0.7210  -0.3956  -0.3615  -0.1796  -0.0001   0.1262
     0.1945   0.6552   0.7845   0.8947   0.9675   1.0809   1.1790   1.4158
     1.5206   1.5867   4.3773   4.4790   4.5064   4.5730   4.6806   4.7095
     5.2637   5.2930   5.7733   5.8384  11.5606  12.1145  13.3384  14.3089
    15.3161  15.9582  16.6226  17.3824  17.6142  18.0535  18.6001  19.3153
    19.6113  20.0007  20.2454  20.9347  21.2789  21.9634  22.1658  22.7658

     occupation numbers 
     1.0000   1.0000   1.0000   1.0000   1.0000   1.0000   1.0000   1.0000
     1.0000   1.0000   1.0000   1.0000   1.0000   1.0000   1.0000   1.0000
     1.0000   1.0000   1.0000   1.0000   1.0000   1.0000   1.0000   1.0000
     1.0000   1.0000   1.0000   1.0000   1.0000   1.0000   1.0000   1.0000
     1.0000   1.0000   1.0000   1.0000   1.0000   1.0000   1.0000   1.0000
     1.0000   1.0000   0.0000   0.0000   0.0000   0.0000   0.0000   0.0000
     0.0000   0.0000   0.0000   0.0000   0.0000   0.0000   0.0000   0.0000
     0.0000   0.0000   0.0000   0.0000   0.0000   0.0000   0.0000   0.0000

          k = 0.3333-0.6354-0.0000 (  1996 PWs)   bands (ev):

   -97.8456 -97.8349 -58.2408 -58.2365 -58.2257 -58.1478 -58.1450 -58.0796
   -38.9300 -38.9299 -18.0375 -17.9765 -17.9035 -17.7162 -17.7112 -17.6619
    -1.3527  -1.2594  -0.7120  -0.4195  -0.2856  -0.2485  -0.0528   0.0731
     0.1923   0.7103   0.7613   0.8494   1.0474   1.0984   1.3312   1.4467
     1.5559   1.6074   4.3618   4.4415   4.4819   4.5527   4.6808   4.7337
     5.2401   5.2798   5.7829   5.8945  11.7938  12.0622  13.1902  14.1961
    14.7230  16.2614  16.8530  16.9572  17.7150  18.0222  18.1646  19.3215
    19.6162  19.7308  20.7901  21.0582  22.1334  22.2333  22.3558  22.5328

     occupation numbers 
     1.0000   1.0000   1.0000   1.0000   1.0000   1.0000   1.0000   1.0000
     1.0000   1.0000   1.0000   1.0000   1.0000   1.0000   1.0000   1.0000
     1.0000   1.0000   1.0000   1.0000   1.0000   1.0000   1.0000   1.0000
     1.0000   1.0000   1.0000   1.0000   1.0000   1.0000   1.0000   1.0000
     1.0000   1.0000   1.0000   1.0000   1.0000   1.0000   1.0000   1.0000
     1.0000   1.0000   0.0000   0.0000   0.0000   0.0000   0.0000   0.0000
     0.0000   0.0000   0.0000   0.0000   0.0000   0.0000   0.0000   0.0000
     0.0000   0.0000   0.0000   0.0000   0.0000   0.0000   0.0000   0.0000

          k = 0.3333-0.6354 0.4347 (  1994 PWs)   bands (ev):

   -97.8452 -97.8346 -58.2391 -58.2353 -58.2260 -58.1477 -58.1433 -58.0792
   -38.9328 -38.9270 -18.0670 -17.9821 -17.8122 -17.7930 -17.6916 -17.6608
    -1.3036  -1.2091  -0.7210  -0.3955  -0.3615  -0.1796  -0.0001   0.1262
     0.1945   0.6552   0.7844   0.8947   0.9675   1.0809   1.1790   1.4158
     1.5206   1.5867   4.3773   4.4790   4.5064   4.5730   4.6806   4.7094
     5.2637   5.2931   5.7733   5.8384  11.5606  12.1145  13.3384  14.3089
    15.3161  15.9582  16.6226  17.3824  17.6142  18.0535  18.6001  19.3153
    19.6113  20.0007  20.2454  20.9347  21.2789  21.9634  22.1658  22.7658

     occupation numbers 
     1.0000   1.0000   1.0000   1.0000   1.0000   1.0000   1.0000   1.0000
     1.0000   1.0000   1.0000   1.0000   1.0000   1.0000   1.0000   1.0000
     1.0000   1.0000   1.0000   1.0000   1.0000   1.0000   1.0000   1.0000
     1.0000   1.0000   1.0000   1.0000   1.0000   1.0000   1.0000   1.0000
     1.0000   1.0000   1.0000   1.0000   1.0000   1.0000   1.0000   1.0000
     1.0000   1.0000   0.0000   0.0000   0.0000   0.0000   0.0000   0.0000
     0.0000   0.0000   0.0000   0.0000   0.0000   0.0000   0.0000   0.0000
     0.0000   0.0000   0.0000   0.0000   0.0000   0.0000   0.0000   0.0000

          k = 0.3333-0.6354-0.4347 (  1994 PWs)   bands (ev):

   -97.8452 -97.8346 -58.2391 -58.2353 -58.2260 -58.1477 -58.1433 -58.0792
   -38.9328 -38.9270 -18.0670 -17.9821 -17.8122 -17.7930 -17.6916 -17.6608
    -1.3036  -1.2091  -0.7210  -0.3955  -0.3616  -0.1796  -0.0001   0.1262
     0.1945   0.6552   0.7845   0.8947   0.9675   1.0809   1.1790   1.4158
     1.5206   1.5867   4.3773   4.4790   4.5065   4.5730   4.6806   4.7094
     5.2637   5.2931   5.7733   5.8383  11.5606  12.1145  13.3384  14.3089
    15.3161  15.9582  16.6226  17.3825  17.6142  18.0535  18.6002  19.3153
    19.6113  20.0007  20.2454  20.9347  21.2789  21.9634  22.1658  22.7658

     occupation numbers 
     1.0000   1.0000   1.0000   1.0000   1.0000   1.0000   1.0000   1.0000
     1.0000   1.0000   1.0000   1.0000   1.0000   1.0000   1.0000   1.0000
     1.0000   1.0000   1.0000   1.0000   1.0000   1.0000   1.0000   1.0000
     1.0000   1.0000   1.0000   1.0000   1.0000   1.0000   1.0000   1.0000
     1.0000   1.0000   1.0000   1.0000   1.0000   1.0000   1.0000   1.0000
     1.0000   1.0000   0.0000   0.0000   0.0000   0.0000   0.0000   0.0000
     0.0000   0.0000   0.0000   0.0000   0.0000   0.0000   0.0000   0.0000
     0.0000   0.0000   0.0000   0.0000   0.0000   0.0000   0.0000   0.0000

     highest occupied, lowest unoccupied level (ev):     5.4350    5.5118

!    total energy              =   -1007.34633825 Ry
     estimated scf accuracy    <       0.00000037 Ry

     The total energy is the sum of the following terms:
     one-electron contribution =    -757.63669916 Ry
     hartree contribution      =     413.78479546 Ry
     xc contribution           =    -134.00216803 Ry
     ewald contribution        =    -529.49226651 Ry

     convergence has been achieved in  24 iterations

     Writing all to output data dir calculations_bands_val/myprefix.save/
 
     init_run     :      3.97s CPU      1.33s WALL (       1 calls)
     electrons    :     57.77s CPU     15.54s WALL (       1 calls)

     Called by init_run:
     wfcinit      :      0.74s CPU      0.19s WALL (       1 calls)
     wfcinit:atom :      0.00s CPU      0.00s WALL (       7 calls)
     wfcinit:wfcr :      0.72s CPU      0.19s WALL (       7 calls)
     potinit      :      1.33s CPU      0.37s WALL (       1 calls)
     hinit0       :      1.71s CPU      0.63s WALL (       1 calls)

     Called by electrons:
     c_bands      :     44.95s CPU     12.00s WALL (      24 calls)
     sum_band     :      9.60s CPU      2.63s WALL (      24 calls)
     v_of_rho     :      1.06s CPU      0.28s WALL (      25 calls)
     v_h          :      0.08s CPU      0.02s WALL (      25 calls)
     v_xc         :      0.98s CPU      0.26s WALL (      25 calls)
     newd         :      1.68s CPU      0.48s WALL (      25 calls)
     mix_rho      :      0.25s CPU      0.07s WALL (      24 calls)

     Called by c_bands:
     init_us_2    :      0.32s CPU      0.09s WALL (     343 calls)
     init_us_2:cp :      0.31s CPU      0.08s WALL (     343 calls)
     cegterg      :     43.00s CPU     11.49s WALL (     168 calls)

     Called by sum_band:
     sum_band:wei :      0.02s CPU      0.01s WALL (      24 calls)
     sum_band:loo :      7.47s CPU      1.96s WALL (      24 calls)
     sum_band:buf :      0.10s CPU      0.03s WALL (     168 calls)
     sum_band:ini :      0.16s CPU      0.04s WALL (     168 calls)
     sum_band:cal :      0.28s CPU      0.07s WALL (     168 calls)
     sum_band:bec :      0.09s CPU      0.02s WALL (     168 calls)
     addusdens    :      1.45s CPU      0.48s WALL (      24 calls)
     addusd:skk   :      0.01s CPU      0.00s WALL (      72 calls)
     addusd:dgemm :      0.24s CPU      0.15s WALL (      72 calls)
     addusd:qvan2 :      1.04s CPU      0.27s WALL (      72 calls)

     Called by *egterg:
     cdiaghg      :      7.61s CPU      2.02s WALL (     482 calls)
     cegterg:over :      1.34s CPU      0.39s WALL (     314 calls)
     cegterg:upda :      0.57s CPU      0.15s WALL (     314 calls)
     cegterg:last :      0.67s CPU      0.18s WALL (     225 calls)
     cdiaghg:chol :      0.52s CPU      0.14s WALL (     482 calls)
     cdiaghg:inve :      0.10s CPU      0.03s WALL (     482 calls)
     cdiaghg:para :      1.33s CPU      0.36s WALL (     964 calls)
     h_psi        :     32.28s CPU      8.60s WALL (     489 calls)
     s_psi        :      0.36s CPU      0.10s WALL (     489 calls)
     g_psi        :      0.04s CPU      0.01s WALL (     314 calls)

     Called by h_psi:
     h_psi:calbec :      0.80s CPU      0.22s WALL (     489 calls)
     vloc_psi     :     30.88s CPU      8.22s WALL (     489 calls)
     add_vuspsi   :      0.51s CPU      0.14s WALL (     489 calls)

     General routines
     calbec       :      1.06s CPU      0.29s WALL (     657 calls)
     fft          :      1.46s CPU      0.39s WALL (     323 calls)
     ffts         :      1.06s CPU      0.30s WALL (      49 calls)
     fftw         :     32.21s CPU      8.57s WALL (   57970 calls)
     interpolate  :      1.10s CPU      0.31s WALL (      25 calls)
 
     Parallel routines
 
     PWSCF        :   1m 3.56s CPU     17.63s WALL

 
   This run was terminated on:  12:22:17   4Jun2023            

=------------------------------------------------------------------------------=
   JOB DONE.
=------------------------------------------------------------------------------=
