
     Program PWSCF v.7.0 starts on  4Jun2023 at 15:16:21 

     This program is part of the open-source Quantum ESPRESSO suite
     for quantum simulation of materials; please cite
         "P. Giannozzi et al., J. Phys.:Condens. Matter 21 395502 (2009);
         "P. Giannozzi et al., J. Phys.:Condens. Matter 29 465901 (2017);
         "P. Giannozzi et al., J. Chem. Phys. 152 154105 (2020);
          URL http://www.quantum-espresso.org", 
     in publications or presentations arising from this work. More details at
     http://www.quantum-espresso.org/quote

     Parallel version (MPI & OpenMP), running on      32 processor cores
     Number of MPI processes:                 8
     Threads/MPI process:                     4

     MPI processes distributed on     1 nodes
     K-points division:     npool     =       2
     R & G space division:  proc/nbgrp/npool/nimage =       4
     142813 MiB available memory on the printing compute node when the environment starts
 
     Reading input from espresso_879.pwi
Warning: card &CELL ignored
Warning: card / ignored

     Current dimensions of program PWSCF are:
     Max number of different atomic species (ntypx) = 10
     Max number of k-points (npk) =  40000
     Max angular momentum in pseudopotentials (lmaxx) =  4
     file Ga.pbe-dn-kjpaw_psl.1.0.0.UPF: wavefunction(s)  4S renormalized
     Message from routine setup:
     using ibrav=0 with symmetry is DISCOURAGED, use correct ibrav instead

     Subspace diagonalization in iterative solution of the eigenvalue problem:
     one sub-group per band group will be used
     scalapack distributed-memory algorithm (size of sub-group:  2*  2 procs)

 
     Parallelization info
     --------------------
     sticks:   dense  smooth     PW     G-vecs:    dense   smooth      PW
     Min         598     297     86                41542    14693    2237
     Max         599     298     88                41543    14698    2238
     Sum        2395    1189    349               166171    58777    8951
 
     Using Slab Decomposition
 


     bravais-lattice index     =            0
     lattice parameter (alat)  =      12.0440  a.u.
     unit-cell volume          =    2647.5059 (a.u.)^3
     number of atoms/cell      =           14
     number of atomic types    =            3
     number of electrons       =       120.00
     number of Kohn-Sham states=           64
     kinetic-energy cutoff     =      30.0000  Ry
     charge density cutoff     =     240.0000  Ry
     scf convergence threshold =      1.0E-06
     mixing beta               =       0.7000
     number of iterations used =            8  plain     mixing
     Exchange-correlation= SLA  PW   PBE  PBE
                           (   1   4   3   4   0   0   0)

     celldm(1)=  12.043964  celldm(2)=   0.000000  celldm(3)=   0.000000
     celldm(4)=   0.000000  celldm(5)=   0.000000  celldm(6)=   0.000000

     crystal axes: (cart. coord. in units of alat)
               a(1) = (   1.000000   0.000000   0.000000 )  
               a(2) = (  -0.505325   0.862929   0.000000 )  
               a(3) = (   0.000000   0.000000   1.756117 )  

     reciprocal axes: (cart. coord. in units 2 pi/alat)
               b(1) = (  1.000000  0.585593  0.000000 )  
               b(2) = (  0.000000  1.158844  0.000000 )  
               b(3) = (  0.000000  0.000000  0.569438 )  


     PseudoPot. # 1 for Sr read from file:
     /home/pragov/projects/rrg-bengioy-ad/pragov/crystal_structure_design/SSSP/Sr_pbe_v1.uspp.F.UPF
     MD5 check sum: 6b418c05fbe9db5448babca5e47b7a5b
     Pseudo is Ultrasoft + core correction, Zval = 10.0
     Generated by new atomic code, or converted to UPF format
     Using radial grid of  883 points,  6 beta functions with: 
                l(1) =   0
                l(2) =   0
                l(3) =   1
                l(4) =   1
                l(5) =   2
                l(6) =   2
     Q(r) pseudized with  6 coefficients,  rinner =    1.400   1.400   1.400
                                                       1.400   1.400

     PseudoPot. # 2 for Ga read from file:
     /home/pragov/projects/rrg-bengioy-ad/pragov/crystal_structure_design/SSSP/Ga.pbe-dn-kjpaw_psl.1.0.0.UPF
     MD5 check sum: a27b4342b1af7e5f338de752e9ed7044
     Pseudo is Projector augmented-wave + core cor, Zval = 13.0
     Generated using "atomic" code by A. Dal Corso  v.5.1
     Shape of augmentation charge: PSQ
     Using radial grid of 1205 points,  6 beta functions with: 
                l(1) =   0
                l(2) =   0
                l(3) =   1
                l(4) =   1
                l(5) =   2
                l(6) =   2
     Q(r) pseudized with 0 coefficients 


     PseudoPot. # 3 for Se read from file:
     /home/pragov/projects/rrg-bengioy-ad/pragov/crystal_structure_design/SSSP/Se_pbe_v1.uspp.F.UPF
     MD5 check sum: 1b3568f3a8ae88f9a2a0ad0698632c85
     Pseudo is Ultrasoft + core correction, Zval =  6.0
     Generated by new atomic code, or converted to UPF format
     Using radial grid of  877 points,  6 beta functions with: 
                l(1) =   0
                l(2) =   0
                l(3) =   1
                l(4) =   1
                l(5) =   2
                l(6) =   2
     Q(r) pseudized with  8 coefficients,  rinner =    1.300   1.300   1.300
                                                       1.300   1.300

     atomic species   valence    mass     pseudopotential
        Sr            10.00    87.62000     Sr( 1.00)
        Ga            13.00    69.72300     Ga( 1.00)
        Se             6.00    78.97100     Se( 1.00)

      4 Sym. Ops., with inversion, found


                                    s                        frac. trans.

      isym =  1     identity                                     

 cryst.   s( 1) = (     1          0          0      )
                  (     0          1          0      )
                  (     0          0          1      )

 cart.    s( 1) = (  1.0000000  0.0000000  0.0000000 )
                  (  0.0000000  1.0000000  0.0000000 )
                  (  0.0000000  0.0000000  1.0000000 )


      isym =  2     180 deg rotation - cart. axis [0,0,1]        

 cryst.   s( 2) = (    -1          0          0      )
                  (     0         -1          0      )
                  (     0          0          1      )

 cart.    s( 2) = ( -1.0000000 -0.0000000  0.0000000 )
                  (  0.0000000 -1.0000000  0.0000000 )
                  (  0.0000000  0.0000000  1.0000000 )


      isym =  3     inversion                                    

 cryst.   s( 3) = (    -1          0          0      )
                  (     0         -1          0      )
                  (     0          0         -1      )

 cart.    s( 3) = ( -1.0000000 -0.0000000  0.0000000 )
                  (  0.0000000 -1.0000000  0.0000000 )
                  (  0.0000000  0.0000000 -1.0000000 )


      isym =  4     inv. 180 deg rotation - cart. axis [0,0,1]   

 cryst.   s( 4) = (     1          0          0      )
                  (     0          1          0      )
                  (     0          0         -1      )

 cart.    s( 4) = (  1.0000000  0.0000000  0.0000000 )
                  (  0.0000000  1.0000000  0.0000000 )
                  (  0.0000000  0.0000000 -1.0000000 )


   Cartesian axes

     site n.     atom                  positions (alat units)
         1           Sr  tau(   1) = (   0.2473375   0.4314646   1.3170879  )
         2           Sr  tau(   2) = (   0.2473375   0.4314646   0.4390293  )
         3           Ga  tau(   3) = (   0.6407304   0.2071263   0.8780586  )
         4           Ga  tau(   4) = (  -0.1460553   0.6558028   0.8780586  )
         5           Ga  tau(   5) = (   0.6397168   0.2053581   0.0000000  )
         6           Ga  tau(   6) = (  -0.1450418   0.6575710   0.0000000  )
         7           Se  tau(   7) = (   0.2554728   0.1605419   0.8780586  )
         8           Se  tau(   8) = (   0.2392022   0.7023872   0.8780586  )
         9           Se  tau(   9) = (   0.4852355   0.5613483   0.0000000  )
        10           Se  tau(  10) = (   0.0094395   0.3015808   0.0000000  )
        11           Se  tau(  11) = (   0.5000000   0.0000000   1.4623259  )
        12           Se  tau(  12) = (   0.7473375   0.4314646   1.1718500  )
        13           Se  tau(  13) = (   0.5000000   0.0000000   0.2937914  )
        14           Se  tau(  14) = (   0.7473375   0.4314646   0.5842672  )

   Crystallographic axes

     site n.     atom                  positions (cryst. coord.)
         1           Sr  tau(   1) = (  0.5000000  0.5000000  0.7500000  )
         2           Sr  tau(   2) = (  0.5000000  0.5000000  0.2500000  )
         3           Ga  tau(   3) = (  0.7620220  0.2400270  0.5000000  )
         4           Ga  tau(   4) = (  0.2379780  0.7599730  0.5000000  )
         5           Ga  tau(   5) = (  0.7599730  0.2379780  0.0000000  )
         6           Ga  tau(   6) = (  0.2400270  0.7620220  0.0000000  )
         7           Se  tau(   7) = (  0.3494850  0.1860430  0.5000000  )
         8           Se  tau(   8) = (  0.6505150  0.8139570  0.5000000  )
         9           Se  tau(   9) = (  0.8139570  0.6505150  0.0000000  )
        10           Se  tau(  10) = (  0.1860430  0.3494850  0.0000000  )
        11           Se  tau(  11) = (  0.5000000  0.0000000  0.8327040  )
        12           Se  tau(  12) = (  1.0000000  0.5000000  0.6672960  )
        13           Se  tau(  13) = (  0.5000000  0.0000000  0.1672960  )
        14           Se  tau(  14) = (  1.0000000  0.5000000  0.3327040  )

     number of k points=    10
                       cart. coord. in units 2pi/alat
        k(    1) = (   0.0000000   0.0000000   0.0000000), wk =   0.0740741
        k(    2) = (   0.0000000   0.0000000   0.1898127), wk =   0.1481481
        k(    3) = (   0.0000000   0.3862812   0.0000000), wk =   0.1481481
        k(    4) = (   0.0000000   0.3862812   0.1898127), wk =   0.2962963
        k(    5) = (   0.3333333   0.1951976   0.0000000), wk =   0.1481481
        k(    6) = (   0.3333333   0.1951976   0.1898127), wk =   0.2962963
        k(    7) = (   0.3333333   0.5814788   0.0000000), wk =   0.1481481
        k(    8) = (   0.3333333   0.5814788   0.1898127), wk =   0.2962963
        k(    9) = (   0.3333333  -0.1910837   0.0000000), wk =   0.1481481
        k(   10) = (   0.3333333  -0.1910837   0.1898127), wk =   0.2962963

                       cryst. coord.
        k(    1) = (   0.0000000   0.0000000   0.0000000), wk =   0.0740741
        k(    2) = (   0.0000000   0.0000000   0.3333333), wk =   0.1481481
        k(    3) = (   0.0000000   0.3333333   0.0000000), wk =   0.1481481
        k(    4) = (   0.0000000   0.3333333   0.3333333), wk =   0.2962963
        k(    5) = (   0.3333333   0.0000000   0.0000000), wk =   0.1481481
        k(    6) = (   0.3333333   0.0000000   0.3333333), wk =   0.2962963
        k(    7) = (   0.3333333   0.3333333   0.0000000), wk =   0.1481481
        k(    8) = (   0.3333333   0.3333333   0.3333333), wk =   0.2962963
        k(    9) = (   0.3333333  -0.3333333   0.0000000), wk =   0.1481481
        k(   10) = (   0.3333333  -0.3333333   0.3333333), wk =   0.2962963

     Dense  grid:   166171 G-vectors     FFT dimensions: (  60,  60, 108)

     Smooth grid:    58777 G-vectors     FFT dimensions: (  45,  45,  75)

     Dynamical RAM for                 wfc:       1.79 MB

     Dynamical RAM for     wfc (w. buffer):      10.76 MB

     Dynamical RAM for           str. fact:       1.90 MB

     Dynamical RAM for           local pot:       0.00 MB

     Dynamical RAM for          nlocal pot:       7.06 MB

     Dynamical RAM for                qrad:       3.73 MB

     Dynamical RAM for          rho,v,vnew:       4.13 MB

     Dynamical RAM for               rhoin:       1.38 MB

     Dynamical RAM for            rho*nmix:      10.14 MB

     Dynamical RAM for           G-vectors:       2.49 MB

     Dynamical RAM for          h,s,v(r/c):       0.19 MB

     Dynamical RAM for          <psi|beta>:       0.25 MB

     Dynamical RAM for                 psi:       3.59 MB

     Dynamical RAM for                hpsi:       3.59 MB

     Dynamical RAM for                spsi:       3.59 MB

     Dynamical RAM for      wfcinit/wfcrot:       5.47 MB

     Dynamical RAM for           addusdens:      61.80 MB

     Estimated static dynamical RAM per process >      37.69 MB

     Estimated max dynamical RAM per process >     109.63 MB

     Estimated total dynamical RAM >     836.48 MB

     Check: negative core charge=   -0.000001

     Initial potential from superposition of free atoms

     starting charge     119.9203, renormalised to     120.0000

     negative rho (up, down):  1.299E-01 0.000E+00
     Starting wfcs are   94 randomized atomic wfcs
     Checking if some PAW data can be deallocated... 
       PAW data deallocated on    6 nodes for type:  2

     total cpu time spent up to now is        2.8 secs

     Self-consistent Calculation

     iteration #  1     ecut=    30.00 Ry     beta= 0.70
     Davidson diagonalization with overlap

---- Real-time Memory Report at c_bands before calling an iterative solver
           229 MiB given to the printing process from OS
             0 MiB allocation reported by mallinfo(arena+hblkhd)
        141927 MiB available memory on the node where the printing process lives
------------------
     ethr =  1.00E-02,  avg # of iterations =  2.0

     Threshold (ethr) on eigenvalues was too large:
     Diagonalizing with lowered threshold

     Davidson diagonalization with overlap

---- Real-time Memory Report at c_bands before calling an iterative solver
           300 MiB given to the printing process from OS
             0 MiB allocation reported by mallinfo(arena+hblkhd)
        141772 MiB available memory on the node where the printing process lives
------------------
     ethr =  4.64E-04,  avg # of iterations =  2.3

     negative rho (up, down):  1.327E-01 0.000E+00

     total cpu time spent up to now is        5.2 secs

     total energy              =   -1601.52068703 Ry
     estimated scf accuracy    <       0.51073850 Ry

     iteration #  2     ecut=    30.00 Ry     beta= 0.70
     Davidson diagonalization with overlap

---- Real-time Memory Report at c_bands before calling an iterative solver
           308 MiB given to the printing process from OS
             0 MiB allocation reported by mallinfo(arena+hblkhd)
        141248 MiB available memory on the node where the printing process lives
------------------
     ethr =  4.26E-04,  avg # of iterations =  3.0

     negative rho (up, down):  1.346E-01 0.000E+00

     total cpu time spent up to now is        6.8 secs

     total energy              =   -1601.65933055 Ry
     estimated scf accuracy    <       0.18588980 Ry

     iteration #  3     ecut=    30.00 Ry     beta= 0.70
     Davidson diagonalization with overlap

---- Real-time Memory Report at c_bands before calling an iterative solver
           326 MiB given to the printing process from OS
             0 MiB allocation reported by mallinfo(arena+hblkhd)
        141138 MiB available memory on the node where the printing process lives
------------------
     ethr =  1.55E-04,  avg # of iterations =  2.0

     negative rho (up, down):  1.357E-01 0.000E+00

     total cpu time spent up to now is        8.2 secs

     total energy              =   -1601.70036107 Ry
     estimated scf accuracy    <       0.00885262 Ry

     iteration #  4     ecut=    30.00 Ry     beta= 0.70
     Davidson diagonalization with overlap

---- Real-time Memory Report at c_bands before calling an iterative solver
           326 MiB given to the printing process from OS
             0 MiB allocation reported by mallinfo(arena+hblkhd)
        141115 MiB available memory on the node where the printing process lives
------------------
     ethr =  7.38E-06,  avg # of iterations =  6.3

     negative rho (up, down):  1.360E-01 0.000E+00

     total cpu time spent up to now is        9.9 secs

     total energy              =   -1601.70320217 Ry
     estimated scf accuracy    <       0.00123466 Ry

     iteration #  5     ecut=    30.00 Ry     beta= 0.70
     Davidson diagonalization with overlap

---- Real-time Memory Report at c_bands before calling an iterative solver
           333 MiB given to the printing process from OS
             0 MiB allocation reported by mallinfo(arena+hblkhd)
        141086 MiB available memory on the node where the printing process lives
------------------
     ethr =  1.03E-06,  avg # of iterations =  4.4

     negative rho (up, down):  1.359E-01 0.000E+00

     total cpu time spent up to now is       11.5 secs

     total energy              =   -1601.70349859 Ry
     estimated scf accuracy    <       0.00006477 Ry

     iteration #  6     ecut=    30.00 Ry     beta= 0.70
     Davidson diagonalization with overlap

---- Real-time Memory Report at c_bands before calling an iterative solver
           333 MiB given to the printing process from OS
             0 MiB allocation reported by mallinfo(arena+hblkhd)
        141082 MiB available memory on the node where the printing process lives
------------------
     ethr =  5.40E-08,  avg # of iterations =  6.6

     negative rho (up, down):  1.359E-01 0.000E+00

     total cpu time spent up to now is       13.8 secs

     total energy              =   -1601.70356623 Ry
     estimated scf accuracy    <       0.00002318 Ry

     iteration #  7     ecut=    30.00 Ry     beta= 0.70
     Davidson diagonalization with overlap

---- Real-time Memory Report at c_bands before calling an iterative solver
           333 MiB given to the printing process from OS
             0 MiB allocation reported by mallinfo(arena+hblkhd)
        141071 MiB available memory on the node where the printing process lives
------------------
     ethr =  1.93E-08,  avg # of iterations =  2.7

     negative rho (up, down):  1.359E-01 0.000E+00

     total cpu time spent up to now is       15.2 secs

     total energy              =   -1601.70357135 Ry
     estimated scf accuracy    <       0.00000470 Ry

     iteration #  8     ecut=    30.00 Ry     beta= 0.70
     Davidson diagonalization with overlap

---- Real-time Memory Report at c_bands before calling an iterative solver
           333 MiB given to the printing process from OS
             0 MiB allocation reported by mallinfo(arena+hblkhd)
        141068 MiB available memory on the node where the printing process lives
------------------
     ethr =  3.92E-09,  avg # of iterations =  3.6

     negative rho (up, down):  1.359E-01 0.000E+00

     total cpu time spent up to now is       16.7 secs

     End of self-consistent calculation

          k = 0.0000 0.0000 0.0000 (  7349 PWs)   bands (ev):

   -29.7903 -29.7901 -11.8205 -11.8042 -11.7981 -11.7923 -11.7889 -11.7816
    -9.7500  -9.7478  -9.7454  -9.7439  -9.6613  -9.6596  -9.6577  -9.6491
    -9.5543  -9.5529  -9.5475  -9.5464  -9.5456  -9.5446  -9.5190  -9.5180
    -9.5084  -9.5068  -9.4663  -9.4653  -8.1530  -7.8540  -6.8701  -6.8685
    -6.8185  -6.4283  -6.4032  -6.3895  -0.8389  -0.6117  -0.3372  -0.2045
     0.6915   1.3839   1.8388   1.9092   1.9985   2.1623   2.1681   2.3489
     2.7481   3.1234   3.5159   3.5486   3.8393   3.8801   3.9568   4.1713
     4.6433   4.6912   4.7449   4.7842   7.0883   7.6878   8.0346   8.5900

     occupation numbers 
     1.0000   1.0000   1.0000   1.0000   1.0000   1.0000   1.0000   1.0000
     1.0000   1.0000   1.0000   1.0000   1.0000   1.0000   1.0000   1.0000
     1.0000   1.0000   1.0000   1.0000   1.0000   1.0000   1.0000   1.0000
     1.0000   1.0000   1.0000   1.0000   1.0000   1.0000   1.0000   1.0000
     1.0000   1.0000   1.0000   1.0000   1.0000   1.0000   1.0000   1.0000
     1.0000   1.0000   1.0000   1.0000   1.0000   1.0000   1.0000   1.0000
     1.0000   1.0000   1.0000   1.0000   1.0000   1.0000   1.0000   1.0000
     1.0000   1.0000   1.0000   1.0000   0.0000   0.0000   0.0000   0.0000

          k = 0.0000 0.0000 0.1898 (  7371 PWs)   bands (ev):

   -29.7902 -29.7901 -11.8109 -11.8029 -11.7999 -11.7914 -11.7912 -11.7896
    -9.7498  -9.7485  -9.7452  -9.7441  -9.6611  -9.6599  -9.6558  -9.6512
    -9.5540  -9.5529  -9.5476  -9.5465  -9.5460  -9.5450  -9.5193  -9.5182
    -9.5085  -9.5073  -9.4663  -9.4652  -8.0905  -7.9443  -6.8770  -6.8734
    -6.6974  -6.5108  -6.3997  -6.3928  -0.7889  -0.6765  -0.3229  -0.2592
     0.8325   1.1684   1.8669   1.9383   2.1357   2.2031   2.2957   2.4138
     2.6857   2.7807   3.6381   3.6763   3.8562   3.9163   3.9591   4.2435
     4.2543   4.5494   4.8087   4.8157   7.4616   7.7689   7.9011   8.3529

     occupation numbers 
     1.0000   1.0000   1.0000   1.0000   1.0000   1.0000   1.0000   1.0000
     1.0000   1.0000   1.0000   1.0000   1.0000   1.0000   1.0000   1.0000
     1.0000   1.0000   1.0000   1.0000   1.0000   1.0000   1.0000   1.0000
     1.0000   1.0000   1.0000   1.0000   1.0000   1.0000   1.0000   1.0000
     1.0000   1.0000   1.0000   1.0000   1.0000   1.0000   1.0000   1.0000
     1.0000   1.0000   1.0000   1.0000   1.0000   1.0000   1.0000   1.0000
     1.0000   1.0000   1.0000   1.0000   1.0000   1.0000   1.0000   1.0000
     1.0000   1.0000   1.0000   1.0000   0.0000   0.0000   0.0000   0.0000

          k = 0.0000 0.3863 0.0000 (  7360 PWs)   bands (ev):

   -29.7903 -29.7901 -11.8179 -11.8098 -11.8036 -11.7981 -11.7938 -11.7806
    -9.7404  -9.7361  -9.7336  -9.7305  -9.6372  -9.6330  -9.6216  -9.6199
    -9.5687  -9.5681  -9.5651  -9.5641  -9.5615  -9.5600  -9.5170  -9.5160
    -9.5110  -9.5100  -9.5025  -9.5015  -7.8341  -7.5989  -7.1498  -7.0840
    -6.7367  -6.5923  -6.5134  -6.5046  -0.9210  -0.7116  -0.4645  -0.2057
     1.3809   1.4685   1.5752   1.8519   2.2550   2.4501   3.0020   3.1196
     3.3350   3.3736   3.4411   3.5470   3.6011   3.7372   3.8578   4.0522
     4.1991   4.2480   4.2827   4.4855   7.0986   7.3098   8.2181   8.5404

     occupation numbers 
     1.0000   1.0000   1.0000   1.0000   1.0000   1.0000   1.0000   1.0000
     1.0000   1.0000   1.0000   1.0000   1.0000   1.0000   1.0000   1.0000
     1.0000   1.0000   1.0000   1.0000   1.0000   1.0000   1.0000   1.0000
     1.0000   1.0000   1.0000   1.0000   1.0000   1.0000   1.0000   1.0000
     1.0000   1.0000   1.0000   1.0000   1.0000   1.0000   1.0000   1.0000
     1.0000   1.0000   1.0000   1.0000   1.0000   1.0000   1.0000   1.0000
     1.0000   1.0000   1.0000   1.0000   1.0000   1.0000   1.0000   1.0000
     1.0000   1.0000   1.0000   1.0000   0.0000   0.0000   0.0000   0.0000

          k = 0.0000 0.3863 0.1898 (  7353 PWs)   bands (ev):

   -29.7902 -29.7901 -11.8098 -11.8079 -11.8048 -11.7976 -11.7942 -11.7899
    -9.7404  -9.7361  -9.7335  -9.7306  -9.6360  -9.6339  -9.6214  -9.6202
    -9.5687  -9.5681  -9.5651  -9.5641  -9.5614  -9.5600  -9.5169  -9.5159
    -9.5111  -9.5100  -9.5025  -9.5014  -7.7833  -7.6672  -7.1390  -7.0988
    -6.6694  -6.5933  -6.5565  -6.5044  -0.8484  -0.7187  -0.4997  -0.3216
     1.3004   1.3914   1.7943   1.9072   2.4133   2.5758   2.9982   3.2060
     3.2700   3.3895   3.4177   3.4826   3.5850   3.7194   3.7497   3.8674
     4.1512   4.2747   4.3095   4.3796   7.2170   7.3151   8.1949   8.4913

     occupation numbers 
     1.0000   1.0000   1.0000   1.0000   1.0000   1.0000   1.0000   1.0000
     1.0000   1.0000   1.0000   1.0000   1.0000   1.0000   1.0000   1.0000
     1.0000   1.0000   1.0000   1.0000   1.0000   1.0000   1.0000   1.0000
     1.0000   1.0000   1.0000   1.0000   1.0000   1.0000   1.0000   1.0000
     1.0000   1.0000   1.0000   1.0000   1.0000   1.0000   1.0000   1.0000
     1.0000   1.0000   1.0000   1.0000   1.0000   1.0000   1.0000   1.0000
     1.0000   1.0000   1.0000   1.0000   1.0000   1.0000   1.0000   1.0000
     1.0000   1.0000   1.0000   1.0000   0.0000   0.0000   0.0000   0.0000

          k = 0.3333 0.1952 0.0000 (  7360 PWs)   bands (ev):

   -29.7903 -29.7901 -11.8179 -11.8098 -11.8036 -11.7981 -11.7938 -11.7806
    -9.7394  -9.7371  -9.7327  -9.7314  -9.6374  -9.6328  -9.6217  -9.6199
    -9.5691  -9.5676  -9.5651  -9.5641  -9.5613  -9.5602  -9.5170  -9.5159
    -9.5111  -9.5099  -9.5025  -9.5015  -7.8342  -7.5989  -7.1500  -7.0837
    -6.7367  -6.5914  -6.5134  -6.5055  -0.9211  -0.7116  -0.4647  -0.2054
     1.3806   1.4684   1.5756   1.8519   2.2556   2.4495   3.0023   3.1198
     3.3349   3.3732   3.4408   3.5468   3.6016   3.7370   3.8576   4.0525
     4.1987   4.2479   4.2830   4.4856   7.0986   7.3100   8.2180   8.5403

     occupation numbers 
     1.0000   1.0000   1.0000   1.0000   1.0000   1.0000   1.0000   1.0000
     1.0000   1.0000   1.0000   1.0000   1.0000   1.0000   1.0000   1.0000
     1.0000   1.0000   1.0000   1.0000   1.0000   1.0000   1.0000   1.0000
     1.0000   1.0000   1.0000   1.0000   1.0000   1.0000   1.0000   1.0000
     1.0000   1.0000   1.0000   1.0000   1.0000   1.0000   1.0000   1.0000
     1.0000   1.0000   1.0000   1.0000   1.0000   1.0000   1.0000   1.0000
     1.0000   1.0000   1.0000   1.0000   1.0000   1.0000   1.0000   1.0000
     1.0000   1.0000   1.0000   1.0000   0.0000   0.0000   0.0000   0.0000

          k = 0.3333 0.1952 0.1898 (  7353 PWs)   bands (ev):

   -29.7902 -29.7901 -11.8097 -11.8079 -11.8048 -11.7976 -11.7943 -11.7899
    -9.7394  -9.7372  -9.7326  -9.7316  -9.6363  -9.6335  -9.6215  -9.6201
    -9.5692  -9.5677  -9.5651  -9.5641  -9.5611  -9.5603  -9.5170  -9.5159
    -9.5111  -9.5099  -9.5025  -9.5014  -7.7833  -7.6672  -7.1393  -7.0985
    -6.6693  -6.5925  -6.5565  -6.5053  -0.8486  -0.7186  -0.5001  -0.3212
     1.2999   1.3917   1.7945   1.9073   2.4136   2.5755   2.9984   3.2062
     3.2698   3.3893   3.4174   3.4828   3.5852   3.7194   3.7496   3.8674
     4.1511   4.2749   4.3094   4.3797   7.2172   7.3149   8.1951   8.4909

     occupation numbers 
     1.0000   1.0000   1.0000   1.0000   1.0000   1.0000   1.0000   1.0000
     1.0000   1.0000   1.0000   1.0000   1.0000   1.0000   1.0000   1.0000
     1.0000   1.0000   1.0000   1.0000   1.0000   1.0000   1.0000   1.0000
     1.0000   1.0000   1.0000   1.0000   1.0000   1.0000   1.0000   1.0000
     1.0000   1.0000   1.0000   1.0000   1.0000   1.0000   1.0000   1.0000
     1.0000   1.0000   1.0000   1.0000   1.0000   1.0000   1.0000   1.0000
     1.0000   1.0000   1.0000   1.0000   1.0000   1.0000   1.0000   1.0000
     1.0000   1.0000   1.0000   1.0000   0.0000   0.0000   0.0000   0.0000

          k = 0.3333 0.5815 0.0000 (  7336 PWs)   bands (ev):

   -29.7902 -29.7901 -11.8164 -11.8097 -11.8086 -11.8043 -11.8031 -11.7797
    -9.7396  -9.7370  -9.7322  -9.7302  -9.6320  -9.6285  -9.6211  -9.6200
    -9.5692  -9.5681  -9.5652  -9.5641  -9.5621  -9.5608  -9.5174  -9.5162
    -9.5111  -9.5099  -9.5027  -9.5017  -7.6156  -7.4435  -7.2505  -7.1340
    -6.7475  -6.6962  -6.6906  -6.5220  -0.8028  -0.7476  -0.4580  -0.3319
     1.3706   1.6931   1.8410   1.9960   2.1087   2.1287   2.6056   3.3418
     3.4554   3.5246   3.5624   3.8015   3.8123   3.8994   3.9600   4.1783
     4.1797   4.1931   4.2132   4.4463   7.0558   7.0852   7.5821   8.6098

     occupation numbers 
     1.0000   1.0000   1.0000   1.0000   1.0000   1.0000   1.0000   1.0000
     1.0000   1.0000   1.0000   1.0000   1.0000   1.0000   1.0000   1.0000
     1.0000   1.0000   1.0000   1.0000   1.0000   1.0000   1.0000   1.0000
     1.0000   1.0000   1.0000   1.0000   1.0000   1.0000   1.0000   1.0000
     1.0000   1.0000   1.0000   1.0000   1.0000   1.0000   1.0000   1.0000
     1.0000   1.0000   1.0000   1.0000   1.0000   1.0000   1.0000   1.0000
     1.0000   1.0000   1.0000   1.0000   1.0000   1.0000   1.0000   1.0000
     1.0000   1.0000   1.0000   1.0000   0.0000   0.0000   0.0000   0.0000

          k = 0.3333 0.5815 0.1898 (  7333 PWs)   bands (ev):

   -29.7902 -29.7901 -11.8101 -11.8088 -11.8058 -11.8050 -11.8037 -11.7886
    -9.7391  -9.7376  -9.7316  -9.7303  -9.6314  -9.6291  -9.6212  -9.6201
    -9.5692  -9.5681  -9.5651  -9.5641  -9.5621  -9.5609  -9.5173  -9.5162
    -9.5109  -9.5098  -9.5026  -9.5016  -7.5789  -7.4942  -7.2224  -7.1642
    -6.7371  -6.7110  -6.6363  -6.5541  -0.7551  -0.7235  -0.4856  -0.4336
     1.3651   1.4817   1.9387   1.9490   2.2758   2.5106   2.8149   3.1457
     3.3605   3.4049   3.5212   3.6642   3.8601   3.9295   3.9402   4.0564
     4.1790   4.2006   4.2534   4.3634   7.1043   7.1856   7.5951   8.1280

     occupation numbers 
     1.0000   1.0000   1.0000   1.0000   1.0000   1.0000   1.0000   1.0000
     1.0000   1.0000   1.0000   1.0000   1.0000   1.0000   1.0000   1.0000
     1.0000   1.0000   1.0000   1.0000   1.0000   1.0000   1.0000   1.0000
     1.0000   1.0000   1.0000   1.0000   1.0000   1.0000   1.0000   1.0000
     1.0000   1.0000   1.0000   1.0000   1.0000   1.0000   1.0000   1.0000
     1.0000   1.0000   1.0000   1.0000   1.0000   1.0000   1.0000   1.0000
     1.0000   1.0000   1.0000   1.0000   1.0000   1.0000   1.0000   1.0000
     1.0000   1.0000   1.0000   1.0000   0.0000   0.0000   0.0000   0.0000

          k = 0.3333-0.1911 0.0000 (  7370 PWs)   bands (ev):

   -29.7902 -29.7901 -11.8166 -11.8101 -11.8084 -11.8044 -11.8025 -11.7799
    -9.7478  -9.7469  -9.7468  -9.7434  -9.6595  -9.6580  -9.6513  -9.6429
    -9.5557  -9.5544  -9.5474  -9.5464  -9.5459  -9.5449  -9.5197  -9.5185
    -9.5083  -9.5072  -9.4671  -9.4660  -7.9285  -7.6912  -6.8925  -6.8335
    -6.8052  -6.6985  -6.6576  -6.4177  -1.0794  -0.8117  -0.4249  -0.3120
     1.2543   1.7355   1.9157   2.3095   2.4142   2.4601   2.6538   2.9106
     3.1609   3.3115   3.3383   3.5572   3.6117   3.6463   3.7554   3.7635
     3.9503   4.2797   4.3250   4.7726   6.7999   7.8202   7.8888   8.6186

     occupation numbers 
     1.0000   1.0000   1.0000   1.0000   1.0000   1.0000   1.0000   1.0000
     1.0000   1.0000   1.0000   1.0000   1.0000   1.0000   1.0000   1.0000
     1.0000   1.0000   1.0000   1.0000   1.0000   1.0000   1.0000   1.0000
     1.0000   1.0000   1.0000   1.0000   1.0000   1.0000   1.0000   1.0000
     1.0000   1.0000   1.0000   1.0000   1.0000   1.0000   1.0000   1.0000
     1.0000   1.0000   1.0000   1.0000   1.0000   1.0000   1.0000   1.0000
     1.0000   1.0000   1.0000   1.0000   1.0000   1.0000   1.0000   1.0000
     1.0000   1.0000   1.0000   1.0000   0.0000   0.0000   0.0000   0.0000

          k = 0.3333-0.1911 0.1898 (  7342 PWs)   bands (ev):

   -29.7902 -29.7901 -11.8091 -11.8087 -11.8073 -11.8042 -11.8037 -11.7891
    -9.7481  -9.7473  -9.7456  -9.7439  -9.6591  -9.6579  -9.6492  -9.6449
    -9.5554  -9.5543  -9.5474  -9.5464  -9.5460  -9.5449  -9.5194  -9.5184
    -9.5081  -9.5070  -9.4668  -9.4658  -7.8792  -7.7631  -6.8851  -6.8690
    -6.6923  -6.6909  -6.6516  -6.4932  -1.0215  -0.8890  -0.4094  -0.3548
     1.3776   1.6884   1.9739   2.4004   2.5240   2.5428   2.6381   2.7268
     2.8853   3.1890   3.3888   3.4352   3.7059   3.7500   3.7750   3.9959
     4.0258   4.2170   4.2983   4.4729   7.0749   7.6159   8.0685   8.4068

     occupation numbers 
     1.0000   1.0000   1.0000   1.0000   1.0000   1.0000   1.0000   1.0000
     1.0000   1.0000   1.0000   1.0000   1.0000   1.0000   1.0000   1.0000
     1.0000   1.0000   1.0000   1.0000   1.0000   1.0000   1.0000   1.0000
     1.0000   1.0000   1.0000   1.0000   1.0000   1.0000   1.0000   1.0000
     1.0000   1.0000   1.0000   1.0000   1.0000   1.0000   1.0000   1.0000
     1.0000   1.0000   1.0000   1.0000   1.0000   1.0000   1.0000   1.0000
     1.0000   1.0000   1.0000   1.0000   1.0000   1.0000   1.0000   1.0000
     1.0000   1.0000   1.0000   1.0000   0.0000   0.0000   0.0000   0.0000

     highest occupied, lowest unoccupied level (ev):     4.8157    6.7999

!    total energy              =   -1601.70357201 Ry
     estimated scf accuracy    <       0.00000066 Ry

     The total energy is the sum of the following terms:
     one-electron contribution =    -635.39289530 Ry
     hartree contribution      =     392.37012556 Ry
     xc contribution           =    -426.79150445 Ry
     ewald contribution        =    -488.12860962 Ry
     one-center paw contrib.   =    -443.76068820 Ry
      -> PAW hartree energy AE =       0.00000000 Ry
      -> PAW hartree energy PS =       0.00000000 Ry
      -> PAW xc energy AE      =       0.00000000 Ry
      -> PAW xc energy PS      =       0.00000000 Ry
      -> total E_H with PAW    =     392.37012556 Ry
      -> total E_XC with PAW   =    -426.79150445 Ry

     convergence has been achieved in   8 iterations

     Writing all to output data dir calculations_bands_val/myprefix.save/
 
     init_run     :      7.91s CPU      2.52s WALL (       1 calls)
     electrons    :     52.99s CPU     13.91s WALL (       1 calls)

     Called by init_run:
     wfcinit      :      1.89s CPU      0.50s WALL (       1 calls)
     wfcinit:atom :      0.03s CPU      0.01s WALL (       5 calls)
     wfcinit:wfcr :      1.70s CPU      0.44s WALL (       5 calls)
     potinit      :      1.84s CPU      0.49s WALL (       1 calls)
     hinit0       :      3.62s CPU      1.38s WALL (       1 calls)

     Called by electrons:
     c_bands      :     34.84s CPU      8.97s WALL (       9 calls)
     sum_band     :      8.76s CPU      2.44s WALL (       9 calls)
     v_of_rho     :      1.16s CPU      0.31s WALL (       9 calls)
     v_h          :      0.08s CPU      0.02s WALL (       9 calls)
     v_xc         :      1.08s CPU      0.29s WALL (       9 calls)
     newd         :      3.02s CPU      0.82s WALL (       9 calls)
     PAW_pot      :      5.66s CPU      1.50s WALL (       9 calls)
     mix_rho      :      0.25s CPU      0.07s WALL (       9 calls)

     Called by c_bands:
     init_us_2    :      0.30s CPU      0.08s WALL (      95 calls)
     init_us_2:cp :      0.29s CPU      0.08s WALL (      95 calls)
     cegterg      :     32.02s CPU      8.24s WALL (      45 calls)

     Called by sum_band:
     sum_band:wei :      0.02s CPU      0.01s WALL (       9 calls)
     sum_band:loo :      4.73s CPU      1.22s WALL (       9 calls)
     sum_band:buf :      0.08s CPU      0.02s WALL (      45 calls)
     sum_band:ini :      0.13s CPU      0.03s WALL (      45 calls)
     sum_band:cal :      0.60s CPU      0.15s WALL (      45 calls)
     sum_band:bec :      0.06s CPU      0.02s WALL (      45 calls)
     addusdens    :      3.38s CPU      1.05s WALL (       9 calls)
     addusd:skk   :      0.01s CPU      0.01s WALL (      27 calls)
     addusd:dgemm :      0.66s CPU      0.35s WALL (      27 calls)
     addusd:qvan2 :      2.57s CPU      0.66s WALL (      27 calls)

     Called by *egterg:
     cdiaghg      :      3.86s CPU      1.01s WALL (     202 calls)
     cegterg:over :      1.65s CPU      0.42s WALL (     162 calls)
     cegterg:upda :      0.70s CPU      0.18s WALL (     162 calls)
     cegterg:last :      1.29s CPU      0.33s WALL (     103 calls)
     cdiaghg:chol :      0.30s CPU      0.08s WALL (     202 calls)
     cdiaghg:inve :      0.06s CPU      0.01s WALL (     202 calls)
     cdiaghg:para :      0.60s CPU      0.16s WALL (     404 calls)
     h_psi        :     24.44s CPU      6.30s WALL (     212 calls)
     s_psi        :      1.11s CPU      0.28s WALL (     212 calls)
     g_psi        :      0.05s CPU      0.01s WALL (     162 calls)

     Called by h_psi:
     h_psi:calbec :      1.63s CPU      0.41s WALL (     212 calls)
     vloc_psi     :     21.55s CPU      5.56s WALL (     212 calls)
     add_vuspsi   :      1.19s CPU      0.31s WALL (     212 calls)

     General routines
     calbec       :      2.22s CPU      0.56s WALL (     257 calls)
     fft          :      2.05s CPU      0.62s WALL (     116 calls)
     ffts         :      0.51s CPU      0.14s WALL (      18 calls)
     fftw         :     22.40s CPU      5.78s WALL (   19530 calls)
     interpolate  :      0.61s CPU      0.17s WALL (       9 calls)
 
     Parallel routines

     PAW routines
     PAW_pot      :      5.66s CPU      1.50s WALL (       9 calls)
     PAW_symme    :      0.02s CPU      0.00s WALL (      18 calls)
 
     PWSCF        :   1m 2.08s CPU     17.03s WALL

 
   This run was terminated on:  15:16:38   4Jun2023            

=------------------------------------------------------------------------------=
   JOB DONE.
=------------------------------------------------------------------------------=
