
     Program PWSCF v.7.0 starts on  4Jun2023 at 12:27:40 

     This program is part of the open-source Quantum ESPRESSO suite
     for quantum simulation of materials; please cite
         "P. Giannozzi et al., J. Phys.:Condens. Matter 21 395502 (2009);
         "P. Giannozzi et al., J. Phys.:Condens. Matter 29 465901 (2017);
         "P. Giannozzi et al., J. Chem. Phys. 152 154105 (2020);
          URL http://www.quantum-espresso.org", 
     in publications or presentations arising from this work. More details at
     http://www.quantum-espresso.org/quote

     Parallel version (MPI & OpenMP), running on      32 processor cores
     Number of MPI processes:                 8
     Threads/MPI process:                     4

     MPI processes distributed on     1 nodes
     K-points division:     npool     =       2
     R & G space division:  proc/nbgrp/npool/nimage =       4
     142254 MiB available memory on the printing compute node when the environment starts
 
     Reading input from espresso_418.pwi
Warning: card &CELL ignored
Warning: card / ignored

     Current dimensions of program PWSCF are:
     Max number of different atomic species (ntypx) = 10
     Max number of k-points (npk) =  40000
     Max angular momentum in pseudopotentials (lmaxx) =  4
     Message from routine setup:
     using ibrav=0 with symmetry is DISCOURAGED, use correct ibrav instead

     Subspace diagonalization in iterative solution of the eigenvalue problem:
     one sub-group per band group will be used
     scalapack distributed-memory algorithm (size of sub-group:  2*  2 procs)

 
     Parallelization info
     --------------------
     sticks:   dense  smooth     PW     G-vecs:    dense   smooth      PW
     Min         655     328     93                21283     7522    1145
     Max         656     329     94                21284     7524    1147
     Sum        2623    1315    375                85135    30093    4585
 
     Using Slab Decomposition
 


     bravais-lattice index     =            0
     lattice parameter (alat)  =      12.0771  a.u.
     unit-cell volume          =    1356.0168 (a.u.)^3
     number of atoms/cell      =            8
     number of atomic types    =            3
     number of electrons       =        56.00
     number of Kohn-Sham states=           64
     kinetic-energy cutoff     =      30.0000  Ry
     charge density cutoff     =     240.0000  Ry
     scf convergence threshold =      1.0E-06
     mixing beta               =       0.7000
     number of iterations used =            8  plain     mixing
     Exchange-correlation= SLA  PW   PBE  PBE
                           (   1   4   3   4   0   0   0)

     celldm(1)=  12.077091  celldm(2)=   0.000000  celldm(3)=   0.000000
     celldm(4)=   0.000000  celldm(5)=   0.000000  celldm(6)=   0.000000

     crystal axes: (cart. coord. in units of alat)
               a(1) = (   1.000000   0.000000   0.000000 )  
               a(2) = (  -0.333333   0.942809   0.000000 )  
               a(3) = (  -0.333333  -0.471405   0.816497 )  

     reciprocal axes: (cart. coord. in units 2 pi/alat)
               b(1) = (  1.000000  0.353553  0.612372 )  
               b(2) = (  0.000000  1.060660  0.612372 )  
               b(3) = (  0.000000  0.000000  1.224745 )  


     PseudoPot. # 1 for Na read from file:
     /home/pragov/projects/rrg-bengioy-ad/pragov/crystal_structure_design/SSSP/na_pbe_v1.5.uspp.F.UPF
     MD5 check sum: 44600605ef58000f06b90626533354dc
     Pseudo is Ultrasoft, Zval =  9.0
     Generated by new atomic code, or converted to UPF format
     Using radial grid of  819 points,  5 beta functions with: 
                l(1) =   0
                l(2) =   0
                l(3) =   1
                l(4) =   1
                l(5) =   2
     Q(r) pseudized with  8 coefficients,  rinner =    1.250   1.250   1.250
                                                       1.250   1.250

     PseudoPot. # 2 for P  read from file:
     /home/pragov/projects/rrg-bengioy-ad/pragov/crystal_structure_design/SSSP/P.pbe-n-rrkjus_psl.1.0.0.UPF
     MD5 check sum: 8b930f418f0a4573dca56cd030ffe088
     Pseudo is Ultrasoft + core correction, Zval =  5.0
     Generated using "atomic" code by A. Dal Corso  v.5.1
     Using radial grid of 1147 points,  6 beta functions with: 
                l(1) =   0
                l(2) =   0
                l(3) =   1
                l(4) =   1
                l(5) =   2
                l(6) =   2
     Q(r) pseudized with 0 coefficients 


     PseudoPot. # 3 for Se read from file:
     /home/pragov/projects/rrg-bengioy-ad/pragov/crystal_structure_design/SSSP/Se_pbe_v1.uspp.F.UPF
     MD5 check sum: 1b3568f3a8ae88f9a2a0ad0698632c85
     Pseudo is Ultrasoft + core correction, Zval =  6.0
     Generated by new atomic code, or converted to UPF format
     Using radial grid of  877 points,  6 beta functions with: 
                l(1) =   0
                l(2) =   0
                l(3) =   1
                l(4) =   1
                l(5) =   2
                l(6) =   2
     Q(r) pseudized with  8 coefficients,  rinner =    1.300   1.300   1.300
                                                       1.300   1.300

     atomic species   valence    mass     pseudopotential
        Na             9.00    22.98977     Na( 1.00)
        P              5.00    30.97376     P ( 1.00)
        Se             6.00    78.97100     Se( 1.00)

      2 Sym. Ops. (no inversion) found


                                    s                        frac. trans.

      isym =  1     identity                                     

 cryst.   s( 1) = (     1          0          0      )
                  (     0          1          0      )
                  (     0          0          1      )

 cart.    s( 1) = (  1.0000000 -0.0000000  0.0000000 )
                  (  0.0000000  1.0000000 -0.0000000 )
                  (  0.0000000  0.0000000  1.0000000 )


      isym =  2     inv. 180 deg rotation - cart. axis [0,0,1]   

 cryst.   s( 2) = (     1          0          0      )
                  (     0          1          0      )
                  (    -1         -1         -1      )

 cart.    s( 2) = (  1.0000000 -0.0000000 -0.0000000 )
                  (  0.0000000  1.0000000 -0.0000000 )
                  (  0.0000000  0.0000000 -1.0000000 )


   Cartesian axes

     site n.     atom                  positions (alat units)
         1           Na  tau(   1) = (  -0.3333333   0.2357023   0.4082483  )
         2           Na  tau(   2) = (   0.3333333  -0.2357023   0.4082483  )
         3           Na  tau(   3) = (   0.3333333   0.4714045   0.0000000  )
         4           P   tau(   4) = (   0.0000000   0.0000000   0.0000000  )
         5           Se  tau(   5) = (   0.3517800   0.0000000   0.0000000  )
         6           Se  tau(   6) = (  -0.1172600   0.3316614   0.0000000  )
         7           Se  tau(   7) = (  -0.1172600  -0.1658307   0.2872272  )
         8           Se  tau(   8) = (   0.2160733   0.3055738   0.5292694  )

   Crystallographic axes

     site n.     atom                  positions (cryst. coord.)
         1           Na  tau(   1) = ( -0.0000000  0.5000000  0.5000000  )
         2           Na  tau(   2) = (  0.5000000  0.0000000  0.5000000  )
         3           Na  tau(   3) = (  0.5000000  0.5000000  0.0000000  )
         4           P   tau(   4) = (  0.0000000  0.0000000  0.0000000  )
         5           Se  tau(   5) = (  0.3517800  0.0000000  0.0000000  )
         6           Se  tau(   6) = (  0.0000000  0.3517800  0.0000000  )
         7           Se  tau(   7) = ( -0.0000000 -0.0000000  0.3517800  )
         8           Se  tau(   8) = (  0.6482200  0.6482200  0.6482200  )

     number of k points=    10
                       cart. coord. in units 2pi/alat
        k(    1) = (   0.0000000   0.0000000   0.0000000), wk =   0.0740741
        k(    2) = (   0.0000000   0.0000000   0.4082483), wk =   0.1481481
        k(    3) = (   0.0000000   0.3535534   0.2041241), wk =   0.2962963
        k(    4) = (   0.0000000   0.3535534   0.6123724), wk =   0.1481481
        k(    5) = (   0.3333333   0.1178511   0.2041241), wk =   0.2962963
        k(    6) = (   0.3333333   0.1178511   0.6123724), wk =   0.1481481
        k(    7) = (   0.3333333   0.4714045   0.4082483), wk =   0.2962963
        k(    8) = (   0.3333333   0.4714045  -0.0000000), wk =   0.1481481
        k(    9) = (   0.3333333  -0.2357023  -0.0000000), wk =   0.1481481
        k(   10) = (   0.3333333  -0.2357023   0.4082483), wk =   0.2962963

                       cryst. coord.
        k(    1) = (   0.0000000   0.0000000   0.0000000), wk =   0.0740741
        k(    2) = (   0.0000000   0.0000000   0.3333333), wk =   0.1481481
        k(    3) = (   0.0000000   0.3333333  -0.0000000), wk =   0.2962963
        k(    4) = (   0.0000000   0.3333333   0.3333333), wk =   0.1481481
        k(    5) = (   0.3333333  -0.0000000   0.0000000), wk =   0.2962963
        k(    6) = (   0.3333333  -0.0000000   0.3333333), wk =   0.1481481
        k(    7) = (   0.3333333   0.3333333  -0.0000000), wk =   0.2962963
        k(    8) = (   0.3333333   0.3333333  -0.3333333), wk =   0.1481481
        k(    9) = (   0.3333333  -0.3333333   0.0000000), wk =   0.1481481
        k(   10) = (   0.3333333  -0.3333333   0.3333333), wk =   0.2962963

     Dense  grid:    85135 G-vectors     FFT dimensions: (  60,  60,  60)

     Smooth grid:    30093 G-vectors     FFT dimensions: (  45,  45,  45)

     Dynamical RAM for                 wfc:       0.92 MB

     Dynamical RAM for     wfc (w. buffer):       5.51 MB

     Dynamical RAM for           str. fact:       0.97 MB

     Dynamical RAM for           local pot:       0.00 MB

     Dynamical RAM for          nlocal pot:       1.85 MB

     Dynamical RAM for                qrad:       3.73 MB

     Dynamical RAM for          rho,v,vnew:       2.21 MB

     Dynamical RAM for               rhoin:       0.74 MB

     Dynamical RAM for            rho*nmix:       5.20 MB

     Dynamical RAM for           G-vectors:       1.28 MB

     Dynamical RAM for          h,s,v(r/c):       0.19 MB

     Dynamical RAM for          <psi|beta>:       0.13 MB

     Dynamical RAM for                 psi:       1.84 MB

     Dynamical RAM for                hpsi:       1.84 MB

     Dynamical RAM for                spsi:       1.84 MB

     Dynamical RAM for      wfcinit/wfcrot:       1.93 MB

     Dynamical RAM for           addusdens:      31.01 MB

     Estimated static dynamical RAM per process >      19.65 MB

     Estimated max dynamical RAM per process >      55.85 MB

     Estimated total dynamical RAM >     426.05 MB

     Initial potential from superposition of free atoms

     starting charge      55.9807, renormalised to      56.0000
     Starting wfcs are   35 randomized atomic wfcs +   29 random wfcs

     total cpu time spent up to now is        1.5 secs

     Self-consistent Calculation

     iteration #  1     ecut=    30.00 Ry     beta= 0.70
     Davidson diagonalization with overlap

---- Real-time Memory Report at c_bands before calling an iterative solver
           184 MiB given to the printing process from OS
             0 MiB allocation reported by mallinfo(arena+hblkhd)
        141639 MiB available memory on the node where the printing process lives
------------------
     ethr =  1.00E-02,  avg # of iterations =  7.9

     Threshold (ethr) on eigenvalues was too large:
     Diagonalizing with lowered threshold

     Davidson diagonalization with overlap

---- Real-time Memory Report at c_bands before calling an iterative solver
           224 MiB given to the printing process from OS
             0 MiB allocation reported by mallinfo(arena+hblkhd)
        141341 MiB available memory on the node where the printing process lives
------------------
     ethr =  3.47E-04,  avg # of iterations =  3.8

     total cpu time spent up to now is        3.5 secs

     total energy              =    -474.86473877 Ry
     estimated scf accuracy    <       0.19304445 Ry

     iteration #  2     ecut=    30.00 Ry     beta= 0.70
     Davidson diagonalization with overlap

---- Real-time Memory Report at c_bands before calling an iterative solver
           229 MiB given to the printing process from OS
             0 MiB allocation reported by mallinfo(arena+hblkhd)
        141295 MiB available memory on the node where the printing process lives
------------------
     ethr =  3.45E-04,  avg # of iterations =  2.0

     total cpu time spent up to now is        4.4 secs

     total energy              =    -474.88734306 Ry
     estimated scf accuracy    <       0.08021207 Ry

     iteration #  3     ecut=    30.00 Ry     beta= 0.70
     Davidson diagonalization with overlap

---- Real-time Memory Report at c_bands before calling an iterative solver
           233 MiB given to the printing process from OS
             0 MiB allocation reported by mallinfo(arena+hblkhd)
        141264 MiB available memory on the node where the printing process lives
------------------
     ethr =  1.43E-04,  avg # of iterations =  3.4

     total cpu time spent up to now is        5.2 secs

     total energy              =    -474.90723609 Ry
     estimated scf accuracy    <       0.02299319 Ry

     iteration #  4     ecut=    30.00 Ry     beta= 0.70
     Davidson diagonalization with overlap

---- Real-time Memory Report at c_bands before calling an iterative solver
           233 MiB given to the printing process from OS
             0 MiB allocation reported by mallinfo(arena+hblkhd)
        141299 MiB available memory on the node where the printing process lives
------------------
     ethr =  4.11E-05,  avg # of iterations =  5.8

     total cpu time spent up to now is        5.9 secs

     total energy              =    -474.91226325 Ry
     estimated scf accuracy    <       0.00093884 Ry

     iteration #  5     ecut=    30.00 Ry     beta= 0.70
     Davidson diagonalization with overlap

---- Real-time Memory Report at c_bands before calling an iterative solver
           235 MiB given to the printing process from OS
             0 MiB allocation reported by mallinfo(arena+hblkhd)
        141264 MiB available memory on the node where the printing process lives
------------------
     ethr =  1.68E-06,  avg # of iterations =  9.9

     total cpu time spent up to now is        7.0 secs

     total energy              =    -474.91250419 Ry
     estimated scf accuracy    <       0.00000384 Ry

     iteration #  6     ecut=    30.00 Ry     beta= 0.70
     Davidson diagonalization with overlap

---- Real-time Memory Report at c_bands before calling an iterative solver
           239 MiB given to the printing process from OS
             0 MiB allocation reported by mallinfo(arena+hblkhd)
        141225 MiB available memory on the node where the printing process lives
------------------
     ethr =  6.86E-09,  avg # of iterations =  7.4

     total cpu time spent up to now is        8.1 secs

     End of self-consistent calculation

          k = 0.0000 0.0000 0.0000 (  3781 PWs)   bands (ev):

   -47.7775 -47.7771 -47.7771 -19.7081 -19.7081 -19.7081 -19.6816 -19.6816
   -19.6816 -19.6642 -19.6642 -19.6642 -10.7594  -8.2709  -8.2707  -8.2706
    -4.8750  -1.0308  -1.0307  -1.0307   2.0654   2.0654   2.0655   2.4168
     2.4169   2.9445   2.9445   2.9445   5.5744   7.5520   7.6568   7.6569
     7.6569   8.4154   8.4154  10.4880  10.4881  10.4881  11.2888  11.2888
    11.2889  11.6950  11.6950  12.6778  12.6778  12.6778  13.8122  15.0469
    15.0469  15.0470  16.0961  16.0961  16.0961  16.2035  16.2035  16.2770
    16.2770  16.2770  18.7525  18.7525  18.7526  19.3677  19.4809  19.4924

     occupation numbers 
     1.0000   1.0000   1.0000   1.0000   1.0000   1.0000   1.0000   1.0000
     1.0000   1.0000   1.0000   1.0000   1.0000   1.0000   1.0000   1.0000
     1.0000   1.0000   1.0000   1.0000   1.0000   1.0000   1.0000   1.0000
     1.0000   1.0000   1.0000   1.0000   0.0000   0.0000   0.0000   0.0000
     0.0000   0.0000   0.0000   0.0000   0.0000   0.0000   0.0000   0.0000
     0.0000   0.0000   0.0000   0.0000   0.0000   0.0000   0.0000   0.0000
     0.0000   0.0000   0.0000   0.0000   0.0000   0.0000   0.0000   0.0000
     0.0000   0.0000   0.0000   0.0000   0.0000   0.0000   0.0000   0.0000

          k = 0.0000 0.0000 0.4082 (  3779 PWs)   bands (ev):

   -47.7777 -47.7772 -47.7770 -19.7062 -19.7015 -19.7008 -19.6896 -19.6893
   -19.6834 -19.6649 -19.6645 -19.6642 -10.6688  -8.4422  -8.3455  -8.2777
    -4.7221  -1.0963  -0.7773  -0.4450   1.5230   1.6804   1.8454   2.3142
     2.5681   2.6087   3.0937   3.1970   6.0637   6.8294   7.0416   7.4628
     8.3390   8.4253   9.1954   9.8280   9.9041  10.1003  10.7782  11.4711
    11.8078  12.3732  12.3773  12.8639  13.1102  13.7233  13.8324  13.8916
    14.5010  14.8521  15.2471  15.5418  16.0616  16.1975  16.7493  17.1258
    17.6000  17.6710  17.7245  18.2039  18.3329  18.6053  19.3329  19.5192

     occupation numbers 
     1.0000   1.0000   1.0000   1.0000   1.0000   1.0000   1.0000   1.0000
     1.0000   1.0000   1.0000   1.0000   1.0000   1.0000   1.0000   1.0000
     1.0000   1.0000   1.0000   1.0000   1.0000   1.0000   1.0000   1.0000
     1.0000   1.0000   1.0000   1.0000   0.0000   0.0000   0.0000   0.0000
     0.0000   0.0000   0.0000   0.0000   0.0000   0.0000   0.0000   0.0000
     0.0000   0.0000   0.0000   0.0000   0.0000   0.0000   0.0000   0.0000
     0.0000   0.0000   0.0000   0.0000   0.0000   0.0000   0.0000   0.0000
     0.0000   0.0000   0.0000   0.0000   0.0000   0.0000   0.0000   0.0000

          k = 0.0000 0.3536 0.2041 (  3779 PWs)   bands (ev):

   -47.7777 -47.7772 -47.7770 -19.7062 -19.7015 -19.7008 -19.6896 -19.6893
   -19.6834 -19.6649 -19.6645 -19.6642 -10.6688  -8.4423  -8.3455  -8.2776
    -4.7221  -1.0962  -0.7773  -0.4450   1.5230   1.6804   1.8454   2.3143
     2.5681   2.6087   3.0937   3.1970   6.0637   6.8294   7.0415   7.4628
     8.3390   8.4253   9.1954   9.8280   9.9041  10.1003  10.7782  11.4711
    11.8078  12.3732  12.3773  12.8638  13.1102  13.7233  13.8324  13.8916
    14.5010  14.8521  15.2471  15.5418  16.0616  16.1975  16.7493  17.1258
    17.6000  17.6709  17.7245  18.2040  18.3329  18.6053  19.3328  19.5187

     occupation numbers 
     1.0000   1.0000   1.0000   1.0000   1.0000   1.0000   1.0000   1.0000
     1.0000   1.0000   1.0000   1.0000   1.0000   1.0000   1.0000   1.0000
     1.0000   1.0000   1.0000   1.0000   1.0000   1.0000   1.0000   1.0000
     1.0000   1.0000   1.0000   1.0000   0.0000   0.0000   0.0000   0.0000
     0.0000   0.0000   0.0000   0.0000   0.0000   0.0000   0.0000   0.0000
     0.0000   0.0000   0.0000   0.0000   0.0000   0.0000   0.0000   0.0000
     0.0000   0.0000   0.0000   0.0000   0.0000   0.0000   0.0000   0.0000
     0.0000   0.0000   0.0000   0.0000   0.0000   0.0000   0.0000   0.0000

          k = 0.0000 0.3536 0.6124 (  3772 PWs)   bands (ev):

   -47.7774 -47.7774 -47.7769 -19.7012 -19.7005 -19.7005 -19.6893 -19.6887
   -19.6887 -19.6646 -19.6641 -19.6640 -10.6196  -8.4422  -8.4422  -8.3138
    -4.6288  -0.9550  -0.5315  -0.5314   1.3808   1.3809   2.0915   2.0915
     2.4857   2.9203   2.9203   3.3312   5.5724   6.8878   6.8879   6.9984
     8.9501   8.9501   9.1135   9.9959   9.9959  10.4270  10.9792  11.3984
    11.3984  12.1401  12.1401  12.1448  13.5311  13.8471  13.8471  14.1282
    14.1282  14.7729  15.4537  15.4537  16.1711  16.5793  16.5794  17.0078
    17.6101  17.6101  18.3679  18.3679  18.8337  19.0699  19.0700  19.1753

     occupation numbers 
     1.0000   1.0000   1.0000   1.0000   1.0000   1.0000   1.0000   1.0000
     1.0000   1.0000   1.0000   1.0000   1.0000   1.0000   1.0000   1.0000
     1.0000   1.0000   1.0000   1.0000   1.0000   1.0000   1.0000   1.0000
     1.0000   1.0000   1.0000   1.0000   0.0000   0.0000   0.0000   0.0000
     0.0000   0.0000   0.0000   0.0000   0.0000   0.0000   0.0000   0.0000
     0.0000   0.0000   0.0000   0.0000   0.0000   0.0000   0.0000   0.0000
     0.0000   0.0000   0.0000   0.0000   0.0000   0.0000   0.0000   0.0000
     0.0000   0.0000   0.0000   0.0000   0.0000   0.0000   0.0000   0.0000

          k = 0.3333 0.1179 0.2041 (  3779 PWs)   bands (ev):

   -47.7777 -47.7772 -47.7770 -19.7062 -19.7015 -19.7008 -19.6896 -19.6893
   -19.6834 -19.6649 -19.6645 -19.6642 -10.6688  -8.4424  -8.3455  -8.2775
    -4.7221  -1.0962  -0.7773  -0.4451   1.5229   1.6805   1.8454   2.3144
     2.5682   2.6086   3.0937   3.1969   6.0637   6.8294   7.0415   7.4628
     8.3390   8.4253   9.1954   9.8280   9.9041  10.1003  10.7781  11.4711
    11.8078  12.3732  12.3773  12.8638  13.1102  13.7233  13.8324  13.8916
    14.5010  14.8520  15.2471  15.5418  16.0617  16.1975  16.7493  17.1258
    17.6000  17.6710  17.7246  18.2040  18.3329  18.6054  19.3327  19.5190

     occupation numbers 
     1.0000   1.0000   1.0000   1.0000   1.0000   1.0000   1.0000   1.0000
     1.0000   1.0000   1.0000   1.0000   1.0000   1.0000   1.0000   1.0000
     1.0000   1.0000   1.0000   1.0000   1.0000   1.0000   1.0000   1.0000
     1.0000   1.0000   1.0000   1.0000   0.0000   0.0000   0.0000   0.0000
     0.0000   0.0000   0.0000   0.0000   0.0000   0.0000   0.0000   0.0000
     0.0000   0.0000   0.0000   0.0000   0.0000   0.0000   0.0000   0.0000
     0.0000   0.0000   0.0000   0.0000   0.0000   0.0000   0.0000   0.0000
     0.0000   0.0000   0.0000   0.0000   0.0000   0.0000   0.0000   0.0000

          k = 0.3333 0.1179 0.6124 (  3772 PWs)   bands (ev):

   -47.7774 -47.7774 -47.7769 -19.7012 -19.7005 -19.7005 -19.6893 -19.6887
   -19.6887 -19.6646 -19.6641 -19.6640 -10.6196  -8.4424  -8.4422  -8.3136
    -4.6288  -0.9549  -0.5315  -0.5314   1.3808   1.3808   2.0916   2.0916
     2.4857   2.9202   2.9203   3.3311   5.5723   6.8878   6.8879   6.9985
     8.9501   8.9501   9.1136   9.9959   9.9960  10.4270  10.9792  11.3984
    11.3984  12.1401  12.1401  12.1448  13.5311  13.8471  13.8471  14.1282
    14.1282  14.7729  15.4537  15.4537  16.1711  16.5794  16.5794  17.0078
    17.6101  17.6101  18.3679  18.3679  18.8337  19.0699  19.0700  19.1753

     occupation numbers 
     1.0000   1.0000   1.0000   1.0000   1.0000   1.0000   1.0000   1.0000
     1.0000   1.0000   1.0000   1.0000   1.0000   1.0000   1.0000   1.0000
     1.0000   1.0000   1.0000   1.0000   1.0000   1.0000   1.0000   1.0000
     1.0000   1.0000   1.0000   1.0000   0.0000   0.0000   0.0000   0.0000
     0.0000   0.0000   0.0000   0.0000   0.0000   0.0000   0.0000   0.0000
     0.0000   0.0000   0.0000   0.0000   0.0000   0.0000   0.0000   0.0000
     0.0000   0.0000   0.0000   0.0000   0.0000   0.0000   0.0000   0.0000
     0.0000   0.0000   0.0000   0.0000   0.0000   0.0000   0.0000   0.0000

          k = 0.3333 0.4714 0.4082 (  3772 PWs)   bands (ev):

   -47.7774 -47.7774 -47.7769 -19.7012 -19.7005 -19.7005 -19.6893 -19.6887
   -19.6887 -19.6646 -19.6641 -19.6640 -10.6196  -8.4424  -8.4422  -8.3136
    -4.6288  -0.9549  -0.5315  -0.5314   1.3808   1.3808   2.0916   2.0916
     2.4857   2.9203   2.9203   3.3311   5.5723   6.8878   6.8878   6.9985
     8.9501   8.9501   9.1136   9.9960   9.9960  10.4270  10.9792  11.3984
    11.3984  12.1401  12.1401  12.1448  13.5311  13.8471  13.8471  14.1282
    14.1282  14.7729  15.4537  15.4537  16.1711  16.5793  16.5794  17.0078
    17.6101  17.6101  18.3679  18.3679  18.8337  19.0699  19.0700  19.1752

     occupation numbers 
     1.0000   1.0000   1.0000   1.0000   1.0000   1.0000   1.0000   1.0000
     1.0000   1.0000   1.0000   1.0000   1.0000   1.0000   1.0000   1.0000
     1.0000   1.0000   1.0000   1.0000   1.0000   1.0000   1.0000   1.0000
     1.0000   1.0000   1.0000   1.0000   0.0000   0.0000   0.0000   0.0000
     0.0000   0.0000   0.0000   0.0000   0.0000   0.0000   0.0000   0.0000
     0.0000   0.0000   0.0000   0.0000   0.0000   0.0000   0.0000   0.0000
     0.0000   0.0000   0.0000   0.0000   0.0000   0.0000   0.0000   0.0000
     0.0000   0.0000   0.0000   0.0000   0.0000   0.0000   0.0000   0.0000

          k = 0.3333 0.4714-0.0000 (  3768 PWs)   bands (ev):

   -47.7773 -47.7773 -47.7770 -19.7065 -19.7065 -19.7005 -19.6892 -19.6824
   -19.6824 -19.6644 -19.6638 -19.6638 -10.5914  -8.4310  -8.4228  -8.4226
    -4.5740  -0.5137  -0.5136  -0.4645   0.8208   0.9256   2.0689   2.0689
     2.0828   3.3438   3.3439   3.5588   5.3646   7.0100   7.1735   7.1735
     8.3432   8.9681   9.3683   9.7659   9.7660  10.9759  11.2940  11.3043
    11.3043  12.3604  12.5911  12.6420  12.6421  12.7384  14.0780  14.1368
    14.1368  14.4684  15.0182  15.6819  15.6819  16.2818  16.4003  16.9813
    16.9813  17.5256  17.8951  18.4178  18.4178  18.6147  19.5310  19.7154

     occupation numbers 
     1.0000   1.0000   1.0000   1.0000   1.0000   1.0000   1.0000   1.0000
     1.0000   1.0000   1.0000   1.0000   1.0000   1.0000   1.0000   1.0000
     1.0000   1.0000   1.0000   1.0000   1.0000   1.0000   1.0000   1.0000
     1.0000   1.0000   1.0000   1.0000   0.0000   0.0000   0.0000   0.0000
     0.0000   0.0000   0.0000   0.0000   0.0000   0.0000   0.0000   0.0000
     0.0000   0.0000   0.0000   0.0000   0.0000   0.0000   0.0000   0.0000
     0.0000   0.0000   0.0000   0.0000   0.0000   0.0000   0.0000   0.0000
     0.0000   0.0000   0.0000   0.0000   0.0000   0.0000   0.0000   0.0000

          k = 0.3333-0.2357-0.0000 (  3779 PWs)   bands (ev):

   -47.7777 -47.7772 -47.7770 -19.7062 -19.7015 -19.7008 -19.6896 -19.6893
   -19.6834 -19.6649 -19.6645 -19.6642 -10.6688  -8.4424  -8.3455  -8.2775
    -4.7221  -1.0962  -0.7773  -0.4451   1.5229   1.6804   1.8454   2.3144
     2.5682   2.6086   3.0937   3.1969   6.0637   6.8294   7.0415   7.4628
     8.3390   8.4253   9.1954   9.8279   9.9041  10.1003  10.7782  11.4711
    11.8078  12.3732  12.3773  12.8638  13.1102  13.7233  13.8324  13.8916
    14.5010  14.8521  15.2471  15.5418  16.0617  16.1975  16.7493  17.1258
    17.6000  17.6709  17.7246  18.2039  18.3329  18.6053  19.3327  19.5188

     occupation numbers 
     1.0000   1.0000   1.0000   1.0000   1.0000   1.0000   1.0000   1.0000
     1.0000   1.0000   1.0000   1.0000   1.0000   1.0000   1.0000   1.0000
     1.0000   1.0000   1.0000   1.0000   1.0000   1.0000   1.0000   1.0000
     1.0000   1.0000   1.0000   1.0000   0.0000   0.0000   0.0000   0.0000
     0.0000   0.0000   0.0000   0.0000   0.0000   0.0000   0.0000   0.0000
     0.0000   0.0000   0.0000   0.0000   0.0000   0.0000   0.0000   0.0000
     0.0000   0.0000   0.0000   0.0000   0.0000   0.0000   0.0000   0.0000
     0.0000   0.0000   0.0000   0.0000   0.0000   0.0000   0.0000   0.0000

          k = 0.3333-0.2357 0.4082 (  3768 PWs)   bands (ev):

   -47.7773 -47.7773 -47.7770 -19.7065 -19.7065 -19.7005 -19.6892 -19.6824
   -19.6824 -19.6643 -19.6639 -19.6638 -10.5914  -8.4310  -8.4227  -8.4226
    -4.5740  -0.5137  -0.5137  -0.4645   0.8208   0.9256   2.0689   2.0689
     2.0828   3.3439   3.3439   3.5588   5.3646   7.0100   7.1735   7.1735
     8.3432   8.9681   9.3683   9.7660   9.7660  10.9759  11.2940  11.3043
    11.3043  12.3605  12.5911  12.6421  12.6421  12.7384  14.0780  14.1368
    14.1368  14.4684  15.0182  15.6819  15.6819  16.2818  16.4003  16.9813
    16.9813  17.5257  17.8951  18.4178  18.4178  18.6148  19.5316  19.7155

     occupation numbers 
     1.0000   1.0000   1.0000   1.0000   1.0000   1.0000   1.0000   1.0000
     1.0000   1.0000   1.0000   1.0000   1.0000   1.0000   1.0000   1.0000
     1.0000   1.0000   1.0000   1.0000   1.0000   1.0000   1.0000   1.0000
     1.0000   1.0000   1.0000   1.0000   0.0000   0.0000   0.0000   0.0000
     0.0000   0.0000   0.0000   0.0000   0.0000   0.0000   0.0000   0.0000
     0.0000   0.0000   0.0000   0.0000   0.0000   0.0000   0.0000   0.0000
     0.0000   0.0000   0.0000   0.0000   0.0000   0.0000   0.0000   0.0000
     0.0000   0.0000   0.0000   0.0000   0.0000   0.0000   0.0000   0.0000

     highest occupied, lowest unoccupied level (ev):     3.5588    5.3646

!    total energy              =    -474.91254420 Ry
     estimated scf accuracy    <       0.00000037 Ry

     The total energy is the sum of the following terms:
     one-electron contribution =    -241.29558244 Ry
     hartree contribution      =     138.20052122 Ry
     xc contribution           =    -166.39957557 Ry
     ewald contribution        =    -205.41790741 Ry

     convergence has been achieved in   6 iterations

     Writing all to output data dir calculations_bands_val/myprefix.save/
 
     init_run     :      4.07s CPU      1.31s WALL (       1 calls)
     electrons    :     25.09s CPU      6.61s WALL (       1 calls)

     Called by init_run:
     wfcinit      :      0.77s CPU      0.21s WALL (       1 calls)
     wfcinit:atom :      0.00s CPU      0.00s WALL (       5 calls)
     wfcinit:wfcr :      0.74s CPU      0.19s WALL (       5 calls)
     potinit      :      0.73s CPU      0.19s WALL (       1 calls)
     hinit0       :      2.21s CPU      0.78s WALL (       1 calls)

     Called by electrons:
     c_bands      :     19.03s CPU      4.93s WALL (       7 calls)
     sum_band     :      4.35s CPU      1.19s WALL (       7 calls)
     v_of_rho     :      0.48s CPU      0.13s WALL (       7 calls)
     v_h          :      0.04s CPU      0.01s WALL (       7 calls)
     v_xc         :      0.45s CPU      0.12s WALL (       7 calls)
     newd         :      1.34s CPU      0.38s WALL (       7 calls)
     mix_rho      :      0.08s CPU      0.02s WALL (       7 calls)

     Called by c_bands:
     init_us_2    :      0.09s CPU      0.02s WALL (      75 calls)
     init_us_2:cp :      0.08s CPU      0.02s WALL (      75 calls)
     cegterg      :     18.16s CPU      4.71s WALL (      35 calls)

     Called by sum_band:
     sum_band:wei :      0.00s CPU      0.00s WALL (       7 calls)
     sum_band:loo :      2.44s CPU      0.63s WALL (       7 calls)
     sum_band:buf :      0.03s CPU      0.01s WALL (      35 calls)
     sum_band:ini :      0.04s CPU      0.01s WALL (      35 calls)
     sum_band:cal :      0.10s CPU      0.03s WALL (      35 calls)
     sum_band:bec :      0.02s CPU      0.01s WALL (      35 calls)
     addusdens    :      1.13s CPU      0.35s WALL (       7 calls)
     addusd:skk   :      0.01s CPU      0.00s WALL (      21 calls)
     addusd:dgemm :      0.19s CPU      0.11s WALL (      21 calls)
     addusd:qvan2 :      0.85s CPU      0.22s WALL (      21 calls)

     Called by *egterg:
     cdiaghg      :      3.75s CPU      0.98s WALL (     241 calls)
     cegterg:over :      0.65s CPU      0.17s WALL (     211 calls)
     cegterg:upda :      0.43s CPU      0.11s WALL (     211 calls)
     cegterg:last :      0.64s CPU      0.16s WALL (      89 calls)
     cdiaghg:chol :      0.27s CPU      0.07s WALL (     241 calls)
     cdiaghg:inve :      0.06s CPU      0.01s WALL (     241 calls)
     cdiaghg:para :      0.54s CPU      0.14s WALL (     482 calls)
     h_psi        :     12.83s CPU      3.32s WALL (     251 calls)
     s_psi        :      0.20s CPU      0.05s WALL (     251 calls)
     g_psi        :      0.02s CPU      0.01s WALL (     211 calls)

     Called by h_psi:
     h_psi:calbec :      0.40s CPU      0.10s WALL (     251 calls)
     vloc_psi     :     12.13s CPU      3.14s WALL (     251 calls)
     add_vuspsi   :      0.26s CPU      0.07s WALL (     251 calls)

     General routines
     calbec       :      0.49s CPU      0.13s WALL (     286 calls)
     fft          :      1.53s CPU      0.47s WALL (      90 calls)
     ffts         :      0.42s CPU      0.11s WALL (      14 calls)
     fftw         :     12.35s CPU      3.20s WALL (   15230 calls)
     interpolate  :      0.44s CPU      0.12s WALL (       7 calls)
 
     Parallel routines
 
     PWSCF        :     30.17s CPU      8.41s WALL

 
   This run was terminated on:  12:27:49   4Jun2023            

=------------------------------------------------------------------------------=
   JOB DONE.
=------------------------------------------------------------------------------=
