
     Program PWSCF v.7.0 starts on  4Jun2023 at 15:17:13 

     This program is part of the open-source Quantum ESPRESSO suite
     for quantum simulation of materials; please cite
         "P. Giannozzi et al., J. Phys.:Condens. Matter 21 395502 (2009);
         "P. Giannozzi et al., J. Phys.:Condens. Matter 29 465901 (2017);
         "P. Giannozzi et al., J. Chem. Phys. 152 154105 (2020);
          URL http://www.quantum-espresso.org", 
     in publications or presentations arising from this work. More details at
     http://www.quantum-espresso.org/quote

     Parallel version (MPI & OpenMP), running on      32 processor cores
     Number of MPI processes:                 8
     Threads/MPI process:                     4

     MPI processes distributed on     1 nodes
     K-points division:     npool     =       2
     R & G space division:  proc/nbgrp/npool/nimage =       4
     142862 MiB available memory on the printing compute node when the environment starts
 
     Reading input from espresso_884.pwi
Warning: card &CELL ignored
Warning: card / ignored

     Current dimensions of program PWSCF are:
     Max number of different atomic species (ntypx) = 10
     Max number of k-points (npk) =  40000
     Max angular momentum in pseudopotentials (lmaxx) =  4
     Message from routine setup:
     using ibrav=0 with symmetry is DISCOURAGED, use correct ibrav instead

     Subspace diagonalization in iterative solution of the eigenvalue problem:
     one sub-group per band group will be used
     scalapack distributed-memory algorithm (size of sub-group:  2*  2 procs)

 
     Parallelization info
     --------------------
     sticks:   dense  smooth     PW     G-vecs:    dense   smooth      PW
     Min         745     373    110                24707     8722    1410
     Max         746     374    111                24709     8723    1411
     Sum        2983    1493    441                98833    34891    5641
 
     Using Slab Decomposition
 


     bravais-lattice index     =            0
     lattice parameter (alat)  =      12.7557  a.u.
     unit-cell volume          =    1573.4531 (a.u.)^3
     number of atoms/cell      =            8
     number of atomic types    =            3
     number of electrons       =        76.00
     number of Kohn-Sham states=           64
     kinetic-energy cutoff     =      30.0000  Ry
     charge density cutoff     =     240.0000  Ry
     scf convergence threshold =      1.0E-06
     mixing beta               =       0.7000
     number of iterations used =            8  plain     mixing
     Exchange-correlation=  SLA  PW   PBX  PBC
                           (   1   4   3   4   0   0   0)

     celldm(1)=  12.755665  celldm(2)=   0.000000  celldm(3)=   0.000000
     celldm(4)=   0.000000  celldm(5)=   0.000000  celldm(6)=   0.000000

     crystal axes: (cart. coord. in units of alat)
               a(1) = (   1.000000   0.000000   0.000000 )  
               a(2) = (  -0.275190   0.959092   0.000000 )  
               a(3) = (   0.275190   0.543156   0.790468 )  

     reciprocal axes: (cart. coord. in units 2 pi/alat)
               b(1) = (  1.000000  0.286928 -0.545293 )  
               b(2) = (  0.000000  1.042653 -0.716440 )  
               b(3) = (  0.000000  0.000000  1.265074 )  


     PseudoPot. # 1 for Tl read from file:
     /home/pragov/projects/rrg-bengioy-ad/pragov/crystal_structure_design/SSSP/Tl_pbe_v1.2.uspp.F.UPF
     MD5 check sum: b76cf1f7e72655a2b2c53cf6385d7059
     Pseudo is Ultrasoft + core correction, Zval = 13.0
     Generated by new atomic code, or converted to UPF format
     Using radial grid of  899 points,  6 beta functions with: 
                l(1) =   0
                l(2) =   0
                l(3) =   1
                l(4) =   1
                l(5) =   2
                l(6) =   2
     Q(r) pseudized with  6 coefficients,  rinner =    1.100   1.100   1.100
                                                       1.100   1.100

     PseudoPot. # 2 for Se read from file:
     /home/pragov/projects/rrg-bengioy-ad/pragov/crystal_structure_design/SSSP/Se_pbe_v1.uspp.F.UPF
     MD5 check sum: 1b3568f3a8ae88f9a2a0ad0698632c85
     Pseudo is Ultrasoft + core correction, Zval =  6.0
     Generated by new atomic code, or converted to UPF format
     Using radial grid of  877 points,  6 beta functions with: 
                l(1) =   0
                l(2) =   0
                l(3) =   1
                l(4) =   1
                l(5) =   2
                l(6) =   2
     Q(r) pseudized with  8 coefficients,  rinner =    1.300   1.300   1.300
                                                       1.300   1.300

     PseudoPot. # 3 for S  read from file:
     /home/pragov/projects/rrg-bengioy-ad/pragov/crystal_structure_design/SSSP/s_pbe_v1.4.uspp.F.UPF
     MD5 check sum: 88d86576ff6df21479756cfb9bdac1df
     Pseudo is Ultrasoft + core correction, Zval =  6.0
     Generated by new atomic code, or converted to UPF format
     Using radial grid of  907 points,  6 beta functions with: 
                l(1) =   0
                l(2) =   0
                l(3) =   1
                l(4) =   1
                l(5) =   2
                l(6) =   2
     Q(r) pseudized with  8 coefficients,  rinner =    1.300   1.300   1.300
                                                       1.300   1.300

     atomic species   valence    mass     pseudopotential
        Tl            13.00   204.38000     Tl( 1.00)
        Se             6.00    78.97100     Se( 1.00)
        S              6.00    32.06000     S ( 1.00)

      2 Sym. Ops., with inversion, found


                                    s                        frac. trans.

      isym =  1     identity                                     

 cryst.   s( 1) = (     1          0          0      )
                  (     0          1          0      )
                  (     0          0          1      )

 cart.    s( 1) = (  1.0000000  0.0000000 -0.0000000 )
                  (  0.0000000  1.0000000  0.0000000 )
                  (  0.0000000  0.0000000  1.0000000 )


      isym =  2     inversion                                    

 cryst.   s( 2) = (    -1          0          0      )
                  (     0         -1          0      )
                  (     0          0         -1      )

 cart.    s( 2) = ( -1.0000000 -0.0000000  0.0000000 )
                  (  0.0000000 -1.0000000 -0.0000000 )
                  (  0.0000000  0.0000000 -1.0000000 )


   Cartesian axes

     site n.     atom                  positions (alat units)
         1           Tl  tau(   1) = (   1.1375951   0.6471400   0.5928509  )
         2           Tl  tau(   2) = (  -0.1375951   0.8551081   0.1976170  )
         3           Tl  tau(   3) = (   0.4969415   0.3778734   0.1932243  )
         4           Tl  tau(   4) = (   0.5030585   1.1243747   0.5972435  )
         5           Se  tau(   5) = (   0.1057483   1.1570282   0.5351870  )
         6           Se  tau(   6) = (   0.8942517   0.3452199   0.2552808  )
         7           S   tau(   7) = (   0.6375951   0.7682377   0.6565713  )
         8           S   tau(   8) = (   0.3624049   0.7340104   0.1338966  )

   Crystallographic axes

     site n.     atom                  positions (cryst. coord.)
         1           Tl  tau(   1) = (  1.0000000  0.2500000  0.7500000  )
         2           Tl  tau(   2) = ( -0.0000000  0.7500000  0.2500000  )
         3           Tl  tau(   3) = (  0.5000000  0.2555570  0.2444430  )
         4           Tl  tau(   4) = (  0.5000000  0.7444430  0.7555570  )
         5           Se  tau(   5) = (  0.1458980  0.8229490  0.6770510  )
         6           Se  tau(   6) = (  0.8541020  0.1770510  0.3229490  )
         7           S   tau(   7) = (  0.5000000  0.3306110  0.8306110  )
         8           S   tau(   8) = (  0.5000000  0.6693890  0.1693890  )

     number of k points=    14
                       cart. coord. in units 2pi/alat
        k(    1) = (   0.0000000   0.0000000   0.0000000), wk =   0.0740741
        k(    2) = (   0.0000000   0.0000000   0.4216912), wk =   0.1481481
        k(    3) = (   0.0000000   0.3475509  -0.2388134), wk =   0.1481481
        k(    4) = (   0.0000000   0.3475509   0.1828778), wk =   0.1481481
        k(    5) = (   0.0000000   0.3475509  -0.6605046), wk =   0.1481481
        k(    6) = (   0.3333333   0.0956426  -0.1817645), wk =   0.1481481
        k(    7) = (   0.3333333   0.0956426   0.2399267), wk =   0.1481481
        k(    8) = (   0.3333333   0.0956426  -0.6034557), wk =   0.1481481
        k(    9) = (   0.3333333   0.4431935  -0.4205779), wk =   0.1481481
        k(   10) = (   0.3333333   0.4431935   0.0011133), wk =   0.1481481
        k(   11) = (   0.3333333   0.4431935  -0.8422691), wk =   0.1481481
        k(   12) = (   0.3333333  -0.2519083   0.0570490), wk =   0.1481481
        k(   13) = (   0.3333333  -0.2519083   0.4787401), wk =   0.1481481
        k(   14) = (   0.3333333  -0.2519083  -0.3646422), wk =   0.1481481

                       cryst. coord.
        k(    1) = (   0.0000000   0.0000000   0.0000000), wk =   0.0740741
        k(    2) = (   0.0000000   0.0000000   0.3333333), wk =   0.1481481
        k(    3) = (   0.0000000   0.3333333  -0.0000000), wk =   0.1481481
        k(    4) = (   0.0000000   0.3333333   0.3333333), wk =   0.1481481
        k(    5) = (   0.0000000   0.3333333  -0.3333333), wk =   0.1481481
        k(    6) = (   0.3333333   0.0000000  -0.0000000), wk =   0.1481481
        k(    7) = (   0.3333333   0.0000000   0.3333333), wk =   0.1481481
        k(    8) = (   0.3333333   0.0000000  -0.3333333), wk =   0.1481481
        k(    9) = (   0.3333333   0.3333333  -0.0000000), wk =   0.1481481
        k(   10) = (   0.3333333   0.3333333   0.3333333), wk =   0.1481481
        k(   11) = (   0.3333333   0.3333333  -0.3333333), wk =   0.1481481
        k(   12) = (   0.3333333  -0.3333333  -0.0000000), wk =   0.1481481
        k(   13) = (   0.3333333  -0.3333333   0.3333333), wk =   0.1481481
        k(   14) = (   0.3333333  -0.3333333  -0.3333333), wk =   0.1481481

     Dense  grid:    98833 G-vectors     FFT dimensions: (  64,  64,  64)

     Smooth grid:    34891 G-vectors     FFT dimensions: (  45,  45,  45)

     Dynamical RAM for                 wfc:       1.07 MB

     Dynamical RAM for     wfc (w. buffer):       8.52 MB

     Dynamical RAM for           str. fact:       1.13 MB

     Dynamical RAM for           local pot:       0.00 MB

     Dynamical RAM for          nlocal pot:       2.40 MB

     Dynamical RAM for                qrad:       3.73 MB

     Dynamical RAM for          rho,v,vnew:       2.63 MB

     Dynamical RAM for               rhoin:       0.88 MB

     Dynamical RAM for            rho*nmix:       6.03 MB

     Dynamical RAM for           G-vectors:       1.48 MB

     Dynamical RAM for          h,s,v(r/c):       0.19 MB

     Dynamical RAM for          <psi|beta>:       0.14 MB

     Dynamical RAM for                 psi:       2.13 MB

     Dynamical RAM for                hpsi:       2.13 MB

     Dynamical RAM for                spsi:       2.13 MB

     Dynamical RAM for      wfcinit/wfcrot:       2.23 MB

     Dynamical RAM for           addusdens:      36.00 MB

     Estimated static dynamical RAM per process >      24.78 MB

     Estimated max dynamical RAM per process >      66.82 MB

     Estimated total dynamical RAM >     510.41 MB

     Check: negative core charge=   -0.000004

     Initial potential from superposition of free atoms

     starting charge      75.9803, renormalised to      76.0000

     negative rho (up, down):  1.957E-01 0.000E+00
     Starting wfcs are   52 randomized atomic wfcs +   12 random wfcs

     total cpu time spent up to now is        2.1 secs

     Self-consistent Calculation

     iteration #  1     ecut=    30.00 Ry     beta= 0.70
     Davidson diagonalization with overlap

---- Real-time Memory Report at c_bands before calling an iterative solver
           204 MiB given to the printing process from OS
             0 MiB allocation reported by mallinfo(arena+hblkhd)
        142189 MiB available memory on the node where the printing process lives
------------------
     ethr =  1.00E-02,  avg # of iterations =  8.1

     Threshold (ethr) on eigenvalues was too large:
     Diagonalizing with lowered threshold

     Davidson diagonalization with overlap

---- Real-time Memory Report at c_bands before calling an iterative solver
           254 MiB given to the printing process from OS
             0 MiB allocation reported by mallinfo(arena+hblkhd)
        141936 MiB available memory on the node where the printing process lives
------------------
     ethr =  4.72E-04,  avg # of iterations =  7.8

     negative rho (up, down):  2.037E-01 0.000E+00

     total cpu time spent up to now is        5.2 secs

     total energy              =    -715.21293608 Ry
     estimated scf accuracy    <       0.35501536 Ry

     iteration #  2     ecut=    30.00 Ry     beta= 0.70
     Davidson diagonalization with overlap

---- Real-time Memory Report at c_bands before calling an iterative solver
           267 MiB given to the printing process from OS
             0 MiB allocation reported by mallinfo(arena+hblkhd)
        141747 MiB available memory on the node where the printing process lives
------------------
     ethr =  4.67E-04,  avg # of iterations =  3.9

     negative rho (up, down):  2.041E-01 0.000E+00

     total cpu time spent up to now is        6.4 secs

     total energy              =    -715.27972071 Ry
     estimated scf accuracy    <       0.34777964 Ry

     iteration #  3     ecut=    30.00 Ry     beta= 0.70
     Davidson diagonalization with overlap

---- Real-time Memory Report at c_bands before calling an iterative solver
           268 MiB given to the printing process from OS
             0 MiB allocation reported by mallinfo(arena+hblkhd)
        141725 MiB available memory on the node where the printing process lives
------------------
     ethr =  4.58E-04,  avg # of iterations =  2.1

     negative rho (up, down):  2.046E-01 0.000E+00

     total cpu time spent up to now is        7.4 secs

     total energy              =    -715.35226370 Ry
     estimated scf accuracy    <       0.04927593 Ry

     iteration #  4     ecut=    30.00 Ry     beta= 0.70
     Davidson diagonalization with overlap

---- Real-time Memory Report at c_bands before calling an iterative solver
           270 MiB given to the printing process from OS
             0 MiB allocation reported by mallinfo(arena+hblkhd)
        141710 MiB available memory on the node where the printing process lives
------------------
     ethr =  6.48E-05,  avg # of iterations =  5.0

     negative rho (up, down):  2.054E-01 0.000E+00

     total cpu time spent up to now is        8.5 secs

     total energy              =    -715.36274233 Ry
     estimated scf accuracy    <       0.00252263 Ry

     iteration #  5     ecut=    30.00 Ry     beta= 0.70
     Davidson diagonalization with overlap

---- Real-time Memory Report at c_bands before calling an iterative solver
           273 MiB given to the printing process from OS
             0 MiB allocation reported by mallinfo(arena+hblkhd)
        141691 MiB available memory on the node where the printing process lives
------------------
     c_bands:  1 eigenvalues not converged
     ethr =  3.32E-06,  avg # of iterations = 10.9

     negative rho (up, down):  2.055E-01 0.000E+00

     total cpu time spent up to now is       10.2 secs

     total energy              =    -715.36330436 Ry
     estimated scf accuracy    <       0.00020347 Ry

     iteration #  6     ecut=    30.00 Ry     beta= 0.70
     Davidson diagonalization with overlap

---- Real-time Memory Report at c_bands before calling an iterative solver
           277 MiB given to the printing process from OS
             0 MiB allocation reported by mallinfo(arena+hblkhd)
        141641 MiB available memory on the node where the printing process lives
------------------
     ethr =  2.68E-07,  avg # of iterations =  7.1

     negative rho (up, down):  2.055E-01 0.000E+00

     total cpu time spent up to now is       11.6 secs

     total energy              =    -715.36340976 Ry
     estimated scf accuracy    <       0.00001377 Ry

     iteration #  7     ecut=    30.00 Ry     beta= 0.70
     Davidson diagonalization with overlap

---- Real-time Memory Report at c_bands before calling an iterative solver
           279 MiB given to the printing process from OS
             0 MiB allocation reported by mallinfo(arena+hblkhd)
        141637 MiB available memory on the node where the printing process lives
------------------
     ethr =  1.81E-08,  avg # of iterations =  4.6

     negative rho (up, down):  2.056E-01 0.000E+00

     total cpu time spent up to now is       12.9 secs

     End of self-consistent calculation

          k = 0.0000 0.0000 0.0000 (  4351 PWs)   bands (ev):

    -6.5254  -6.1827  -6.1238  -6.0445  -4.8560  -4.7374  -4.6909  -4.6893
    -4.6801  -4.6344  -4.4956  -4.4735  -4.3970  -4.3559  -4.2959  -4.2180
    -4.2175  -4.2150  -4.1763  -4.1745  -4.0952  -3.9579  -3.8916  -3.6473
     0.5555   0.6150   1.7028   2.4553   2.7342   3.1520   3.3045   3.3881
     3.4763   3.8478   5.2583   5.3457   5.5515   5.5884   7.6482   8.1736
     9.4738  10.3801  10.7167  11.0807  11.5241  11.5302  11.5579  12.6422
    12.6640  12.8853  14.1178  14.1513  14.2018  14.3212  14.5822  15.4631
    15.7329  15.8040  16.2150  16.5131  16.7260  16.9971  17.0911  17.1151

     occupation numbers 
     1.0000   1.0000   1.0000   1.0000   1.0000   1.0000   1.0000   1.0000
     1.0000   1.0000   1.0000   1.0000   1.0000   1.0000   1.0000   1.0000
     1.0000   1.0000   1.0000   1.0000   1.0000   1.0000   1.0000   1.0000
     1.0000   1.0000   1.0000   1.0000   1.0000   1.0000   1.0000   1.0000
     1.0000   1.0000   1.0000   1.0000   1.0000   1.0000   0.0000   0.0000
     0.0000   0.0000   0.0000   0.0000   0.0000   0.0000   0.0000   0.0000
     0.0000   0.0000   0.0000   0.0000   0.0000   0.0000   0.0000   0.0000
     0.0000   0.0000   0.0000   0.0000   0.0000   0.0000   0.0000   0.0000

          k = 0.0000 0.0000 0.4217 (  4364 PWs)   bands (ev):

    -6.3383  -6.1808  -6.1169  -6.0427  -4.7821  -4.7591  -4.7447  -4.6708
    -4.6426  -4.6400  -4.5743  -4.3991  -4.3884  -4.3315  -4.2970  -4.2388
    -4.2348  -4.2252  -4.2199  -4.2125  -4.1983  -4.1144  -3.9357  -3.6996
     0.4049   0.6710   1.1639   1.3717   3.2143   3.4668   4.0247   4.3555
     4.4981   4.7105   5.1593   5.2951   5.4246   5.5904   7.4832   7.9394
     9.1913   9.7298  10.1758  10.3457  10.7769  11.1827  11.4202  11.6456
    12.1082  12.7043  13.0204  13.0989  14.2946  14.4533  15.3209  15.5306
    15.5997  16.1709  16.4503  16.8643  16.9248  16.9717  17.4672  17.6448

     occupation numbers 
     1.0000   1.0000   1.0000   1.0000   1.0000   1.0000   1.0000   1.0000
     1.0000   1.0000   1.0000   1.0000   1.0000   1.0000   1.0000   1.0000
     1.0000   1.0000   1.0000   1.0000   1.0000   1.0000   1.0000   1.0000
     1.0000   1.0000   1.0000   1.0000   1.0000   1.0000   1.0000   1.0000
     1.0000   1.0000   1.0000   1.0000   1.0000   1.0000   0.0000   0.0000
     0.0000   0.0000   0.0000   0.0000   0.0000   0.0000   0.0000   0.0000
     0.0000   0.0000   0.0000   0.0000   0.0000   0.0000   0.0000   0.0000
     0.0000   0.0000   0.0000   0.0000   0.0000   0.0000   0.0000   0.0000

          k = 0.0000 0.3476-0.2388 (  4364 PWs)   bands (ev):

    -6.3383  -6.1808  -6.1169  -6.0427  -4.7821  -4.7591  -4.7447  -4.6708
    -4.6426  -4.6400  -4.5743  -4.3991  -4.3884  -4.3315  -4.2970  -4.2388
    -4.2348  -4.2252  -4.2199  -4.2125  -4.1983  -4.1144  -3.9357  -3.6996
     0.4049   0.6710   1.1639   1.3717   3.2143   3.4668   4.0247   4.3555
     4.4981   4.7105   5.1593   5.2951   5.4246   5.5904   7.4832   7.9394
     9.1913   9.7298  10.1758  10.3457  10.7769  11.1827  11.4202  11.6456
    12.1082  12.7043  13.0204  13.0989  14.2946  14.4533  15.3209  15.5306
    15.5997  16.1709  16.4504  16.8643  16.9248  16.9717  17.4672  17.6448

     occupation numbers 
     1.0000   1.0000   1.0000   1.0000   1.0000   1.0000   1.0000   1.0000
     1.0000   1.0000   1.0000   1.0000   1.0000   1.0000   1.0000   1.0000
     1.0000   1.0000   1.0000   1.0000   1.0000   1.0000   1.0000   1.0000
     1.0000   1.0000   1.0000   1.0000   1.0000   1.0000   1.0000   1.0000
     1.0000   1.0000   1.0000   1.0000   1.0000   1.0000   0.0000   0.0000
     0.0000   0.0000   0.0000   0.0000   0.0000   0.0000   0.0000   0.0000
     0.0000   0.0000   0.0000   0.0000   0.0000   0.0000   0.0000   0.0000
     0.0000   0.0000   0.0000   0.0000   0.0000   0.0000   0.0000   0.0000

          k = 0.0000 0.3476 0.1829 (  4365 PWs)   bands (ev):

    -6.4268  -6.1691  -6.1537  -5.9953  -4.8233  -4.7435  -4.6915  -4.6803
    -4.6727  -4.6263  -4.4969  -4.4626  -4.3858  -4.3648  -4.2907  -4.2661
    -4.2242  -4.2233  -4.1787  -4.1750  -4.1047  -3.9937  -3.9384  -3.8408
     0.3558   0.5114   1.1028   1.8484   3.0174   3.4309   4.0837   4.2982
     4.4103   4.6449   4.9650   5.1446   5.7420   5.8073   7.4821   7.7754
     8.4339   9.8985   9.9735  10.4074  10.9792  11.0992  11.6230  11.6605
    12.3063  12.4763  13.8304  14.0694  14.4940  14.6420  14.6563  15.7049
    16.0449  16.1291  16.8111  16.8290  17.0547  17.6309  17.7179  17.9173

     occupation numbers 
     1.0000   1.0000   1.0000   1.0000   1.0000   1.0000   1.0000   1.0000
     1.0000   1.0000   1.0000   1.0000   1.0000   1.0000   1.0000   1.0000
     1.0000   1.0000   1.0000   1.0000   1.0000   1.0000   1.0000   1.0000
     1.0000   1.0000   1.0000   1.0000   1.0000   1.0000   1.0000   1.0000
     1.0000   1.0000   1.0000   1.0000   1.0000   1.0000   0.0000   0.0000
     0.0000   0.0000   0.0000   0.0000   0.0000   0.0000   0.0000   0.0000
     0.0000   0.0000   0.0000   0.0000   0.0000   0.0000   0.0000   0.0000
     0.0000   0.0000   0.0000   0.0000   0.0000   0.0000   0.0000   0.0000

          k = 0.0000 0.3476-0.6605 (  4357 PWs)   bands (ev):

    -6.2674  -6.1741  -6.1424  -6.0237  -4.7805  -4.7595  -4.7467  -4.6606
    -4.6395  -4.6109  -4.5719  -4.4114  -4.3962  -4.3048  -4.2789  -4.2638
    -4.2412  -4.2263  -4.2178  -4.2124  -4.1966  -4.1740  -3.9572  -3.8128
     0.3887   0.6756   0.6842   1.4096   3.7851   3.8960   4.2172   4.5326
     4.6642   4.8485   5.0218   5.0946   5.2881   5.9136   7.3593   7.9288
     9.1648   9.4650   9.5226  10.5493  10.7907  10.8156  11.0878  11.3844
    11.4903  12.4520  12.5064  12.7412  15.0765  15.1192  15.2941  15.5222
    15.7770  16.3149  16.4261  16.7500  17.3123  17.4685  17.5438  18.1826

     occupation numbers 
     1.0000   1.0000   1.0000   1.0000   1.0000   1.0000   1.0000   1.0000
     1.0000   1.0000   1.0000   1.0000   1.0000   1.0000   1.0000   1.0000
     1.0000   1.0000   1.0000   1.0000   1.0000   1.0000   1.0000   1.0000
     1.0000   1.0000   1.0000   1.0000   1.0000   1.0000   1.0000   1.0000
     1.0000   1.0000   1.0000   1.0000   1.0000   1.0000   0.0000   0.0000
     0.0000   0.0000   0.0000   0.0000   0.0000   0.0000   0.0000   0.0000
     0.0000   0.0000   0.0000   0.0000   0.0000   0.0000   0.0000   0.0000
     0.0000   0.0000   0.0000   0.0000   0.0000   0.0000   0.0000   0.0000

          k = 0.3333 0.0956-0.1818 (  4365 PWs)   bands (ev):

    -6.3877  -6.2019  -6.1166  -6.0306  -4.8229  -4.7452  -4.6908  -4.6809
    -4.6732  -4.6263  -4.4969  -4.4626  -4.4254  -4.3426  -4.3424  -4.2549
    -4.2244  -4.2214  -4.1769  -4.1762  -4.1043  -4.0578  -4.0032  -3.6690
     0.3105   0.5658   1.1243   1.9608   3.0278   3.5156   4.0875   4.2181
     4.3117   4.6279   4.8795   5.1501   5.6230   5.7120   7.6079   7.6304
     8.6937   9.7053   9.9765  10.3998  11.3098  11.3435  11.5349  11.6289
    12.0976  12.6213  13.7770  14.0542  14.6077  14.6582  14.7792  15.5813
    15.8934  16.0473  16.6686  16.9220  17.2734  17.6947  17.8929  17.9276

     occupation numbers 
     1.0000   1.0000   1.0000   1.0000   1.0000   1.0000   1.0000   1.0000
     1.0000   1.0000   1.0000   1.0000   1.0000   1.0000   1.0000   1.0000
     1.0000   1.0000   1.0000   1.0000   1.0000   1.0000   1.0000   1.0000
     1.0000   1.0000   1.0000   1.0000   1.0000   1.0000   1.0000   1.0000
     1.0000   1.0000   1.0000   1.0000   1.0000   1.0000   0.0000   0.0000
     0.0000   0.0000   0.0000   0.0000   0.0000   0.0000   0.0000   0.0000
     0.0000   0.0000   0.0000   0.0000   0.0000   0.0000   0.0000   0.0000
     0.0000   0.0000   0.0000   0.0000   0.0000   0.0000   0.0000   0.0000

          k = 0.3333 0.0956 0.2399 (  4364 PWs)   bands (ev):

    -6.3383  -6.1808  -6.1169  -6.0427  -4.7821  -4.7591  -4.7447  -4.6708
    -4.6426  -4.6400  -4.5743  -4.3991  -4.3884  -4.3315  -4.2970  -4.2388
    -4.2348  -4.2252  -4.2199  -4.2125  -4.1983  -4.1144  -3.9357  -3.6996
     0.4049   0.6710   1.1639   1.3717   3.2143   3.4668   4.0247   4.3555
     4.4981   4.7105   5.1593   5.2951   5.4246   5.5905   7.4832   7.9394
     9.1913   9.7298  10.1758  10.3457  10.7769  11.1827  11.4202  11.6456
    12.1082  12.7043  13.0204  13.0989  14.2946  14.4533  15.3209  15.5306
    15.5997  16.1709  16.4504  16.8643  16.9248  16.9717  17.4672  17.6448

     occupation numbers 
     1.0000   1.0000   1.0000   1.0000   1.0000   1.0000   1.0000   1.0000
     1.0000   1.0000   1.0000   1.0000   1.0000   1.0000   1.0000   1.0000
     1.0000   1.0000   1.0000   1.0000   1.0000   1.0000   1.0000   1.0000
     1.0000   1.0000   1.0000   1.0000   1.0000   1.0000   1.0000   1.0000
     1.0000   1.0000   1.0000   1.0000   1.0000   1.0000   0.0000   0.0000
     0.0000   0.0000   0.0000   0.0000   0.0000   0.0000   0.0000   0.0000
     0.0000   0.0000   0.0000   0.0000   0.0000   0.0000   0.0000   0.0000
     0.0000   0.0000   0.0000   0.0000   0.0000   0.0000   0.0000   0.0000

          k = 0.3333 0.0956-0.6035 (  4360 PWs)   bands (ev):

    -6.2424  -6.1794  -6.1061  -6.0750  -4.7808  -4.7645  -4.7445  -4.6610
    -4.6393  -4.6141  -4.5634  -4.4176  -4.3966  -4.3199  -4.2956  -4.2522
    -4.2320  -4.2267  -4.2224  -4.2172  -4.1951  -4.1749  -4.0429  -3.7121
     0.4354   0.6065   0.7643   1.4027   3.6882   3.8791   4.1551   4.5961
     4.7095   4.9567   5.0664   5.2316   5.2753   5.5989   7.2078   8.0283
     9.1556   9.5168   9.5507  10.4595  10.8150  10.8608  11.2405  11.3818
    11.4648  12.4148  12.6507  12.6609  14.8916  15.2059  15.3047  15.6446
    15.6963  16.5385  16.6232  16.8676  17.1449  17.3393  17.3510  18.0651

     occupation numbers 
     1.0000   1.0000   1.0000   1.0000   1.0000   1.0000   1.0000   1.0000
     1.0000   1.0000   1.0000   1.0000   1.0000   1.0000   1.0000   1.0000
     1.0000   1.0000   1.0000   1.0000   1.0000   1.0000   1.0000   1.0000
     1.0000   1.0000   1.0000   1.0000   1.0000   1.0000   1.0000   1.0000
     1.0000   1.0000   1.0000   1.0000   1.0000   1.0000   0.0000   0.0000
     0.0000   0.0000   0.0000   0.0000   0.0000   0.0000   0.0000   0.0000
     0.0000   0.0000   0.0000   0.0000   0.0000   0.0000   0.0000   0.0000
     0.0000   0.0000   0.0000   0.0000   0.0000   0.0000   0.0000   0.0000

          k = 0.3333 0.4432-0.4206 (  4360 PWs)   bands (ev):

    -6.2424  -6.1794  -6.1061  -6.0750  -4.7808  -4.7645  -4.7445  -4.6610
    -4.6393  -4.6141  -4.5634  -4.4176  -4.3966  -4.3199  -4.2956  -4.2522
    -4.2320  -4.2267  -4.2224  -4.2172  -4.1951  -4.1749  -4.0429  -3.7121
     0.4354   0.6065   0.7643   1.4027   3.6882   3.8791   4.1551   4.5961
     4.7095   4.9567   5.0664   5.2316   5.2753   5.5989   7.2078   8.0283
     9.1556   9.5168   9.5507  10.4595  10.8150  10.8608  11.2405  11.3818
    11.4648  12.4148  12.6507  12.6609  14.8916  15.2059  15.3047  15.6446
    15.6963  16.5385  16.6232  16.8676  17.1448  17.3393  17.3510  18.0651

     occupation numbers 
     1.0000   1.0000   1.0000   1.0000   1.0000   1.0000   1.0000   1.0000
     1.0000   1.0000   1.0000   1.0000   1.0000   1.0000   1.0000   1.0000
     1.0000   1.0000   1.0000   1.0000   1.0000   1.0000   1.0000   1.0000
     1.0000   1.0000   1.0000   1.0000   1.0000   1.0000   1.0000   1.0000
     1.0000   1.0000   1.0000   1.0000   1.0000   1.0000   0.0000   0.0000
     0.0000   0.0000   0.0000   0.0000   0.0000   0.0000   0.0000   0.0000
     0.0000   0.0000   0.0000   0.0000   0.0000   0.0000   0.0000   0.0000
     0.0000   0.0000   0.0000   0.0000   0.0000   0.0000   0.0000   0.0000

          k = 0.3333 0.4432 0.0011 (  4380 PWs)   bands (ev):

    -6.3189  -6.1752  -6.1207  -5.9966  -4.8023  -4.7549  -4.6922  -4.6815
    -4.6774  -4.6354  -4.4928  -4.4671  -4.3806  -4.3491  -4.3038  -4.2434
    -4.2222  -4.2117  -4.1778  -4.1753  -4.1218  -4.1060  -4.0878  -3.8492
     0.0119   0.3248   0.7193   2.5169   3.2657   3.9351   4.4266   4.7476
     4.7761   4.8647   5.0778   5.1002   5.1926   6.0416   7.6416   7.7941
     8.0350   9.4785   9.8367   9.8484   9.9283  10.9328  11.3745  11.5414
    11.9283  12.3714  12.9594  13.9691  14.0673  14.8632  15.1391  15.2548
    15.4691  15.9824  16.0141  16.6876  17.2420  17.5723  18.1115  18.4841

     occupation numbers 
     1.0000   1.0000   1.0000   1.0000   1.0000   1.0000   1.0000   1.0000
     1.0000   1.0000   1.0000   1.0000   1.0000   1.0000   1.0000   1.0000
     1.0000   1.0000   1.0000   1.0000   1.0000   1.0000   1.0000   1.0000
     1.0000   1.0000   1.0000   1.0000   1.0000   1.0000   1.0000   1.0000
     1.0000   1.0000   1.0000   1.0000   1.0000   1.0000   0.0000   0.0000
     0.0000   0.0000   0.0000   0.0000   0.0000   0.0000   0.0000   0.0000
     0.0000   0.0000   0.0000   0.0000   0.0000   0.0000   0.0000   0.0000
     0.0000   0.0000   0.0000   0.0000   0.0000   0.0000   0.0000   0.0000

          k = 0.3333 0.4432-0.8423 (  4357 PWs)   bands (ev):

    -6.2674  -6.1741  -6.1424  -6.0237  -4.7805  -4.7595  -4.7467  -4.6606
    -4.6395  -4.6109  -4.5719  -4.4114  -4.3962  -4.3048  -4.2789  -4.2638
    -4.2412  -4.2263  -4.2178  -4.2124  -4.1966  -4.1740  -3.9572  -3.8128
     0.3887   0.6756   0.6842   1.4096   3.7851   3.8960   4.2172   4.5326
     4.6642   4.8485   5.0218   5.0946   5.2881   5.9136   7.3593   7.9288
     9.1648   9.4650   9.5226  10.5493  10.7907  10.8156  11.0878  11.3844
    11.4903  12.4520  12.5064  12.7412  15.0765  15.1192  15.2941  15.5223
    15.7770  16.3149  16.4261  16.7500  17.3124  17.4685  17.5439  18.1821

     occupation numbers 
     1.0000   1.0000   1.0000   1.0000   1.0000   1.0000   1.0000   1.0000
     1.0000   1.0000   1.0000   1.0000   1.0000   1.0000   1.0000   1.0000
     1.0000   1.0000   1.0000   1.0000   1.0000   1.0000   1.0000   1.0000
     1.0000   1.0000   1.0000   1.0000   1.0000   1.0000   1.0000   1.0000
     1.0000   1.0000   1.0000   1.0000   1.0000   1.0000   0.0000   0.0000
     0.0000   0.0000   0.0000   0.0000   0.0000   0.0000   0.0000   0.0000
     0.0000   0.0000   0.0000   0.0000   0.0000   0.0000   0.0000   0.0000
     0.0000   0.0000   0.0000   0.0000   0.0000   0.0000   0.0000   0.0000

          k = 0.3333-0.2519 0.0570 (  4364 PWs)   bands (ev):

    -6.3383  -6.1808  -6.1169  -6.0427  -4.7821  -4.7591  -4.7447  -4.6708
    -4.6426  -4.6400  -4.5743  -4.3991  -4.3884  -4.3315  -4.2970  -4.2388
    -4.2348  -4.2252  -4.2199  -4.2125  -4.1983  -4.1144  -3.9357  -3.6996
     0.4049   0.6710   1.1639   1.3717   3.2143   3.4668   4.0247   4.3555
     4.4981   4.7105   5.1593   5.2951   5.4246   5.5904   7.4832   7.9394
     9.1913   9.7298  10.1758  10.3457  10.7769  11.1827  11.4202  11.6456
    12.1082  12.7043  13.0204  13.0989  14.2946  14.4533  15.3209  15.5306
    15.5997  16.1709  16.4504  16.8643  16.9248  16.9717  17.4672  17.6448

     occupation numbers 
     1.0000   1.0000   1.0000   1.0000   1.0000   1.0000   1.0000   1.0000
     1.0000   1.0000   1.0000   1.0000   1.0000   1.0000   1.0000   1.0000
     1.0000   1.0000   1.0000   1.0000   1.0000   1.0000   1.0000   1.0000
     1.0000   1.0000   1.0000   1.0000   1.0000   1.0000   1.0000   1.0000
     1.0000   1.0000   1.0000   1.0000   1.0000   1.0000   0.0000   0.0000
     0.0000   0.0000   0.0000   0.0000   0.0000   0.0000   0.0000   0.0000
     0.0000   0.0000   0.0000   0.0000   0.0000   0.0000   0.0000   0.0000
     0.0000   0.0000   0.0000   0.0000   0.0000   0.0000   0.0000   0.0000

          k = 0.3333-0.2519 0.4787 (  4384 PWs)   bands (ev):

    -6.2243  -6.1442  -6.1327  -6.0409  -4.7866  -4.7663  -4.7483  -4.6718
    -4.6539  -4.5983  -4.5686  -4.4126  -4.3896  -4.3032  -4.2996  -4.2679
    -4.2367  -4.2305  -4.2302  -4.2050  -4.1922  -4.1487  -4.0579  -3.8024
     0.3518   0.4406   0.4845   1.8543   3.4735   3.4920   4.4673   4.6961
     5.0867   5.2477   5.2633   5.3656   5.5431   6.1982   7.4207   7.6195
     8.3680   8.4149   9.2959  10.7995  10.8914  10.9657  11.3400  11.5715
    11.6972  11.9972  12.2215  12.4319  13.9240  14.0224  15.7369  15.9833
    16.2690  16.3607  16.4448  16.8672  17.5949  17.7087  17.7132  17.8851

     occupation numbers 
     1.0000   1.0000   1.0000   1.0000   1.0000   1.0000   1.0000   1.0000
     1.0000   1.0000   1.0000   1.0000   1.0000   1.0000   1.0000   1.0000
     1.0000   1.0000   1.0000   1.0000   1.0000   1.0000   1.0000   1.0000
     1.0000   1.0000   1.0000   1.0000   1.0000   1.0000   1.0000   1.0000
     1.0000   1.0000   1.0000   1.0000   1.0000   1.0000   0.0000   0.0000
     0.0000   0.0000   0.0000   0.0000   0.0000   0.0000   0.0000   0.0000
     0.0000   0.0000   0.0000   0.0000   0.0000   0.0000   0.0000   0.0000
     0.0000   0.0000   0.0000   0.0000   0.0000   0.0000   0.0000   0.0000

          k = 0.3333-0.2519-0.3646 (  4380 PWs)   bands (ev):

    -6.3189  -6.1752  -6.1207  -5.9966  -4.8023  -4.7549  -4.6922  -4.6815
    -4.6774  -4.6354  -4.4928  -4.4671  -4.3806  -4.3491  -4.3038  -4.2434
    -4.2222  -4.2117  -4.1778  -4.1753  -4.1218  -4.1060  -4.0878  -3.8492
     0.0119   0.3248   0.7193   2.5169   3.2657   3.9351   4.4266   4.7476
     4.7761   4.8647   5.0778   5.1002   5.1926   6.0416   7.6416   7.7941
     8.0350   9.4785   9.8367   9.8484   9.9283  10.9328  11.3745  11.5414
    11.9283  12.3714  12.9594  13.9691  14.0673  14.8632  15.1391  15.2548
    15.4691  15.9824  16.0141  16.6876  17.2420  17.5723  18.1114  18.4842

     occupation numbers 
     1.0000   1.0000   1.0000   1.0000   1.0000   1.0000   1.0000   1.0000
     1.0000   1.0000   1.0000   1.0000   1.0000   1.0000   1.0000   1.0000
     1.0000   1.0000   1.0000   1.0000   1.0000   1.0000   1.0000   1.0000
     1.0000   1.0000   1.0000   1.0000   1.0000   1.0000   1.0000   1.0000
     1.0000   1.0000   1.0000   1.0000   1.0000   1.0000   0.0000   0.0000
     0.0000   0.0000   0.0000   0.0000   0.0000   0.0000   0.0000   0.0000
     0.0000   0.0000   0.0000   0.0000   0.0000   0.0000   0.0000   0.0000
     0.0000   0.0000   0.0000   0.0000   0.0000   0.0000   0.0000   0.0000

     highest occupied, lowest unoccupied level (ev):     6.1982    7.2078

!    total energy              =    -715.36341845 Ry
     estimated scf accuracy    <       0.00000043 Ry

     The total energy is the sum of the following terms:
     one-electron contribution =    -135.44308007 Ry
     hartree contribution      =     118.68112454 Ry
     xc contribution           =    -324.48577398 Ry
     ewald contribution        =    -374.11568894 Ry

     convergence has been achieved in   7 iterations

     Writing all to output data dir calculations_bands_val/myprefix.save/
 
     init_run     :      5.32s CPU      1.82s WALL (       1 calls)
     electrons    :     41.40s CPU     10.86s WALL (       1 calls)

     Called by init_run:
     wfcinit      :      1.15s CPU      0.31s WALL (       1 calls)
     wfcinit:atom :      0.01s CPU      0.00s WALL (       7 calls)
     wfcinit:wfcr :      1.11s CPU      0.29s WALL (       7 calls)
     potinit      :      1.02s CPU      0.26s WALL (       1 calls)
     hinit0       :      2.89s CPU      1.16s WALL (       1 calls)

     Called by electrons:
     c_bands      :     32.81s CPU      8.51s WALL (       8 calls)
     sum_band     :      6.15s CPU      1.68s WALL (       8 calls)
     v_of_rho     :      0.69s CPU      0.18s WALL (       8 calls)
     v_h          :      0.06s CPU      0.01s WALL (       8 calls)
     v_xc         :      0.63s CPU      0.17s WALL (       8 calls)
     newd         :      1.70s CPU      0.46s WALL (       8 calls)
     mix_rho      :      0.13s CPU      0.03s WALL (       8 calls)

     Called by c_bands:
     init_us_2    :      0.23s CPU      0.06s WALL (     119 calls)
     init_us_2:cp :      0.23s CPU      0.06s WALL (     119 calls)
     cegterg      :     30.32s CPU      7.86s WALL (      56 calls)

     Called by sum_band:
     sum_band:wei :      0.01s CPU      0.00s WALL (       8 calls)
     sum_band:loo :      3.84s CPU      0.99s WALL (       8 calls)
     sum_band:buf :      0.08s CPU      0.02s WALL (      56 calls)
     sum_band:ini :      0.10s CPU      0.03s WALL (      56 calls)
     sum_band:cal :      0.16s CPU      0.04s WALL (      56 calls)
     sum_band:bec :      0.04s CPU      0.01s WALL (      56 calls)
     addusdens    :      1.97s CPU      0.60s WALL (       8 calls)
     addusd:skk   :      0.01s CPU      0.00s WALL (      24 calls)
     addusd:dgemm :      0.45s CPU      0.21s WALL (      24 calls)
     addusd:qvan2 :      1.44s CPU      0.36s WALL (      24 calls)

     Called by *egterg:
     cdiaghg      :      7.41s CPU      1.93s WALL (     419 calls)
     cegterg:over :      1.22s CPU      0.32s WALL (     370 calls)
     cegterg:upda :      0.74s CPU      0.19s WALL (     370 calls)
     cegterg:last :      0.96s CPU      0.25s WALL (     123 calls)
     cdiaghg:chol :      0.50s CPU      0.13s WALL (     419 calls)
     cdiaghg:inve :      0.11s CPU      0.03s WALL (     419 calls)
     cdiaghg:para :      1.12s CPU      0.29s WALL (     838 calls)
     h_psi        :     20.05s CPU      5.19s WALL (     433 calls)
     s_psi        :      0.39s CPU      0.10s WALL (     433 calls)
     g_psi        :      0.04s CPU      0.01s WALL (     370 calls)

     Called by h_psi:
     h_psi:calbec :      0.72s CPU      0.19s WALL (     433 calls)
     vloc_psi     :     18.71s CPU      4.85s WALL (     433 calls)
     add_vuspsi   :      0.53s CPU      0.14s WALL (     433 calls)

     General routines
     calbec       :      0.86s CPU      0.23s WALL (     489 calls)
     fft          :      1.52s CPU      0.41s WALL (     103 calls)
     ffts         :      0.44s CPU      0.11s WALL (      16 calls)
     fftw         :     19.21s CPU      4.98s WALL (   23230 calls)
     interpolate  :      0.46s CPU      0.12s WALL (       8 calls)
 
     Parallel routines
 
     PWSCF        :     47.72s CPU     13.19s WALL

 
   This run was terminated on:  15:17:26   4Jun2023            

=------------------------------------------------------------------------------=
   JOB DONE.
=------------------------------------------------------------------------------=
