
     Program PWSCF v.7.0 starts on  4Jun2023 at 13:39:29 

     This program is part of the open-source Quantum ESPRESSO suite
     for quantum simulation of materials; please cite
         "P. Giannozzi et al., J. Phys.:Condens. Matter 21 395502 (2009);
         "P. Giannozzi et al., J. Phys.:Condens. Matter 29 465901 (2017);
         "P. Giannozzi et al., J. Chem. Phys. 152 154105 (2020);
          URL http://www.quantum-espresso.org", 
     in publications or presentations arising from this work. More details at
     http://www.quantum-espresso.org/quote

     Parallel version (MPI & OpenMP), running on      32 processor cores
     Number of MPI processes:                 8
     Threads/MPI process:                     4

     MPI processes distributed on     1 nodes
     K-points division:     npool     =       2
     R & G space division:  proc/nbgrp/npool/nimage =       4
     141960 MiB available memory on the printing compute node when the environment starts
 
     Reading input from espresso_613.pwi
Warning: card &CELL ignored
Warning: card / ignored

     Current dimensions of program PWSCF are:
     Max number of different atomic species (ntypx) = 10
     Max number of k-points (npk) =  40000
     Max angular momentum in pseudopotentials (lmaxx) =  4
     file Mg.pbe-n-kjpaw_psl.0.3.0.UPF: wavefunction(s)  3S renormalized
     Message from routine setup:
     using ibrav=0 with symmetry is DISCOURAGED, use correct ibrav instead

     Subspace diagonalization in iterative solution of the eigenvalue problem:
     one sub-group per band group will be used
     scalapack distributed-memory algorithm (size of sub-group:  2*  2 procs)

 
     Parallelization info
     --------------------
     sticks:   dense  smooth     PW     G-vecs:    dense   smooth      PW
     Min         496     247     70                20510     7237    1090
     Max         497     249     71                20513     7238    1093
     Sum        1987     991    281                82045    28949    4363
 
     Using Slab Decomposition
 


     bravais-lattice index     =            0
     lattice parameter (alat)  =       9.8755  a.u.
     unit-cell volume          =    1305.3317 (a.u.)^3
     number of atoms/cell      =           16
     number of atomic types    =            3
     number of electrons       =       104.00
     number of Kohn-Sham states=           64
     kinetic-energy cutoff     =      30.0000  Ry
     charge density cutoff     =     240.0000  Ry
     scf convergence threshold =      1.0E-06
     mixing beta               =       0.7000
     number of iterations used =            8  plain     mixing
     Exchange-correlation= PBE
                           (   1   4   3   4   0   0   0)

     celldm(1)=   9.875495  celldm(2)=   0.000000  celldm(3)=   0.000000
     celldm(4)=   0.000000  celldm(5)=   0.000000  celldm(6)=   0.000000

     crystal axes: (cart. coord. in units of alat)
               a(1) = (   1.000000   0.000000   0.000000 )  
               a(2) = (   0.000000   1.062254   0.000000 )  
               a(3) = (   0.000000   0.000000   1.275898 )  

     reciprocal axes: (cart. coord. in units 2 pi/alat)
               b(1) = (  1.000000  0.000000  0.000000 )  
               b(2) = (  0.000000  0.941394  0.000000 )  
               b(3) = (  0.000000  0.000000  0.783762 )  


     PseudoPot. # 1 for Mg read from file:
     /home/pragov/projects/rrg-bengioy-ad/pragov/crystal_structure_design/SSSP/Mg.pbe-n-kjpaw_psl.0.3.0.UPF
     MD5 check sum: 24ecedc7f3e3cbe212e682f4413594e4
     Pseudo is Projector augmented-wave + core cor, Zval =  2.0
     Generated using "atomic" code by A. Dal Corso  v.5.0.99 svn rev. 10869
     Shape of augmentation charge: PSQ
     Using radial grid of 1129 points,  4 beta functions with: 
                l(1) =   0
                l(2) =   0
                l(3) =   1
                l(4) =   1
     Q(r) pseudized with 0 coefficients 


     PseudoPot. # 2 for Ge read from file:
     /home/pragov/projects/rrg-bengioy-ad/pragov/crystal_structure_design/SSSP/ge_pbe_v1.4.uspp.F.UPF
     MD5 check sum: 9c9eaa91e581c3f09632fb3098b2c6b2
     Pseudo is Ultrasoft + core correction, Zval = 14.0
     Generated by new atomic code, or converted to UPF format
     Using radial grid of  873 points,  6 beta functions with: 
                l(1) =   0
                l(2) =   0
                l(3) =   1
                l(4) =   1
                l(5) =   2
                l(6) =   2
     Q(r) pseudized with  8 coefficients,  rinner =    1.400   1.400   1.400
                                                       1.400   1.400

     PseudoPot. # 3 for N  read from file:
     /home/pragov/projects/rrg-bengioy-ad/pragov/crystal_structure_design/SSSP/N.pbe-n-radius_5.UPF
     MD5 check sum: 16739722b17309cd8fe442a2ace49922
     Pseudo is Ultrasoft + core correction, Zval =  5.0
     Generated using "atomic" code by A. Dal Corso  v.5.1
     Using radial grid of 1085 points,  4 beta functions with: 
                l(1) =   0
                l(2) =   0
                l(3) =   1
                l(4) =   1
     Q(r) pseudized with 0 coefficients 


     atomic species   valence    mass     pseudopotential
        Mg             2.00    24.30500     Mg( 1.00)
        Ge            14.00    72.63000     Ge( 1.00)
        N              5.00    14.00700     N ( 1.00)

      4 Sym. Ops. (no inversion) found ( 3 have fractional translation)


                                    s                        frac. trans.

      isym =  1     identity                                     

 cryst.   s( 1) = (     1          0          0      )
                  (     0          1          0      )
                  (     0          0          1      )

 cart.    s( 1) = (  1.0000000  0.0000000  0.0000000 )
                  (  0.0000000  1.0000000  0.0000000 )
                  (  0.0000000  0.0000000  1.0000000 )


      isym =  2     180 deg rotation - cart. axis [1,0,0]        

 cryst.   s( 2) = (     1          0          0      )    f =(  0.5000000 )
                  (     0         -1          0      )       (  0.0000000 )
                  (     0          0         -1      )       (  0.0000000 )

 cart.    s( 2) = (  1.0000000  0.0000000  0.0000000 )    f =(  0.5000000 )
                  (  0.0000000 -1.0000000  0.0000000 )       (  0.0000000 )
                  (  0.0000000  0.0000000 -1.0000000 )       (  0.0000000 )


      isym =  3     inv. 180 deg rotation - cart. axis [0,0,1]   

 cryst.   s( 3) = (     1          0          0      )    f =(  0.0000000 )
                  (     0          1          0      )       (  0.5000000 )
                  (     0          0         -1      )       (  0.5000000 )

 cart.    s( 3) = (  1.0000000  0.0000000  0.0000000 )    f =(  0.0000000 )
                  (  0.0000000  1.0000000  0.0000000 )       (  0.5311270 )
                  (  0.0000000  0.0000000 -1.0000000 )       (  0.6379489 )


      isym =  4     inv. 180 deg rotation - cart. axis [0,1,0]   

 cryst.   s( 4) = (     1          0          0      )    f =(  0.5000000 )
                  (     0         -1          0      )       ( -0.5000000 )
                  (     0          0          1      )       (  0.5000000 )

 cart.    s( 4) = (  1.0000000  0.0000000  0.0000000 )    f =(  0.5000000 )
                  (  0.0000000 -1.0000000  0.0000000 )       ( -0.5311270 )
                  (  0.0000000  0.0000000  1.0000000 )       (  0.6379489 )


   Cartesian axes

     site n.     atom                  positions (alat units)
         1           Mg  tau(   1) = (   0.0001630   0.6212592   1.1185171  )
         2           Mg  tau(   2) = (   0.5001630   0.9721217   0.4805682  )
         3           Mg  tau(   3) = (   0.5001630   0.4409947   0.1573807  )
         4           Mg  tau(   4) = (   0.0001630   0.0901322   0.7953297  )
         5           Ge  tau(   5) = (   0.0074510   0.0779174   0.1604263  )
         6           Ge  tau(   6) = (   0.5074510   0.9843365   1.1154716  )
         7           Ge  tau(   7) = (   0.5074510   0.4532096   0.7983752  )
         8           Ge  tau(   8) = (   0.0074510   0.6090444   0.4775226  )
         9           N   tau(   9) = (   0.4053720   0.6379961   1.0926930  )
        10           N   tau(  10) = (   0.9053720   0.4242578   0.1832049  )
        11           N   tau(  11) = (   0.9053720   0.9553848   0.4547440  )
        12           N   tau(  12) = (   0.4053720   0.1068691   0.8211538  )
        13           N   tau(  13) = (   0.3670140   0.5949642   0.5015937  )
        14           N   tau(  14) = (   0.3670140   0.0638372   0.1363552  )
        15           N   tau(  15) = (   0.8670140   0.9984167   1.1395426  )
        16           N   tau(  16) = (   0.8670140   0.4672898   0.7743041  )

   Crystallographic axes

     site n.     atom                  positions (cryst. coord.)
         1           Mg  tau(   1) = (  0.0001630  0.5848500  0.8766510  )
         2           Mg  tau(   2) = (  0.5001630  0.9151500  0.3766510  )
         3           Mg  tau(   3) = (  0.5001630  0.4151500  0.1233490  )
         4           Mg  tau(   4) = (  0.0001630  0.0848500  0.6233490  )
         5           Ge  tau(   5) = (  0.0074510  0.0733510  0.1257360  )
         6           Ge  tau(   6) = (  0.5074510  0.9266490  0.8742640  )
         7           Ge  tau(   7) = (  0.5074510  0.4266490  0.6257360  )
         8           Ge  tau(   8) = (  0.0074510  0.5733510  0.3742640  )
         9           N   tau(   9) = (  0.4053720  0.6006060  0.8564110  )
        10           N   tau(  10) = (  0.9053720  0.3993940  0.1435890  )
        11           N   tau(  11) = (  0.9053720  0.8993940  0.3564110  )
        12           N   tau(  12) = (  0.4053720  0.1006060  0.6435890  )
        13           N   tau(  13) = (  0.3670140  0.5600960  0.3931300  )
        14           N   tau(  14) = (  0.3670140  0.0600960  0.1068700  )
        15           N   tau(  15) = (  0.8670140  0.9399040  0.8931300  )
        16           N   tau(  16) = (  0.8670140  0.4399040  0.6068700  )

     number of k points=     8
                       cart. coord. in units 2pi/alat
        k(    1) = (   0.0000000   0.0000000   0.0000000), wk =   0.0740741
        k(    2) = (   0.0000000   0.0000000   0.2612539), wk =   0.1481481
        k(    3) = (   0.0000000   0.3137982   0.0000000), wk =   0.1481481
        k(    4) = (   0.0000000   0.3137982   0.2612539), wk =   0.2962963
        k(    5) = (   0.3333333   0.0000000   0.0000000), wk =   0.1481481
        k(    6) = (   0.3333333   0.0000000   0.2612539), wk =   0.2962963
        k(    7) = (   0.3333333   0.3137982   0.0000000), wk =   0.2962963
        k(    8) = (   0.3333333   0.3137982   0.2612539), wk =   0.5925926

                       cryst. coord.
        k(    1) = (   0.0000000   0.0000000   0.0000000), wk =   0.0740741
        k(    2) = (   0.0000000   0.0000000   0.3333333), wk =   0.1481481
        k(    3) = (   0.0000000   0.3333333   0.0000000), wk =   0.1481481
        k(    4) = (   0.0000000   0.3333333   0.3333333), wk =   0.2962963
        k(    5) = (   0.3333333   0.0000000   0.0000000), wk =   0.1481481
        k(    6) = (   0.3333333   0.0000000   0.3333333), wk =   0.2962963
        k(    7) = (   0.3333333   0.3333333   0.0000000), wk =   0.2962963
        k(    8) = (   0.3333333   0.3333333   0.3333333), wk =   0.5925926

     Dense  grid:    82045 G-vectors     FFT dimensions: (  50,  54,  64)

     Smooth grid:    28949 G-vectors     FFT dimensions: (  36,  40,  48)

     Dynamical RAM for                 wfc:       0.88 MB

     Dynamical RAM for     wfc (w. buffer):       4.42 MB

     Dynamical RAM for           str. fact:       0.94 MB

     Dynamical RAM for           local pot:       0.00 MB

     Dynamical RAM for          nlocal pot:       2.32 MB

     Dynamical RAM for                qrad:       3.73 MB

     Dynamical RAM for          rho,v,vnew:       1.93 MB

     Dynamical RAM for               rhoin:       0.64 MB

     Dynamical RAM for            rho*nmix:       5.01 MB

     Dynamical RAM for           G-vectors:       1.23 MB

     Dynamical RAM for          h,s,v(r/c):       0.19 MB

     Dynamical RAM for          <psi|beta>:       0.16 MB

     Dynamical RAM for                 psi:       1.77 MB

     Dynamical RAM for                hpsi:       1.77 MB

     Dynamical RAM for                spsi:       1.77 MB

     Dynamical RAM for      wfcinit/wfcrot:       2.48 MB

     Dynamical RAM for           addusdens:      30.52 MB

     Estimated static dynamical RAM per process >      18.11 MB

     Estimated max dynamical RAM per process >      53.63 MB

     Estimated total dynamical RAM >     409.04 MB

     Initial potential from superposition of free atoms

     starting charge     103.9928, renormalised to     104.0000
     Starting wfcs are   84 randomized atomic wfcs
     Checking if some PAW data can be deallocated... 
       PAW data deallocated on    6 nodes for type:  1

     total cpu time spent up to now is        1.7 secs

     Self-consistent Calculation

     iteration #  1     ecut=    30.00 Ry     beta= 0.70
     Davidson diagonalization with overlap

---- Real-time Memory Report at c_bands before calling an iterative solver
           195 MiB given to the printing process from OS
             0 MiB allocation reported by mallinfo(arena+hblkhd)
        141244 MiB available memory on the node where the printing process lives
------------------
     ethr =  1.00E-02,  avg # of iterations =  2.9

     total cpu time spent up to now is        2.4 secs

     total energy              =   -1149.07753495 Ry
     estimated scf accuracy    <       4.48008135 Ry

     iteration #  2     ecut=    30.00 Ry     beta= 0.70
     Davidson diagonalization with overlap

---- Real-time Memory Report at c_bands before calling an iterative solver
           231 MiB given to the printing process from OS
             0 MiB allocation reported by mallinfo(arena+hblkhd)
        141007 MiB available memory on the node where the printing process lives
------------------
     ethr =  4.31E-03,  avg # of iterations =  3.2

     total cpu time spent up to now is        3.1 secs

     total energy              =   -1150.40890114 Ry
     estimated scf accuracy    <       4.08354288 Ry

     iteration #  3     ecut=    30.00 Ry     beta= 0.70
     Davidson diagonalization with overlap

---- Real-time Memory Report at c_bands before calling an iterative solver
           241 MiB given to the printing process from OS
             0 MiB allocation reported by mallinfo(arena+hblkhd)
        141272 MiB available memory on the node where the printing process lives
------------------
     ethr =  3.93E-03,  avg # of iterations =  2.0

     total cpu time spent up to now is        3.6 secs

     total energy              =   -1151.08992972 Ry
     estimated scf accuracy    <       0.02655595 Ry

     iteration #  4     ecut=    30.00 Ry     beta= 0.70
     Davidson diagonalization with overlap

---- Real-time Memory Report at c_bands before calling an iterative solver
           242 MiB given to the printing process from OS
             0 MiB allocation reported by mallinfo(arena+hblkhd)
        141427 MiB available memory on the node where the printing process lives
------------------
     ethr =  2.55E-05,  avg # of iterations =  6.9

     total cpu time spent up to now is        4.3 secs

     total energy              =   -1151.09973446 Ry
     estimated scf accuracy    <       0.01654820 Ry

     iteration #  5     ecut=    30.00 Ry     beta= 0.70
     Davidson diagonalization with overlap

---- Real-time Memory Report at c_bands before calling an iterative solver
           244 MiB given to the printing process from OS
             0 MiB allocation reported by mallinfo(arena+hblkhd)
        141378 MiB available memory on the node where the printing process lives
------------------
     ethr =  1.59E-05,  avg # of iterations =  2.0

     total cpu time spent up to now is        4.8 secs

     total energy              =   -1151.10069256 Ry
     estimated scf accuracy    <       0.00225115 Ry

     iteration #  6     ecut=    30.00 Ry     beta= 0.70
     Davidson diagonalization with overlap

---- Real-time Memory Report at c_bands before calling an iterative solver
           250 MiB given to the printing process from OS
             0 MiB allocation reported by mallinfo(arena+hblkhd)
        141368 MiB available memory on the node where the printing process lives
------------------
     c_bands:  1 eigenvalues not converged
     ethr =  2.16E-06,  avg # of iterations =  8.6

     total cpu time spent up to now is        5.6 secs

     total energy              =   -1151.10134361 Ry
     estimated scf accuracy    <       0.00025168 Ry

     iteration #  7     ecut=    30.00 Ry     beta= 0.70
     Davidson diagonalization with overlap

---- Real-time Memory Report at c_bands before calling an iterative solver
           250 MiB given to the printing process from OS
             0 MiB allocation reported by mallinfo(arena+hblkhd)
        141299 MiB available memory on the node where the printing process lives
------------------
     ethr =  2.42E-07,  avg # of iterations =  2.4

     total cpu time spent up to now is        6.1 secs

     total energy              =   -1151.10139414 Ry
     estimated scf accuracy    <       0.00000347 Ry

     iteration #  8     ecut=    30.00 Ry     beta= 0.70
     Davidson diagonalization with overlap

---- Real-time Memory Report at c_bands before calling an iterative solver
           250 MiB given to the printing process from OS
             0 MiB allocation reported by mallinfo(arena+hblkhd)
        141245 MiB available memory on the node where the printing process lives
------------------
     ethr =  3.33E-09,  avg # of iterations =  4.4

     total cpu time spent up to now is        6.8 secs

     End of self-consistent calculation

          k = 0.0000 0.0000 0.0000 (  3643 PWs)   bands (ev):

   -16.5755 -16.5742 -16.5617 -16.5470 -16.5467 -16.5237 -16.5228 -16.4937
   -16.4936 -16.4842 -16.4808 -16.4776 -16.4412 -16.4308 -16.4301 -16.4204
   -16.4190 -16.4161 -16.4100 -16.4055  -8.7625  -7.3457  -7.2140  -5.8735
    -5.8714  -5.6935  -5.5735  -5.5629  -1.4434   0.0957   0.8162   2.1727
     2.3641   2.4806   2.5891   2.8078   3.6099   3.6269   4.0613   4.6282
     5.1782   5.2113   5.4154   5.4808   5.6375   5.6823   6.4247   6.4294
     6.4837   6.7471   6.8888   6.9608   9.5684  11.8505  12.1703  12.5083
    12.8437  13.0088  13.0200  13.7314  14.1604  14.7435  15.3603  15.4275

     occupation numbers 
     1.0000   1.0000   1.0000   1.0000   1.0000   1.0000   1.0000   1.0000
     1.0000   1.0000   1.0000   1.0000   1.0000   1.0000   1.0000   1.0000
     1.0000   1.0000   1.0000   1.0000   1.0000   1.0000   1.0000   1.0000
     1.0000   1.0000   1.0000   1.0000   1.0000   1.0000   1.0000   1.0000
     1.0000   1.0000   1.0000   1.0000   1.0000   1.0000   1.0000   1.0000
     1.0000   1.0000   1.0000   1.0000   1.0000   1.0000   1.0000   1.0000
     1.0000   1.0000   1.0000   1.0000   0.0000   0.0000   0.0000   0.0000
     0.0000   0.0000   0.0000   0.0000   0.0000   0.0000   0.0000   0.0000

          k = 0.0000 0.0000 0.2613 (  3622 PWs)   bands (ev):

   -16.5736 -16.5719 -16.5571 -16.5476 -16.5461 -16.5415 -16.5037 -16.4943
   -16.4936 -16.4885 -16.4796 -16.4787 -16.4348 -16.4308 -16.4264 -16.4229
   -16.4125 -16.4118 -16.4099 -16.4059  -8.5610  -8.0142  -6.5369  -5.8842
    -5.8798  -5.7494  -5.7280  -5.6178  -1.0699  -0.3491   1.1021   1.6072
     2.2754   2.6753   3.1045   3.2355   3.5333   3.8840   4.2331   4.2878
     5.0020   5.1489   5.3210   5.4872   5.6854   5.8841   6.0678   6.1015
     6.3069   6.3192   6.7432   6.8216  10.6031  11.9235  12.1505  12.5964
    12.9369  13.4136  13.4837  13.8977  14.3041  14.6703  15.0203  15.5198

     occupation numbers 
     1.0000   1.0000   1.0000   1.0000   1.0000   1.0000   1.0000   1.0000
     1.0000   1.0000   1.0000   1.0000   1.0000   1.0000   1.0000   1.0000
     1.0000   1.0000   1.0000   1.0000   1.0000   1.0000   1.0000   1.0000
     1.0000   1.0000   1.0000   1.0000   1.0000   1.0000   1.0000   1.0000
     1.0000   1.0000   1.0000   1.0000   1.0000   1.0000   1.0000   1.0000
     1.0000   1.0000   1.0000   1.0000   1.0000   1.0000   1.0000   1.0000
     1.0000   1.0000   1.0000   1.0000   0.0000   0.0000   0.0000   0.0000
     0.0000   0.0000   0.0000   0.0000   0.0000   0.0000   0.0000   0.0000

          k = 0.0000 0.3138 0.0000 (  3598 PWs)   bands (ev):

   -16.5734 -16.5719 -16.5619 -16.5567 -16.5404 -16.5320 -16.5040 -16.4950
   -16.4928 -16.4828 -16.4777 -16.4737 -16.4408 -16.4329 -16.4214 -16.4181
   -16.4147 -16.4128 -16.4069 -16.3997  -8.4518  -7.7325  -6.9408  -6.3333
    -5.7925  -5.7186  -5.6433  -5.6104  -0.8826  -0.0975   1.2259   1.5418
     2.3345   2.5584   2.6361   2.9685   3.9460   4.0489   4.1928   4.7454
     4.8484   5.0919   5.1919   5.3890   5.5731   5.9457   6.2043   6.3504
     6.5174   6.6098   6.6774   6.8393  10.9172  11.9706  11.9772  12.1732
    12.4731  12.8858  13.3505  13.4117  14.1401  14.2090  14.3680  15.3077

     occupation numbers 
     1.0000   1.0000   1.0000   1.0000   1.0000   1.0000   1.0000   1.0000
     1.0000   1.0000   1.0000   1.0000   1.0000   1.0000   1.0000   1.0000
     1.0000   1.0000   1.0000   1.0000   1.0000   1.0000   1.0000   1.0000
     1.0000   1.0000   1.0000   1.0000   1.0000   1.0000   1.0000   1.0000
     1.0000   1.0000   1.0000   1.0000   1.0000   1.0000   1.0000   1.0000
     1.0000   1.0000   1.0000   1.0000   1.0000   1.0000   1.0000   1.0000
     1.0000   1.0000   1.0000   1.0000   0.0000   0.0000   0.0000   0.0000
     0.0000   0.0000   0.0000   0.0000   0.0000   0.0000   0.0000   0.0000

          k = 0.0000 0.3138 0.2613 (  3632 PWs)   bands (ev):

   -16.5751 -16.5745 -16.5613 -16.5579 -16.5419 -16.5377 -16.5012 -16.4977
   -16.4917 -16.4858 -16.4809 -16.4783 -16.4388 -16.4352 -16.4265 -16.4241
   -16.4125 -16.4098 -16.4089 -16.4046  -8.2906  -7.9272  -6.8458  -6.5233
    -5.7967  -5.6703  -5.6254  -5.5896  -0.6712  -0.3067   1.5273   1.6896
     2.2568   2.5708   2.8148   2.9879   3.7755   3.8296   4.3454   4.5375
     4.6776   5.1214   5.1507   5.2612   5.5871   5.8961   6.1617   6.2630
     6.3665   6.5039   6.7131   6.7286  11.4204  11.9642  12.2500  12.6124
    13.0164  13.2222  13.3317  13.7031  13.9910  14.3596  14.5336  15.0071

     occupation numbers 
     1.0000   1.0000   1.0000   1.0000   1.0000   1.0000   1.0000   1.0000
     1.0000   1.0000   1.0000   1.0000   1.0000   1.0000   1.0000   1.0000
     1.0000   1.0000   1.0000   1.0000   1.0000   1.0000   1.0000   1.0000
     1.0000   1.0000   1.0000   1.0000   1.0000   1.0000   1.0000   1.0000
     1.0000   1.0000   1.0000   1.0000   1.0000   1.0000   1.0000   1.0000
     1.0000   1.0000   1.0000   1.0000   1.0000   1.0000   1.0000   1.0000
     1.0000   1.0000   1.0000   1.0000   0.0000   0.0000   0.0000   0.0000
     0.0000   0.0000   0.0000   0.0000   0.0000   0.0000   0.0000   0.0000

          k = 0.3333 0.0000 0.0000 (  3613 PWs)   bands (ev):

   -16.5693 -16.5630 -16.5621 -16.5481 -16.5449 -16.5341 -16.5155 -16.4991
   -16.4879 -16.4827 -16.4788 -16.4779 -16.4342 -16.4255 -16.4245 -16.4196
   -16.4188 -16.4156 -16.4114 -16.4059  -8.4045  -7.5951  -6.9911  -6.1251
    -5.9571  -5.8127  -5.7313  -5.7205  -1.0876  -0.0508   0.8927   1.5578
     2.6983   2.7183   2.7501   3.5392   3.5393   3.8722   4.1813   4.4855
     4.7918   5.2788   5.3199   5.6659   5.9065   6.0193   6.1212   6.3110
     6.5154   6.5806   6.7111   6.7621  10.9537  11.4400  11.6379  12.1168
    12.7772  13.2617  13.4500  13.4804  14.4016  14.4333  14.7685  15.0318

     occupation numbers 
     1.0000   1.0000   1.0000   1.0000   1.0000   1.0000   1.0000   1.0000
     1.0000   1.0000   1.0000   1.0000   1.0000   1.0000   1.0000   1.0000
     1.0000   1.0000   1.0000   1.0000   1.0000   1.0000   1.0000   1.0000
     1.0000   1.0000   1.0000   1.0000   1.0000   1.0000   1.0000   1.0000
     1.0000   1.0000   1.0000   1.0000   1.0000   1.0000   1.0000   1.0000
     1.0000   1.0000   1.0000   1.0000   1.0000   1.0000   1.0000   1.0000
     1.0000   1.0000   1.0000   1.0000   0.0000   0.0000   0.0000   0.0000
     0.0000   0.0000   0.0000   0.0000   0.0000   0.0000   0.0000   0.0000

          k = 0.3333 0.0000 0.2613 (  3625 PWs)   bands (ev):

   -16.5705 -16.5670 -16.5558 -16.5477 -16.5459 -16.5415 -16.5111 -16.5043
   -16.4877 -16.4860 -16.4785 -16.4764 -16.4320 -16.4290 -16.4246 -16.4225
   -16.4179 -16.4160 -16.4109 -16.4085  -8.2387  -7.8457  -6.8118  -6.4045
    -5.8991  -5.7672  -5.7281  -5.6908  -0.8672  -0.3950   1.2939   1.5992
     2.6031   2.8260   3.2268   3.2855   3.5372   3.8341   4.4347   4.5143
     4.6839   4.7764   5.1724   5.5640   5.7121   5.8372   6.1634   6.2735
     6.3150   6.5511   6.6297   6.7259  11.4943  11.7944  12.2069  12.7333
    12.9821  13.2063  13.6450  13.8004  13.9305  14.2261  14.2829  14.8239

     occupation numbers 
     1.0000   1.0000   1.0000   1.0000   1.0000   1.0000   1.0000   1.0000
     1.0000   1.0000   1.0000   1.0000   1.0000   1.0000   1.0000   1.0000
     1.0000   1.0000   1.0000   1.0000   1.0000   1.0000   1.0000   1.0000
     1.0000   1.0000   1.0000   1.0000   1.0000   1.0000   1.0000   1.0000
     1.0000   1.0000   1.0000   1.0000   1.0000   1.0000   1.0000   1.0000
     1.0000   1.0000   1.0000   1.0000   1.0000   1.0000   1.0000   1.0000
     1.0000   1.0000   1.0000   1.0000   0.0000   0.0000   0.0000   0.0000
     0.0000   0.0000   0.0000   0.0000   0.0000   0.0000   0.0000   0.0000

          k = 0.3333 0.3138 0.0000 (  3613 PWs)   bands (ev):

   -16.5681 -16.5655 -16.5627 -16.5576 -16.5367 -16.5244 -16.5198 -16.5064
   -16.4854 -16.4819 -16.4786 -16.4769 -16.4349 -16.4289 -16.4240 -16.4201
   -16.4189 -16.4126 -16.4123 -16.4069  -8.0974  -7.3819  -7.2985  -6.5914
    -5.9137  -5.8636  -5.7543  -5.7543  -0.5236   0.3840   0.3971   0.9532
     2.8364   2.8681   3.1264   3.5261   3.5954   4.3829   4.5289   4.7677
     4.8039   5.0196   5.4362   5.4377   5.7711   5.8575   6.0542   6.0973
     6.3879   6.5050   6.5870   6.6648  11.4157  11.5557  11.7258  12.0741
    12.3390  12.4750  13.2356  13.2980  13.9646  14.2975  14.5235  14.6265

     occupation numbers 
     1.0000   1.0000   1.0000   1.0000   1.0000   1.0000   1.0000   1.0000
     1.0000   1.0000   1.0000   1.0000   1.0000   1.0000   1.0000   1.0000
     1.0000   1.0000   1.0000   1.0000   1.0000   1.0000   1.0000   1.0000
     1.0000   1.0000   1.0000   1.0000   1.0000   1.0000   1.0000   1.0000
     1.0000   1.0000   1.0000   1.0000   1.0000   1.0000   1.0000   1.0000
     1.0000   1.0000   1.0000   1.0000   1.0000   1.0000   1.0000   1.0000
     1.0000   1.0000   1.0000   1.0000   0.0000   0.0000   0.0000   0.0000
     0.0000   0.0000   0.0000   0.0000   0.0000   0.0000   0.0000   0.0000

          k = 0.3333 0.3138 0.2613 (  3622 PWs)   bands (ev):

   -16.5709 -16.5667 -16.5614 -16.5583 -16.5365 -16.5314 -16.5143 -16.5089
   -16.4885 -16.4838 -16.4773 -16.4744 -16.4337 -16.4300 -16.4245 -16.4231
   -16.4162 -16.4130 -16.4109 -16.4074  -7.9600  -7.6488  -7.0215  -6.7129
    -6.0026  -5.9142  -5.7590  -5.7315  -0.3141   0.0179   0.9579   1.1834
     2.7786   2.9791   3.2597   3.3829   3.7673   3.9208   4.2896   4.6378
     4.7576   4.9422   5.2181   5.2947   5.5589   5.6798   6.0422   6.2574
     6.4556   6.4948   6.5941   6.7175  11.5303  11.8729  12.1929  12.4434
    12.8311  12.9369  13.3457  13.5102  13.8870  14.0715  14.2785  14.5960

     occupation numbers 
     1.0000   1.0000   1.0000   1.0000   1.0000   1.0000   1.0000   1.0000
     1.0000   1.0000   1.0000   1.0000   1.0000   1.0000   1.0000   1.0000
     1.0000   1.0000   1.0000   1.0000   1.0000   1.0000   1.0000   1.0000
     1.0000   1.0000   1.0000   1.0000   1.0000   1.0000   1.0000   1.0000
     1.0000   1.0000   1.0000   1.0000   1.0000   1.0000   1.0000   1.0000
     1.0000   1.0000   1.0000   1.0000   1.0000   1.0000   1.0000   1.0000
     1.0000   1.0000   1.0000   1.0000   0.0000   0.0000   0.0000   0.0000
     0.0000   0.0000   0.0000   0.0000   0.0000   0.0000   0.0000   0.0000

     highest occupied, lowest unoccupied level (ev):     6.9608    9.5684

!    total energy              =   -1151.10139673 Ry
     estimated scf accuracy    <       0.00000007 Ry

     The total energy is the sum of the following terms:
     one-electron contribution =    -671.23154914 Ry
     hartree contribution      =     419.26150767 Ry
     xc contribution           =    -284.39669665 Ry
     ewald contribution        =    -489.51320093 Ry
     one-center paw contrib.   =    -125.22145768 Ry
      -> PAW hartree energy AE =       2.26334373 Ry
      -> PAW hartree energy PS =      -2.25931858 Ry
      -> PAW xc energy AE      =     -65.56395093 Ry
      -> PAW xc energy PS      =       2.94919694 Ry
      -> total E_H with PAW    =     419.26553282 Ry
      -> total E_XC with PAW   =    -347.01145064 Ry

     convergence has been achieved in   8 iterations

     Writing all to output data dir calculations_bands_val/myprefix.save/
 
     init_run     :      5.33s CPU      1.53s WALL (       1 calls)
     electrons    :     19.16s CPU      5.06s WALL (       1 calls)

     Called by init_run:
     wfcinit      :      0.70s CPU      0.19s WALL (       1 calls)
     wfcinit:atom :      0.01s CPU      0.00s WALL (       4 calls)
     wfcinit:wfcr :      0.63s CPU      0.17s WALL (       4 calls)
     potinit      :      1.59s CPU      0.43s WALL (       1 calls)
     hinit0       :      2.56s CPU      0.75s WALL (       1 calls)

     Called by electrons:
     c_bands      :     13.59s CPU      3.53s WALL (       8 calls)
     sum_band     :      3.00s CPU      0.84s WALL (       8 calls)
     v_of_rho     :      0.51s CPU      0.13s WALL (       9 calls)
     v_h          :      0.04s CPU      0.01s WALL (       9 calls)
     v_xc         :      0.47s CPU      0.12s WALL (       9 calls)
     newd         :      0.88s CPU      0.26s WALL (       9 calls)
     PAW_pot      :      1.18s CPU      0.31s WALL (       9 calls)
     mix_rho      :      0.14s CPU      0.04s WALL (       8 calls)

     Called by c_bands:
     init_us_2    :      0.09s CPU      0.02s WALL (      68 calls)
     init_us_2:cp :      0.08s CPU      0.02s WALL (      68 calls)
     cegterg      :     12.81s CPU      3.32s WALL (      32 calls)

     Called by sum_band:
     sum_band:wei :      0.01s CPU      0.00s WALL (       8 calls)
     sum_band:loo :      1.71s CPU      0.44s WALL (       8 calls)
     sum_band:buf :      0.03s CPU      0.01s WALL (      32 calls)
     sum_band:ini :      0.04s CPU      0.01s WALL (      32 calls)
     sum_band:cal :      0.12s CPU      0.03s WALL (      32 calls)
     sum_band:bec :      0.03s CPU      0.01s WALL (      32 calls)
     addusdens    :      0.76s CPU      0.25s WALL (       8 calls)
     addusd:skk   :      0.01s CPU      0.00s WALL (      24 calls)
     addusd:dgemm :      0.18s CPU      0.10s WALL (      24 calls)
     addusd:qvan2 :      0.51s CPU      0.13s WALL (      24 calls)

     Called by *egterg:
     cdiaghg      :      3.08s CPU      0.80s WALL (     179 calls)
     cegterg:over :      0.53s CPU      0.14s WALL (     147 calls)
     cegterg:upda :      0.38s CPU      0.10s WALL (     147 calls)
     cegterg:last :      0.48s CPU      0.12s WALL (      71 calls)
     cdiaghg:chol :      0.22s CPU      0.06s WALL (     179 calls)
     cdiaghg:inve :      0.04s CPU      0.01s WALL (     179 calls)
     cdiaghg:para :      0.48s CPU      0.13s WALL (     358 calls)
     h_psi        :      8.45s CPU      2.19s WALL (     183 calls)
     s_psi        :      0.22s CPU      0.06s WALL (     183 calls)
     g_psi        :      0.02s CPU      0.00s WALL (     147 calls)

     Called by h_psi:
     h_psi:calbec :      0.41s CPU      0.11s WALL (     183 calls)
     vloc_psi     :      7.72s CPU      2.00s WALL (     183 calls)
     add_vuspsi   :      0.28s CPU      0.07s WALL (     183 calls)

     General routines
     calbec       :      0.52s CPU      0.13s WALL (     215 calls)
     fft          :      1.19s CPU      0.31s WALL (     115 calls)
     ffts         :      1.07s CPU      0.30s WALL (      17 calls)
     fftw         :      7.79s CPU      2.02s WALL (   13526 calls)
     interpolate  :      1.09s CPU      0.30s WALL (       9 calls)
 
     Parallel routines

     PAW routines
     PAW_pot      :      1.18s CPU      0.31s WALL (       9 calls)
     PAW_symme    :      0.01s CPU      0.00s WALL (      17 calls)
 
     PWSCF        :     26.80s CPU      8.42s WALL

 
   This run was terminated on:  13:39:38   4Jun2023            

=------------------------------------------------------------------------------=
   JOB DONE.
=------------------------------------------------------------------------------=
