
     Program PWSCF v.7.0 starts on  4Jun2023 at 11:55:43 

     This program is part of the open-source Quantum ESPRESSO suite
     for quantum simulation of materials; please cite
         "P. Giannozzi et al., J. Phys.:Condens. Matter 21 395502 (2009);
         "P. Giannozzi et al., J. Phys.:Condens. Matter 29 465901 (2017);
         "P. Giannozzi et al., J. Chem. Phys. 152 154105 (2020);
          URL http://www.quantum-espresso.org", 
     in publications or presentations arising from this work. More details at
     http://www.quantum-espresso.org/quote

     Parallel version (MPI & OpenMP), running on      32 processor cores
     Number of MPI processes:                 8
     Threads/MPI process:                     4

     MPI processes distributed on     1 nodes
     K-points division:     npool     =       2
     R & G space division:  proc/nbgrp/npool/nimage =       4
     141890 MiB available memory on the printing compute node when the environment starts
 
     Reading input from espresso_309.pwi
Warning: card &CELL ignored
Warning: card / ignored

     Current dimensions of program PWSCF are:
     Max number of different atomic species (ntypx) = 10
     Max number of k-points (npk) =  40000
     Max angular momentum in pseudopotentials (lmaxx) =  4
     file Cd.pbe-dn-rrkjus_psl.0.3.1.UPF: wavefunction(s)  4D renormalized
     file Pb.pbe-dn-kjpaw_psl.0.2.2.UPF: wavefunction(s)  6S renormalized

     Subspace diagonalization in iterative solution of the eigenvalue problem:
     one sub-group per band group will be used
     scalapack distributed-memory algorithm (size of sub-group:  2*  2 procs)

 
     Parallelization info
     --------------------
     sticks:   dense  smooth     PW     G-vecs:    dense   smooth      PW
     Min        1706     855    260                41103    14542    2454
     Max        1707     856    261                41104    14543    2455
     Sum        6827    3423   1043               164413    58169    9817
 
     Using Slab Decomposition
 


     bravais-lattice index     =            0
     lattice parameter (alat)  =      24.2438  a.u.
     unit-cell volume          =    2619.0101 (a.u.)^3
     number of atoms/cell      =           10
     number of atomic types    =            3
     number of electrons       =        92.00
     number of Kohn-Sham states=           64
     kinetic-energy cutoff     =      30.0000  Ry
     charge density cutoff     =     240.0000  Ry
     scf convergence threshold =      1.0E-06
     mixing beta               =       0.7000
     number of iterations used =            8  plain     mixing
     Exchange-correlation= SLA  PW   PBX  PBC
                           (   1   4   3   4   0   0   0)

     celldm(1)=  24.243805  celldm(2)=   0.000000  celldm(3)=   0.000000
     celldm(4)=   0.000000  celldm(5)=   0.000000  celldm(6)=   0.000000

     crystal axes: (cart. coord. in units of alat)
               a(1) = (   1.000000   0.000000   0.000000 )  
               a(2) = (   0.793282   0.608854   0.000000 )  
               a(3) = (  -0.861083  -0.409157   0.301871 )  

     reciprocal axes: (cart. coord. in units 2 pi/alat)
               b(1) = (  1.000000 -1.302910  1.086519 )  
               b(2) = (  0.000000  1.642430  2.226153 )  
               b(3) = (  0.000000  0.000000  3.312672 )  


     PseudoPot. # 1 for Cd read from file:
     /home/pragov/projects/rrg-bengioy-ad/pragov/crystal_structure_design/SSSP/Cd.pbe-dn-rrkjus_psl.0.3.1.UPF
     MD5 check sum: 558e9f355611b531a870a69ef6ace9e2
     Pseudo is Ultrasoft + core correction, Zval = 12.0
     Generated using "atomic" code by A. Dal Corso  v.5.0.99 svn rev. 10869
     Using radial grid of 1239 points,  6 beta functions with: 
                l(1) =   0
                l(2) =   0
                l(3) =   1
                l(4) =   1
                l(5) =   2
                l(6) =   2
     Q(r) pseudized with 0 coefficients 


     PseudoPot. # 2 for Te read from file:
     /home/pragov/projects/rrg-bengioy-ad/pragov/crystal_structure_design/SSSP/Te_pbe_v1.uspp.F.UPF
     MD5 check sum: c319670d6894cc26e93307826a071b75
     Pseudo is Ultrasoft + core correction, Zval =  6.0
     Generated by new atomic code, or converted to UPF format
     Using radial grid of  891 points,  5 beta functions with: 
                l(1) =   0
                l(2) =   0
                l(3) =   1
                l(4) =   1
                l(5) =   2
     Q(r) pseudized with  6 coefficients,  rinner =    1.800   1.800   1.800
                                                       1.800   1.800

     PseudoPot. # 3 for Pb read from file:
     /home/pragov/projects/rrg-bengioy-ad/pragov/crystal_structure_design/SSSP/Pb.pbe-dn-kjpaw_psl.0.2.2.UPF
     MD5 check sum: 9d431e6316058b74ade52399a6cf67da
     Pseudo is Projector augmented-wave + core cor, Zval = 14.0
     Generated using "atomic" code by A. Dal Corso  v.5.0.99 svn rev. 10869
     Shape of augmentation charge: PSQ
     Using radial grid of 1281 points,  6 beta functions with: 
                l(1) =   0
                l(2) =   0
                l(3) =   1
                l(4) =   1
                l(5) =   2
                l(6) =   2
     Q(r) pseudized with 0 coefficients 


     atomic species   valence    mass     pseudopotential
        Cd            12.00   112.41400     Cd( 1.00)
        Te             6.00   127.60000     Te( 1.00)
        Pb            14.00   207.20000     Pb( 1.00)

     No symmetry found


                                    s                        frac. trans.

      isym =  1     identity                                     

 cryst.   s( 1) = (     1          0          0      )
                  (     0          1          0      )
                  (     0          0          1      )

 cart.    s( 1) = (  1.0000000  0.0000000  0.0000000 )
                  (  0.0000000  1.0000000  0.0000000 )
                  (  0.0000000  0.0000000  1.0000000 )


   Cartesian axes

     site n.     atom                  positions (alat units)
         1           Cd  tau(   1) = (  -0.1550112  -0.1683638   0.3011648  )
         2           Cd  tau(   2) = (   0.5669902   0.0760541   0.3016381  )
         3           Cd  tau(   3) = (  -0.4960891  -0.2848819   0.3016381  )
         4           Cd  tau(   4) = (   0.2254766  -0.0391808   0.3011648  )
         5           Te  tau(   5) = (   0.6984453   0.2393021   0.2231694  )
         6           Te  tau(   6) = (  -0.3607986  -0.1222416   0.2244330  )
         7           Te  tau(   7) = (   0.3606434   0.1227016   0.2244330  )
         8           Te  tau(   8) = (   0.3002365  -0.2354166   0.2231694  )
         9           Te  tau(   9) = (   0.0072781  -0.0214365   0.2404183  )
        10           Pb  tau(  10) = (   0.1381215  -0.4068147   0.3001432  )

   Crystallographic axes

     site n.     atom                  positions (cryst. coord.)
         1           Cd  tau(   1) = (  0.3915730  0.3939130  0.9976600  )
         2           Cd  tau(   2) = (  0.7956340  0.7964060  0.9992280  )
         3           Cd  tau(   3) = (  0.2028220  0.2035940  0.9992280  )
         4           Cd  tau(   4) = (  0.6037470  0.6060870  0.9976600  )
         5           Te  tau(   5) = (  0.6291340  0.8898460  0.7392870  )
         6           Te  tau(   6) = (  0.0423220  0.2988490  0.7434730  )
         7           Te  tau(   7) = (  0.4446250  0.7011510  0.7434730  )
         8           Te  tau(   8) = (  0.8494410  0.1101540  0.7392870  )
         9           Te  tau(   9) = (  0.2964270  0.5000000  0.7964270  )
        10           Pb  tau(  10) = (  0.9942760 -0.0000000  0.9942760  )

     number of k points=    14
                       cart. coord. in units 2pi/alat
        k(    1) = (   0.0000000   0.0000000   0.0000000), wk =   0.0740741
        k(    2) = (   0.0000000   0.0000000   1.1042239), wk =   0.1481481
        k(    3) = (   0.0000000   0.5474766   0.7420509), wk =   0.1481481
        k(    4) = (   0.0000000   0.5474766   1.8462748), wk =   0.1481481
        k(    5) = (   0.0000000   0.5474766  -0.3621730), wk =   0.1481481
        k(    6) = (   0.3333333  -0.4343035   0.3621730), wk =   0.1481481
        k(    7) = (   0.3333333  -0.4343035   1.4663969), wk =   0.1481481
        k(    8) = (   0.3333333  -0.4343035  -0.7420509), wk =   0.1481481
        k(    9) = (   0.3333333   0.1131731   1.1042239), wk =   0.1481481
        k(   10) = (   0.3333333   0.1131731   2.2084478), wk =   0.1481481
        k(   11) = (   0.3333333   0.1131731   0.0000000), wk =   0.1481481
        k(   12) = (   0.3333333  -0.9817801  -0.3798778), wk =   0.1481481
        k(   13) = (   0.3333333  -0.9817801   0.7243461), wk =   0.1481481
        k(   14) = (   0.3333333  -0.9817801  -1.4841017), wk =   0.1481481

                       cryst. coord.
        k(    1) = (   0.0000000   0.0000000   0.0000000), wk =   0.0740741
        k(    2) = (   0.0000000   0.0000000   0.3333333), wk =   0.1481481
        k(    3) = (   0.0000000   0.3333333   0.0000000), wk =   0.1481481
        k(    4) = (   0.0000000   0.3333333   0.3333333), wk =   0.1481481
        k(    5) = (   0.0000000   0.3333333  -0.3333333), wk =   0.1481481
        k(    6) = (   0.3333333  -0.0000000  -0.0000000), wk =   0.1481481
        k(    7) = (   0.3333333  -0.0000000   0.3333333), wk =   0.1481481
        k(    8) = (   0.3333333  -0.0000000  -0.3333333), wk =   0.1481481
        k(    9) = (   0.3333333   0.3333333  -0.0000000), wk =   0.1481481
        k(   10) = (   0.3333333   0.3333333   0.3333333), wk =   0.1481481
        k(   11) = (   0.3333333   0.3333333  -0.3333333), wk =   0.1481481
        k(   12) = (   0.3333333  -0.3333333  -0.0000000), wk =   0.1481481
        k(   13) = (   0.3333333  -0.3333333   0.3333333), wk =   0.1481481
        k(   14) = (   0.3333333  -0.3333333  -0.3333333), wk =   0.1481481

     Dense  grid:   164413 G-vectors     FFT dimensions: ( 120, 120, 120)

     Smooth grid:    58169 G-vectors     FFT dimensions: (  90,  90,  90)

     Dynamical RAM for                 wfc:       1.77 MB

     Dynamical RAM for     wfc (w. buffer):      14.19 MB

     Dynamical RAM for           str. fact:       1.88 MB

     Dynamical RAM for           local pot:       0.00 MB

     Dynamical RAM for          nlocal pot:       4.30 MB

     Dynamical RAM for                qrad:       3.73 MB

     Dynamical RAM for          rho,v,vnew:      11.77 MB

     Dynamical RAM for               rhoin:       3.92 MB

     Dynamical RAM for            rho*nmix:      10.04 MB

     Dynamical RAM for           G-vectors:       2.46 MB

     Dynamical RAM for          h,s,v(r/c):       0.19 MB

     Dynamical RAM for          <psi|beta>:       0.15 MB

     Dynamical RAM for                 psi:       3.55 MB

     Dynamical RAM for                hpsi:       3.55 MB

     Dynamical RAM for                spsi:       3.55 MB

     Dynamical RAM for      wfcinit/wfcrot:       3.70 MB

     Dynamical RAM for           addusdens:      60.21 MB

     Estimated static dynamical RAM per process >      61.24 MB

     Estimated max dynamical RAM per process >     131.49 MB

     Estimated total dynamical RAM >    1011.75 MB

     Initial potential from superposition of free atoms

     starting charge      91.9770, renormalised to      92.0000
     Starting wfcs are   65 randomized atomic wfcs
     Checking if some PAW data can be deallocated... 
       PAW data deallocated on    7 nodes for type:  3

     total cpu time spent up to now is        6.4 secs

     Self-consistent Calculation

     iteration #  1     ecut=    30.00 Ry     beta= 0.70
     Davidson diagonalization with overlap

---- Real-time Memory Report at c_bands before calling an iterative solver
           277 MiB given to the printing process from OS
             0 MiB allocation reported by mallinfo(arena+hblkhd)
        140878 MiB available memory on the node where the printing process lives
------------------
     ethr =  1.00E-02,  avg # of iterations =  4.4

     Threshold (ethr) on eigenvalues was too large:
     Diagonalizing with lowered threshold

     Davidson diagonalization with overlap

---- Real-time Memory Report at c_bands before calling an iterative solver
           307 MiB given to the printing process from OS
             0 MiB allocation reported by mallinfo(arena+hblkhd)
        140813 MiB available memory on the node where the printing process lives
------------------
     ethr =  3.16E-04,  avg # of iterations =  5.1

     total cpu time spent up to now is       15.6 secs

     total energy              =   -1492.05501223 Ry
     estimated scf accuracy    <       0.28424303 Ry

     iteration #  2     ecut=    30.00 Ry     beta= 0.70
     Davidson diagonalization with overlap

---- Real-time Memory Report at c_bands before calling an iterative solver
           346 MiB given to the printing process from OS
             0 MiB allocation reported by mallinfo(arena+hblkhd)
        139992 MiB available memory on the node where the printing process lives
------------------
     ethr =  3.09E-04,  avg # of iterations =  5.4

     total cpu time spent up to now is       21.3 secs

     total energy              =   -1492.07503569 Ry
     estimated scf accuracy    <       0.36394378 Ry

     iteration #  3     ecut=    30.00 Ry     beta= 0.70
     Davidson diagonalization with overlap

---- Real-time Memory Report at c_bands before calling an iterative solver
           363 MiB given to the printing process from OS
             0 MiB allocation reported by mallinfo(arena+hblkhd)
        139873 MiB available memory on the node where the printing process lives
------------------
     ethr =  3.09E-04,  avg # of iterations =  2.5

     total cpu time spent up to now is       25.9 secs

     total energy              =   -1492.15081140 Ry
     estimated scf accuracy    <       0.09671300 Ry

     iteration #  4     ecut=    30.00 Ry     beta= 0.70
     Davidson diagonalization with overlap

---- Real-time Memory Report at c_bands before calling an iterative solver
           365 MiB given to the printing process from OS
             0 MiB allocation reported by mallinfo(arena+hblkhd)
        139863 MiB available memory on the node where the printing process lives
------------------
     ethr =  1.05E-04,  avg # of iterations =  2.0

     total cpu time spent up to now is       30.7 secs

     total energy              =   -1492.16974089 Ry
     estimated scf accuracy    <       0.00833030 Ry

     iteration #  5     ecut=    30.00 Ry     beta= 0.70
     Davidson diagonalization with overlap

---- Real-time Memory Report at c_bands before calling an iterative solver
           365 MiB given to the printing process from OS
             0 MiB allocation reported by mallinfo(arena+hblkhd)
        139859 MiB available memory on the node where the printing process lives
------------------
     ethr =  9.05E-06,  avg # of iterations = 10.3

     total cpu time spent up to now is       36.5 secs

     total energy              =   -1492.17231248 Ry
     estimated scf accuracy    <       0.00122803 Ry

     iteration #  6     ecut=    30.00 Ry     beta= 0.70
     Davidson diagonalization with overlap

---- Real-time Memory Report at c_bands before calling an iterative solver
           367 MiB given to the printing process from OS
             0 MiB allocation reported by mallinfo(arena+hblkhd)
        139841 MiB available memory on the node where the printing process lives
------------------
     ethr =  1.33E-06,  avg # of iterations =  7.2

     total cpu time spent up to now is       42.3 secs

     total energy              =   -1492.17283783 Ry
     estimated scf accuracy    <       0.00013140 Ry

     iteration #  7     ecut=    30.00 Ry     beta= 0.70
     Davidson diagonalization with overlap

---- Real-time Memory Report at c_bands before calling an iterative solver
           367 MiB given to the printing process from OS
             0 MiB allocation reported by mallinfo(arena+hblkhd)
        139882 MiB available memory on the node where the printing process lives
------------------
     ethr =  1.43E-07,  avg # of iterations =  3.6

     total cpu time spent up to now is       47.0 secs

     total energy              =   -1492.17287215 Ry
     estimated scf accuracy    <       0.00001550 Ry

     iteration #  8     ecut=    30.00 Ry     beta= 0.70
     Davidson diagonalization with overlap

---- Real-time Memory Report at c_bands before calling an iterative solver
           367 MiB given to the printing process from OS
             0 MiB allocation reported by mallinfo(arena+hblkhd)
        139882 MiB available memory on the node where the printing process lives
------------------
     ethr =  1.68E-08,  avg # of iterations =  4.7

     total cpu time spent up to now is       52.2 secs

     total energy              =   -1492.17287750 Ry
     estimated scf accuracy    <       0.00000683 Ry

     iteration #  9     ecut=    30.00 Ry     beta= 0.70
     Davidson diagonalization with overlap

---- Real-time Memory Report at c_bands before calling an iterative solver
           369 MiB given to the printing process from OS
             0 MiB allocation reported by mallinfo(arena+hblkhd)
        139881 MiB available memory on the node where the printing process lives
------------------
     ethr =  7.43E-09,  avg # of iterations =  2.0

     total cpu time spent up to now is       56.4 secs

     End of self-consistent calculation

          k = 0.0000 0.0000 0.0000 (  7285 PWs)   bands (ev):

   -12.2934 -12.2777 -12.2693 -12.2648 -12.2546  -6.7436  -6.4802  -6.3706
    -6.1989  -6.1192  -3.8615  -3.8615  -3.8523  -3.8413  -3.8172  -3.7987
    -3.7940  -3.7761  -3.7453  -3.7221  -3.7055  -3.6821  -3.6748  -3.6730
    -3.6565  -3.6516  -3.6450  -3.6342  -3.3629  -3.2788  -2.9626   0.0980
     0.6636   1.0831   1.6749   1.9151   2.2500   2.5458   2.6049   2.6488
     3.4055   3.4291   3.6134   3.8560   3.8888   3.9869   5.4269   6.3923
     6.6193   6.7749   6.8509   7.0770   7.1569   7.9772   8.0529   8.7516
     8.8330   8.8962   9.2633   9.3087   9.3811  10.5263  10.7493  10.8827

     occupation numbers 
     1.0000   1.0000   1.0000   1.0000   1.0000   1.0000   1.0000   1.0000
     1.0000   1.0000   1.0000   1.0000   1.0000   1.0000   1.0000   1.0000
     1.0000   1.0000   1.0000   1.0000   1.0000   1.0000   1.0000   1.0000
     1.0000   1.0000   1.0000   1.0000   1.0000   1.0000   1.0000   1.0000
     1.0000   1.0000   1.0000   1.0000   1.0000   1.0000   1.0000   1.0000
     1.0000   1.0000   1.0000   1.0000   1.0000   1.0000   0.0000   0.0000
     0.0000   0.0000   0.0000   0.0000   0.0000   0.0000   0.0000   0.0000
     0.0000   0.0000   0.0000   0.0000   0.0000   0.0000   0.0000   0.0000

          k = 0.0000 0.0000 1.1042 (  7285 PWs)   bands (ev):

   -12.2919 -12.2791 -12.2689 -12.2676 -12.2521  -6.4159  -6.3086  -6.2886
    -6.1725  -6.1263  -3.8430  -3.8258  -3.8097  -3.8015  -3.7951  -3.7821
    -3.7709  -3.7690  -3.6983  -3.6927  -3.6886  -3.6884  -3.6663  -3.6587
    -3.6478  -3.6446  -3.5755  -3.4531  -3.4440  -3.3164  -3.0438   0.2246
     0.3693   0.3977   0.7143   1.8153   1.9018   2.0256   2.1687   2.4126
     2.7277   2.8703   2.9633   3.3410   3.3947   3.9923   5.8810   6.6967
     7.0169   7.1018   7.2260   7.6653   7.6883   8.3373   8.5791   8.8777
     9.2297   9.3456   9.4986   9.6034   9.9208  10.4251  10.5328  10.8569

     occupation numbers 
     1.0000   1.0000   1.0000   1.0000   1.0000   1.0000   1.0000   1.0000
     1.0000   1.0000   1.0000   1.0000   1.0000   1.0000   1.0000   1.0000
     1.0000   1.0000   1.0000   1.0000   1.0000   1.0000   1.0000   1.0000
     1.0000   1.0000   1.0000   1.0000   1.0000   1.0000   1.0000   1.0000
     1.0000   1.0000   1.0000   1.0000   1.0000   1.0000   1.0000   1.0000
     1.0000   1.0000   1.0000   1.0000   1.0000   1.0000   0.0000   0.0000
     0.0000   0.0000   0.0000   0.0000   0.0000   0.0000   0.0000   0.0000
     0.0000   0.0000   0.0000   0.0000   0.0000   0.0000   0.0000   0.0000

          k = 0.0000 0.5475 0.7421 (  7267 PWs)   bands (ev):

   -12.2917 -12.2791 -12.2688 -12.2676 -12.2522  -6.4714  -6.3286  -6.2782
    -6.1616  -6.0808  -3.8559  -3.8286  -3.8088  -3.8025  -3.7767  -3.7684
    -3.7600  -3.7541  -3.7235  -3.7073  -3.6936  -3.6891  -3.6708  -3.6621
    -3.6375  -3.6358  -3.5848  -3.4901  -3.4391  -3.2566  -3.0686   0.1727
     0.3194   0.6730   1.3222   1.7468   1.9358   2.0651   2.2257   2.4353
     2.5313   2.6395   2.7044   2.8804   3.4405   4.1617   6.1172   6.3836
     6.6111   6.9182   6.9782   7.5370   7.7891   7.8957   8.1222   8.8094
     8.8989   9.2644   9.5193  10.3705  10.5492  10.6649  10.7602  11.0001

     occupation numbers 
     1.0000   1.0000   1.0000   1.0000   1.0000   1.0000   1.0000   1.0000
     1.0000   1.0000   1.0000   1.0000   1.0000   1.0000   1.0000   1.0000
     1.0000   1.0000   1.0000   1.0000   1.0000   1.0000   1.0000   1.0000
     1.0000   1.0000   1.0000   1.0000   1.0000   1.0000   1.0000   1.0000
     1.0000   1.0000   1.0000   1.0000   1.0000   1.0000   1.0000   1.0000
     1.0000   1.0000   1.0000   1.0000   1.0000   1.0000   0.0000   0.0000
     0.0000   0.0000   0.0000   0.0000   0.0000   0.0000   0.0000   0.0000
     0.0000   0.0000   0.0000   0.0000   0.0000   0.0000   0.0000   0.0000

          k = 0.0000 0.5475 1.8463 (  7269 PWs)   bands (ev):

   -12.2919 -12.2791 -12.2689 -12.2676 -12.2521  -6.3928  -6.3298  -6.3055
    -6.1599  -6.1235  -3.8423  -3.8216  -3.8162  -3.8041  -3.7900  -3.7844
    -3.7761  -3.7603  -3.6985  -3.6943  -3.6880  -3.6846  -3.6645  -3.6566
    -3.6458  -3.6426  -3.5738  -3.5302  -3.3395  -3.3054  -3.0807   0.1943
     0.2408   0.5781   0.7140   1.6519   1.8490   2.1826   2.3637   2.4950
     2.7512   2.8280   2.9528   3.0217   3.3317   4.1749   6.0833   6.5856
     6.7181   6.8278   7.4914   7.6152   7.8034   8.4113   8.7606   8.9388
     9.1940   9.3077   9.5684   9.7937  10.0857  10.3977  10.4223  10.6132

     occupation numbers 
     1.0000   1.0000   1.0000   1.0000   1.0000   1.0000   1.0000   1.0000
     1.0000   1.0000   1.0000   1.0000   1.0000   1.0000   1.0000   1.0000
     1.0000   1.0000   1.0000   1.0000   1.0000   1.0000   1.0000   1.0000
     1.0000   1.0000   1.0000   1.0000   1.0000   1.0000   1.0000   1.0000
     1.0000   1.0000   1.0000   1.0000   1.0000   1.0000   1.0000   1.0000
     1.0000   1.0000   1.0000   1.0000   1.0000   1.0000   0.0000   0.0000
     0.0000   0.0000   0.0000   0.0000   0.0000   0.0000   0.0000   0.0000
     0.0000   0.0000   0.0000   0.0000   0.0000   0.0000   0.0000   0.0000

          k = 0.0000 0.5475-0.3622 (  7263 PWs)   bands (ev):

   -12.2935 -12.2777 -12.2693 -12.2647 -12.2544  -6.6161  -6.4567  -6.3631
    -6.2471  -6.2282  -3.8764  -3.8409  -3.8405  -3.8352  -3.8244  -3.8100
    -3.8028  -3.7756  -3.7465  -3.7129  -3.6838  -3.6721  -3.6677  -3.6665
    -3.6545  -3.6438  -3.6343  -3.6267  -3.5061  -3.4354  -2.7979   0.2780
     0.5214   0.7098   1.8820   2.2409   2.4309   2.7372   2.9266   2.9719
     3.2693   3.2925   3.4760   3.4773   3.5224   3.9919   5.7071   5.9505
     6.4434   6.4718   6.8589   7.2425   7.5144   7.7452   8.2973   8.8997
     9.1408   9.2203   9.4167   9.6494   9.8727  10.0222  10.0349  10.5365

     occupation numbers 
     1.0000   1.0000   1.0000   1.0000   1.0000   1.0000   1.0000   1.0000
     1.0000   1.0000   1.0000   1.0000   1.0000   1.0000   1.0000   1.0000
     1.0000   1.0000   1.0000   1.0000   1.0000   1.0000   1.0000   1.0000
     1.0000   1.0000   1.0000   1.0000   1.0000   1.0000   1.0000   1.0000
     1.0000   1.0000   1.0000   1.0000   1.0000   1.0000   1.0000   1.0000
     1.0000   1.0000   1.0000   1.0000   1.0000   1.0000   0.0000   0.0000
     0.0000   0.0000   0.0000   0.0000   0.0000   0.0000   0.0000   0.0000
     0.0000   0.0000   0.0000   0.0000   0.0000   0.0000   0.0000   0.0000

          k = 0.3333-0.4343 0.3622 (  7263 PWs)   bands (ev):

   -12.2935 -12.2777 -12.2693 -12.2647 -12.2544  -6.6161  -6.4567  -6.3631
    -6.2471  -6.2282  -3.8764  -3.8409  -3.8405  -3.8352  -3.8244  -3.8100
    -3.8028  -3.7756  -3.7465  -3.7129  -3.6838  -3.6721  -3.6677  -3.6666
    -3.6545  -3.6438  -3.6343  -3.6267  -3.5061  -3.4354  -2.7979   0.2780
     0.5214   0.7098   1.8820   2.2409   2.4309   2.7372   2.9266   2.9719
     3.2693   3.2925   3.4760   3.4773   3.5224   3.9919   5.7071   5.9505
     6.4434   6.4718   6.8589   7.2425   7.5145   7.7451   8.2973   8.8997
     9.1408   9.2204   9.4167   9.6494   9.8727  10.0222  10.0348  10.5365

     occupation numbers 
     1.0000   1.0000   1.0000   1.0000   1.0000   1.0000   1.0000   1.0000
     1.0000   1.0000   1.0000   1.0000   1.0000   1.0000   1.0000   1.0000
     1.0000   1.0000   1.0000   1.0000   1.0000   1.0000   1.0000   1.0000
     1.0000   1.0000   1.0000   1.0000   1.0000   1.0000   1.0000   1.0000
     1.0000   1.0000   1.0000   1.0000   1.0000   1.0000   1.0000   1.0000
     1.0000   1.0000   1.0000   1.0000   1.0000   1.0000   0.0000   0.0000
     0.0000   0.0000   0.0000   0.0000   0.0000   0.0000   0.0000   0.0000
     0.0000   0.0000   0.0000   0.0000   0.0000   0.0000   0.0000   0.0000

          k = 0.3333-0.4343 1.4664 (  7269 PWs)   bands (ev):

   -12.2919 -12.2791 -12.2689 -12.2676 -12.2521  -6.3928  -6.3298  -6.3055
    -6.1599  -6.1235  -3.8424  -3.8216  -3.8162  -3.8040  -3.7900  -3.7843
    -3.7761  -3.7603  -3.6985  -3.6943  -3.6879  -3.6846  -3.6646  -3.6566
    -3.6458  -3.6426  -3.5738  -3.5302  -3.3395  -3.3054  -3.0807   0.1943
     0.2408   0.5781   0.7140   1.6519   1.8490   2.1826   2.3637   2.4949
     2.7511   2.8280   2.9529   3.0217   3.3317   4.1749   6.0833   6.5856
     6.7181   6.8278   7.4914   7.6152   7.8034   8.4113   8.7606   8.9388
     9.1940   9.3077   9.5683   9.7937  10.0857  10.3977  10.4223  10.6132

     occupation numbers 
     1.0000   1.0000   1.0000   1.0000   1.0000   1.0000   1.0000   1.0000
     1.0000   1.0000   1.0000   1.0000   1.0000   1.0000   1.0000   1.0000
     1.0000   1.0000   1.0000   1.0000   1.0000   1.0000   1.0000   1.0000
     1.0000   1.0000   1.0000   1.0000   1.0000   1.0000   1.0000   1.0000
     1.0000   1.0000   1.0000   1.0000   1.0000   1.0000   1.0000   1.0000
     1.0000   1.0000   1.0000   1.0000   1.0000   1.0000   0.0000   0.0000
     0.0000   0.0000   0.0000   0.0000   0.0000   0.0000   0.0000   0.0000
     0.0000   0.0000   0.0000   0.0000   0.0000   0.0000   0.0000   0.0000

          k = 0.3333-0.4343-0.7421 (  7267 PWs)   bands (ev):

   -12.2917 -12.2791 -12.2688 -12.2676 -12.2522  -6.4714  -6.3286  -6.2782
    -6.1616  -6.0808  -3.8559  -3.8286  -3.8088  -3.8025  -3.7767  -3.7684
    -3.7600  -3.7541  -3.7235  -3.7073  -3.6936  -3.6891  -3.6708  -3.6621
    -3.6375  -3.6358  -3.5848  -3.4901  -3.4391  -3.2566  -3.0686   0.1727
     0.3194   0.6730   1.3222   1.7468   1.9358   2.0651   2.2257   2.4353
     2.5313   2.6395   2.7044   2.8804   3.4405   4.1617   6.1172   6.3836
     6.6111   6.9182   6.9782   7.5370   7.7891   7.8957   8.1222   8.8094
     8.8989   9.2644   9.5193  10.3705  10.5492  10.6649  10.7601  11.0000

     occupation numbers 
     1.0000   1.0000   1.0000   1.0000   1.0000   1.0000   1.0000   1.0000
     1.0000   1.0000   1.0000   1.0000   1.0000   1.0000   1.0000   1.0000
     1.0000   1.0000   1.0000   1.0000   1.0000   1.0000   1.0000   1.0000
     1.0000   1.0000   1.0000   1.0000   1.0000   1.0000   1.0000   1.0000
     1.0000   1.0000   1.0000   1.0000   1.0000   1.0000   1.0000   1.0000
     1.0000   1.0000   1.0000   1.0000   1.0000   1.0000   0.0000   0.0000
     0.0000   0.0000   0.0000   0.0000   0.0000   0.0000   0.0000   0.0000
     0.0000   0.0000   0.0000   0.0000   0.0000   0.0000   0.0000   0.0000

          k = 0.3333 0.1132 1.1042 (  7269 PWs)   bands (ev):

   -12.2919 -12.2791 -12.2689 -12.2676 -12.2521  -6.3928  -6.3298  -6.3055
    -6.1599  -6.1235  -3.8424  -3.8216  -3.8162  -3.8040  -3.7900  -3.7843
    -3.7761  -3.7603  -3.6985  -3.6943  -3.6879  -3.6846  -3.6645  -3.6566
    -3.6458  -3.6426  -3.5738  -3.5302  -3.3395  -3.3054  -3.0807   0.1943
     0.2408   0.5781   0.7140   1.6519   1.8490   2.1826   2.3637   2.4949
     2.7511   2.8280   2.9529   3.0217   3.3317   4.1749   6.0833   6.5856
     6.7181   6.8278   7.4914   7.6152   7.8034   8.4113   8.7606   8.9388
     9.1940   9.3077   9.5683   9.7937  10.0857  10.3977  10.4222  10.6130

     occupation numbers 
     1.0000   1.0000   1.0000   1.0000   1.0000   1.0000   1.0000   1.0000
     1.0000   1.0000   1.0000   1.0000   1.0000   1.0000   1.0000   1.0000
     1.0000   1.0000   1.0000   1.0000   1.0000   1.0000   1.0000   1.0000
     1.0000   1.0000   1.0000   1.0000   1.0000   1.0000   1.0000   1.0000
     1.0000   1.0000   1.0000   1.0000   1.0000   1.0000   1.0000   1.0000
     1.0000   1.0000   1.0000   1.0000   1.0000   1.0000   0.0000   0.0000
     0.0000   0.0000   0.0000   0.0000   0.0000   0.0000   0.0000   0.0000
     0.0000   0.0000   0.0000   0.0000   0.0000   0.0000   0.0000   0.0000

          k = 0.3333 0.1132 2.2084 (  7269 PWs)   bands (ev):

   -12.2919 -12.2791 -12.2689 -12.2676 -12.2521  -6.3928  -6.3298  -6.3055
    -6.1599  -6.1235  -3.8423  -3.8216  -3.8162  -3.8041  -3.7900  -3.7844
    -3.7761  -3.7603  -3.6985  -3.6943  -3.6880  -3.6846  -3.6645  -3.6566
    -3.6458  -3.6426  -3.5738  -3.5302  -3.3395  -3.3054  -3.0807   0.1943
     0.2408   0.5781   0.7140   1.6519   1.8490   2.1826   2.3637   2.4950
     2.7512   2.8280   2.9528   3.0217   3.3317   4.1749   6.0833   6.5856
     6.7181   6.8278   7.4914   7.6152   7.8034   8.4113   8.7606   8.9388
     9.1940   9.3077   9.5684   9.7937  10.0857  10.3977  10.4223  10.6131

     occupation numbers 
     1.0000   1.0000   1.0000   1.0000   1.0000   1.0000   1.0000   1.0000
     1.0000   1.0000   1.0000   1.0000   1.0000   1.0000   1.0000   1.0000
     1.0000   1.0000   1.0000   1.0000   1.0000   1.0000   1.0000   1.0000
     1.0000   1.0000   1.0000   1.0000   1.0000   1.0000   1.0000   1.0000
     1.0000   1.0000   1.0000   1.0000   1.0000   1.0000   1.0000   1.0000
     1.0000   1.0000   1.0000   1.0000   1.0000   1.0000   0.0000   0.0000
     0.0000   0.0000   0.0000   0.0000   0.0000   0.0000   0.0000   0.0000
     0.0000   0.0000   0.0000   0.0000   0.0000   0.0000   0.0000   0.0000

          k = 0.3333 0.1132 0.0000 (  7278 PWs)   bands (ev):

   -12.2934 -12.2777 -12.2693 -12.2647 -12.2546  -6.7124  -6.5608  -6.3175
    -6.1953  -6.1266  -3.8726  -3.8614  -3.8533  -3.8406  -3.8241  -3.8032
    -3.7995  -3.7723  -3.7474  -3.7352  -3.7027  -3.6758  -3.6726  -3.6708
    -3.6589  -3.6519  -3.6352  -3.5610  -3.3768  -3.3083  -2.9675   0.1353
     0.3609   1.5373   1.7088   1.8748   2.2240   2.4285   2.6921   2.8327
     3.0924   3.1781   3.7011   3.7599   3.9571   4.1918   5.5480   6.1119
     6.4102   6.7830   6.9297   7.0587   7.1596   7.8423   8.5187   8.6985
     8.7965   9.1774   9.2076   9.5369   9.5724  10.3115  10.5210  10.7554

     occupation numbers 
     1.0000   1.0000   1.0000   1.0000   1.0000   1.0000   1.0000   1.0000
     1.0000   1.0000   1.0000   1.0000   1.0000   1.0000   1.0000   1.0000
     1.0000   1.0000   1.0000   1.0000   1.0000   1.0000   1.0000   1.0000
     1.0000   1.0000   1.0000   1.0000   1.0000   1.0000   1.0000   1.0000
     1.0000   1.0000   1.0000   1.0000   1.0000   1.0000   1.0000   1.0000
     1.0000   1.0000   1.0000   1.0000   1.0000   1.0000   0.0000   0.0000
     0.0000   0.0000   0.0000   0.0000   0.0000   0.0000   0.0000   0.0000
     0.0000   0.0000   0.0000   0.0000   0.0000   0.0000   0.0000   0.0000

          k = 0.3333-0.9818-0.3799 (  7285 PWs)   bands (ev):

   -12.2919 -12.2791 -12.2689 -12.2676 -12.2521  -6.4159  -6.3086  -6.2886
    -6.1725  -6.1263  -3.8430  -3.8258  -3.8097  -3.8015  -3.7951  -3.7821
    -3.7709  -3.7690  -3.6983  -3.6927  -3.6886  -3.6884  -3.6663  -3.6587
    -3.6478  -3.6446  -3.5755  -3.4531  -3.4440  -3.3164  -3.0438   0.2246
     0.3693   0.3977   0.7143   1.8153   1.9018   2.0256   2.1687   2.4126
     2.7277   2.8703   2.9633   3.3410   3.3947   3.9923   5.8810   6.6967
     7.0169   7.1018   7.2260   7.6653   7.6883   8.3373   8.5791   8.8777
     9.2297   9.3456   9.4986   9.6034   9.9208  10.4251  10.5328  10.8568

     occupation numbers 
     1.0000   1.0000   1.0000   1.0000   1.0000   1.0000   1.0000   1.0000
     1.0000   1.0000   1.0000   1.0000   1.0000   1.0000   1.0000   1.0000
     1.0000   1.0000   1.0000   1.0000   1.0000   1.0000   1.0000   1.0000
     1.0000   1.0000   1.0000   1.0000   1.0000   1.0000   1.0000   1.0000
     1.0000   1.0000   1.0000   1.0000   1.0000   1.0000   1.0000   1.0000
     1.0000   1.0000   1.0000   1.0000   1.0000   1.0000   0.0000   0.0000
     0.0000   0.0000   0.0000   0.0000   0.0000   0.0000   0.0000   0.0000
     0.0000   0.0000   0.0000   0.0000   0.0000   0.0000   0.0000   0.0000

          k = 0.3333-0.9818 0.7243 (  7273 PWs)   bands (ev):

   -12.2934 -12.2777 -12.2694 -12.2647 -12.2544  -6.5904  -6.5009  -6.3565
    -6.2417  -6.2221  -3.8663  -3.8403  -3.8403  -3.8378  -3.8259  -3.8085
    -3.8012  -3.7762  -3.7497  -3.7470  -3.6933  -3.6752  -3.6717  -3.6693
    -3.6530  -3.6441  -3.6433  -3.6358  -3.4287  -3.4228  -2.8393   0.1086
     0.5304   1.1723   1.4665   2.4265   2.4357   2.6905   2.7812   3.0509
     3.2059   3.4021   3.4373   3.4697   3.5345   4.0463   5.8643   5.9014
     6.2266   6.3846   6.8325   7.2521   7.6759   7.6792   8.6629   8.6913
     8.9281   9.3339   9.3864   9.4950   9.6471  10.2599  10.4536  10.6966

     occupation numbers 
     1.0000   1.0000   1.0000   1.0000   1.0000   1.0000   1.0000   1.0000
     1.0000   1.0000   1.0000   1.0000   1.0000   1.0000   1.0000   1.0000
     1.0000   1.0000   1.0000   1.0000   1.0000   1.0000   1.0000   1.0000
     1.0000   1.0000   1.0000   1.0000   1.0000   1.0000   1.0000   1.0000
     1.0000   1.0000   1.0000   1.0000   1.0000   1.0000   1.0000   1.0000
     1.0000   1.0000   1.0000   1.0000   1.0000   1.0000   0.0000   0.0000
     0.0000   0.0000   0.0000   0.0000   0.0000   0.0000   0.0000   0.0000
     0.0000   0.0000   0.0000   0.0000   0.0000   0.0000   0.0000   0.0000

          k = 0.3333-0.9818-1.4841 (  7252 PWs)   bands (ev):

   -12.2917 -12.2791 -12.2688 -12.2676 -12.2523  -6.4184  -6.4061  -6.2716
    -6.1436  -6.0809  -3.8635  -3.8208  -3.8123  -3.8004  -3.7776  -3.7668
    -3.7569  -3.7504  -3.7195  -3.7184  -3.6898  -3.6882  -3.6672  -3.6618
    -3.6391  -3.6376  -3.6160  -3.4888  -3.3087  -3.3071  -3.1109   0.1224
     0.2357   0.9289   1.2203   1.6915   2.0052   2.0869   2.1359   2.2953
     2.7263   2.7416   2.8652   2.9291   3.0391   4.2124   6.2185   6.4969
     6.5664   6.9282   6.9989   7.4078   7.4240   7.5491   8.1864   9.0244
     9.2481   9.8271   9.8803  10.3225  10.3438  10.7125  10.7545  10.9021

     occupation numbers 
     1.0000   1.0000   1.0000   1.0000   1.0000   1.0000   1.0000   1.0000
     1.0000   1.0000   1.0000   1.0000   1.0000   1.0000   1.0000   1.0000
     1.0000   1.0000   1.0000   1.0000   1.0000   1.0000   1.0000   1.0000
     1.0000   1.0000   1.0000   1.0000   1.0000   1.0000   1.0000   1.0000
     1.0000   1.0000   1.0000   1.0000   1.0000   1.0000   1.0000   1.0000
     1.0000   1.0000   1.0000   1.0000   1.0000   1.0000   0.0000   0.0000
     0.0000   0.0000   0.0000   0.0000   0.0000   0.0000   0.0000   0.0000
     0.0000   0.0000   0.0000   0.0000   0.0000   0.0000   0.0000   0.0000

     highest occupied, lowest unoccupied level (ev):     4.2124    5.4269

!    total energy              =   -1492.17287894 Ry
     estimated scf accuracy    <       0.00000027 Ry

     The total energy is the sum of the following terms:
     one-electron contribution =    -304.27704784 Ry
     hartree contribution      =     215.59286342 Ry
     xc contribution           =    -287.95435306 Ry
     ewald contribution        =    -387.05834109 Ry
     one-center paw contrib.   =    -728.47600037 Ry
      -> PAW hartree energy AE =       0.00000000 Ry
      -> PAW hartree energy PS =       0.00000000 Ry
      -> PAW xc energy AE      =       0.00000000 Ry
      -> PAW xc energy PS      =       0.00000000 Ry
      -> total E_H with PAW    =     215.59286342 Ry
      -> total E_XC with PAW   =    -287.95435306 Ry

     convergence has been achieved in   9 iterations

     Writing all to output data dir calculations_bands_val/myprefix.save/
 
     init_run     :     16.15s CPU      5.89s WALL (       1 calls)
     electrons    :    191.62s CPU     50.08s WALL (       1 calls)

     Called by init_run:
     wfcinit      :      5.29s CPU      1.37s WALL (       1 calls)
     wfcinit:atom :      0.02s CPU      0.01s WALL (       7 calls)
     wfcinit:wfcr :      5.08s CPU      1.31s WALL (       7 calls)
     potinit      :      3.85s CPU      1.05s WALL (       1 calls)
     hinit0       :      6.04s CPU      3.18s WALL (       1 calls)

     Called by electrons:
     c_bands      :    148.43s CPU     38.56s WALL (      10 calls)
     sum_band     :     30.85s CPU      8.15s WALL (      10 calls)
     v_of_rho     :      4.77s CPU      1.29s WALL (      10 calls)
     v_h          :      0.29s CPU      0.08s WALL (      10 calls)
     v_xc         :      4.47s CPU      1.21s WALL (      10 calls)
     newd         :      3.35s CPU      0.95s WALL (      10 calls)
     PAW_pot      :      3.88s CPU      1.02s WALL (      10 calls)
     mix_rho      :      0.57s CPU      0.15s WALL (      10 calls)

     Called by c_bands:
     init_us_2    :      0.32s CPU      0.09s WALL (     147 calls)
     init_us_2:cp :      0.31s CPU      0.09s WALL (     147 calls)
     cegterg      :    130.86s CPU     33.91s WALL (      70 calls)

     Called by sum_band:
     sum_band:wei :      0.05s CPU      0.01s WALL (      10 calls)
     sum_band:loo :     24.25s CPU      6.24s WALL (      10 calls)
     sum_band:buf :      0.13s CPU      0.04s WALL (      70 calls)
     sum_band:ini :      0.14s CPU      0.04s WALL (      70 calls)
     sum_band:cal :      0.70s CPU      0.18s WALL (      70 calls)
     sum_band:bec :      0.04s CPU      0.01s WALL (      70 calls)
     addusdens    :      2.99s CPU      0.96s WALL (      10 calls)
     addusd:skk   :      0.02s CPU      0.01s WALL (      30 calls)
     addusd:dgemm :      0.41s CPU      0.29s WALL (      30 calls)
     addusd:qvan2 :      1.89s CPU      0.48s WALL (      30 calls)

     Called by *egterg:
     cdiaghg      :      7.00s CPU      1.83s WALL (     381 calls)
     cegterg:over :      2.66s CPU      0.68s WALL (     318 calls)
     cegterg:upda :      1.21s CPU      0.31s WALL (     318 calls)
     cegterg:last :      1.81s CPU      0.47s WALL (     153 calls)
     cdiaghg:chol :      0.51s CPU      0.14s WALL (     381 calls)
     cdiaghg:inve :      0.10s CPU      0.03s WALL (     381 calls)
     cdiaghg:para :      1.06s CPU      0.28s WALL (     762 calls)
     h_psi        :    121.41s CPU     31.46s WALL (     395 calls)
     s_psi        :      0.88s CPU      0.22s WALL (     395 calls)
     g_psi        :      0.07s CPU      0.02s WALL (     318 calls)

     Called by h_psi:
     h_psi:calbec :      2.01s CPU      0.51s WALL (     395 calls)
     vloc_psi     :    118.24s CPU     30.64s WALL (     395 calls)
     add_vuspsi   :      1.04s CPU      0.27s WALL (     395 calls)

     General routines
     calbec       :      2.69s CPU      0.69s WALL (     465 calls)
     fft          :      5.23s CPU      1.72s WALL (     129 calls)
     ffts         :      1.43s CPU      0.42s WALL (      20 calls)
     fftw         :    130.95s CPU     33.87s WALL (   28416 calls)
     interpolate  :      1.61s CPU      0.47s WALL (      10 calls)
 
     Parallel routines

     PAW routines
     PAW_pot      :      3.88s CPU      1.02s WALL (      10 calls)
 
     PWSCF        :   3m30.33s CPU     57.27s WALL

 
   This run was terminated on:  11:56:40   4Jun2023            

=------------------------------------------------------------------------------=
   JOB DONE.
=------------------------------------------------------------------------------=
