
     Program PWSCF v.7.0 starts on  4Jun2023 at 12:27:54 

     This program is part of the open-source Quantum ESPRESSO suite
     for quantum simulation of materials; please cite
         "P. Giannozzi et al., J. Phys.:Condens. Matter 21 395502 (2009);
         "P. Giannozzi et al., J. Phys.:Condens. Matter 29 465901 (2017);
         "P. Giannozzi et al., J. Chem. Phys. 152 154105 (2020);
          URL http://www.quantum-espresso.org", 
     in publications or presentations arising from this work. More details at
     http://www.quantum-espresso.org/quote

     Parallel version (MPI & OpenMP), running on      32 processor cores
     Number of MPI processes:                 8
     Threads/MPI process:                     4

     MPI processes distributed on     1 nodes
     K-points division:     npool     =       2
     R & G space division:  proc/nbgrp/npool/nimage =       4
     142243 MiB available memory on the printing compute node when the environment starts
 
     Reading input from espresso_420.pwi
Warning: card &CELL ignored
Warning: card / ignored

     Current dimensions of program PWSCF are:
     Max number of different atomic species (ntypx) = 10
     Max number of k-points (npk) =  40000
     Max angular momentum in pseudopotentials (lmaxx) =  4
     Message from routine setup:
     using ibrav=0 with symmetry is DISCOURAGED, use correct ibrav instead

     Subspace diagonalization in iterative solution of the eigenvalue problem:
     one sub-group per band group will be used
     scalapack distributed-memory algorithm (size of sub-group:  2*  2 procs)

 
     Parallelization info
     --------------------
     sticks:   dense  smooth     PW     G-vecs:    dense   smooth      PW
     Min         238     118     35                 8927     3142     511
     Max         240     119     36                 8929     3144     512
     Sum         955     475    143                35713    12571    2047
 
     Using Slab Decomposition
 


     bravais-lattice index     =            0
     lattice parameter (alat)  =       5.7815  a.u.
     unit-cell volume          =     568.5992 (a.u.)^3
     number of atoms/cell      =            8
     number of atomic types    =            3
     number of electrons       =        62.00
     number of Kohn-Sham states=           64
     kinetic-energy cutoff     =      30.0000  Ry
     charge density cutoff     =     240.0000  Ry
     scf convergence threshold =      1.0E-06
     mixing beta               =       0.7000
     number of iterations used =            8  plain     mixing
     Exchange-correlation= PBE
                           (   1   4   3   4   0   0   0)

     celldm(1)=   5.781507  celldm(2)=   0.000000  celldm(3)=   0.000000
     celldm(4)=   0.000000  celldm(5)=   0.000000  celldm(6)=   0.000000

     crystal axes: (cart. coord. in units of alat)
               a(1) = (   1.000000   0.000000   0.000000 )  
               a(2) = (   0.000000   1.488467   0.000000 )  
               a(3) = (   0.000000   0.012758   1.976714 )  

     reciprocal axes: (cart. coord. in units 2 pi/alat)
               b(1) = (  1.000000  0.000000  0.000000 )  
               b(2) = (  0.000000  0.671832 -0.004336 )  
               b(3) = (  0.000000  0.000000  0.505890 )  


     PseudoPot. # 1 for Ti read from file:
     /home/pragov/projects/rrg-bengioy-ad/pragov/crystal_structure_design/SSSP/ti_pbe_v1.4.uspp.F.UPF
     MD5 check sum: 88a00a6731bd790ddea75d31a80cb452
     Pseudo is Ultrasoft + core correction, Zval = 12.0
     Generated by new atomic code, or converted to UPF format
     Using radial grid of  851 points,  6 beta functions with: 
                l(1) =   0
                l(2) =   0
                l(3) =   1
                l(4) =   1
                l(5) =   2
                l(6) =   2
     Q(r) pseudized with  6 coefficients,  rinner =    1.000   1.000   1.000
                                                       1.000   1.000

     PseudoPot. # 2 for B  read from file:
     /home/pragov/projects/rrg-bengioy-ad/pragov/crystal_structure_design/SSSP/b_pbe_v1.4.uspp.F.UPF
     MD5 check sum: cc6de2960df11db49a60e589f9ebb39b
     Pseudo is Ultrasoft + core correction, Zval =  3.0
     Generated by new atomic code, or converted to UPF format
     Using radial grid of  781 points,  4 beta functions with: 
                l(1) =   0
                l(2) =   0
                l(3) =   1
                l(4) =   1
     Q(r) pseudized with  8 coefficients,  rinner =    1.100   1.100   1.100


     PseudoPot. # 3 for Mo read from file:
     /home/pragov/projects/rrg-bengioy-ad/pragov/crystal_structure_design/SSSP/Mo_ONCV_PBE-1.0.oncvpsp.upf
     MD5 check sum: 1b5d28e075c9ccadda658a603575cd1f
     Pseudo is Norm-conserving, Zval = 14.0
     Generated using ONCVPSP code by D. R. Hamann
     Using radial grid of 1526 points,  6 beta functions with: 
                l(1) =   0
                l(2) =   0
                l(3) =   1
                l(4) =   1
                l(5) =   2
                l(6) =   2

     atomic species   valence    mass     pseudopotential
        Ti            12.00    47.86700     Ti( 1.00)
        B              3.00    10.81000     B ( 1.00)
        Mo            14.00    95.95000     Mo( 1.00)

      2 Sym. Ops. (no inversion) found


                                    s                        frac. trans.

      isym =  1     identity                                     

 cryst.   s( 1) = (     1          0          0      )
                  (     0          1          0      )
                  (     0          0          1      )

 cart.    s( 1) = (  1.0000000  0.0000000  0.0000000 )
                  (  0.0000000  1.0000000  0.0000000 )
                  (  0.0000000  0.0000000  1.0000000 )


      isym =  2     inv. 180 deg rotation - cart. axis [1,0,0]   

 cryst.   s( 2) = (    -1          0          0      )
                  (     0          1          0      )
                  (     0          0          1      )

 cart.    s( 2) = ( -1.0000000  0.0000000  0.0000000 )
                  (  0.0000000  1.0000000  0.0000000 )
                  (  0.0000000  0.0000000  1.0000000 )


   Cartesian axes

     site n.     atom                  positions (alat units)
         1           Ti  tau(   1) = (   0.5000000   1.3045126   0.3474569  )
         2           Ti  tau(   2) = (   0.0000000   0.5678319   0.6465929  )
         3           Ti  tau(   3) = (   0.0000000   0.1874883   1.6239316  )
         4           B   tau(   4) = (   0.5000000   0.1589406   1.0457171  )
         5           B   tau(   5) = (   0.5000000   0.5952927   0.0571468  )
         6           B   tau(   6) = (   0.0000000   1.3461916   0.9286759  )
         7           B   tau(   7) = (   0.0000000   0.9089863   1.9153546  )
         8           Mo  tau(   8) = (   0.5000000   0.9356563   1.3419791  )

   Crystallographic axes

     site n.     atom                  positions (cryst. coord.)
         1           Ti  tau(   1) = (  0.5000000  0.8749070  0.1757750  )
         2           Ti  tau(   2) = (  0.0000000  0.3786840  0.3271050  )
         3           Ti  tau(   3) = (  0.0000000  0.1189190  0.8215310  )
         4           B   tau(   4) = (  0.5000000  0.1022470  0.5290180  )
         5           B   tau(   5) = (  0.5000000  0.3996890  0.0289100  )
         6           B   tau(   6) = (  0.0000000  0.9003880  0.4698080  )
         7           B   tau(   7) = (  0.0000000  0.6023810  0.9689590  )
         8           Mo  tau(   8) = (  0.5000000  0.6227850  0.6788940  )

     number of k points=    10
                       cart. coord. in units 2pi/alat
        k(    1) = (   0.0000000   0.0000000   0.0000000), wk =   0.0740741
        k(    2) = (   0.0000000   0.0000000   0.1686300), wk =   0.1481481
        k(    3) = (   0.0000000   0.2239441  -0.0014454), wk =   0.1481481
        k(    4) = (   0.0000000   0.2239441   0.1671847), wk =   0.1481481
        k(    5) = (   0.0000000   0.2239441  -0.1700754), wk =   0.1481481
        k(    6) = (   0.3333333   0.0000000   0.0000000), wk =   0.1481481
        k(    7) = (   0.3333333   0.0000000   0.1686300), wk =   0.2962963
        k(    8) = (   0.3333333   0.2239441  -0.0014454), wk =   0.2962963
        k(    9) = (   0.3333333   0.2239441   0.1671847), wk =   0.2962963
        k(   10) = (   0.3333333   0.2239441  -0.1700754), wk =   0.2962963

                       cryst. coord.
        k(    1) = (   0.0000000   0.0000000   0.0000000), wk =   0.0740741
        k(    2) = (   0.0000000   0.0000000   0.3333333), wk =   0.1481481
        k(    3) = (   0.0000000   0.3333333   0.0000000), wk =   0.1481481
        k(    4) = (   0.0000000   0.3333333   0.3333333), wk =   0.1481481
        k(    5) = (   0.0000000   0.3333333  -0.3333333), wk =   0.1481481
        k(    6) = (   0.3333333   0.0000000   0.0000000), wk =   0.1481481
        k(    7) = (   0.3333333   0.0000000   0.3333333), wk =   0.2962963
        k(    8) = (   0.3333333   0.3333333   0.0000000), wk =   0.2962963
        k(    9) = (   0.3333333   0.3333333   0.3333333), wk =   0.2962963
        k(   10) = (   0.3333333   0.3333333  -0.3333333), wk =   0.2962963

     Dense  grid:    35713 G-vectors     FFT dimensions: (  30,  45,  60)

     Smooth grid:    12571 G-vectors     FFT dimensions: (  24,  32,  40)

     Dynamical RAM for                 wfc:       0.38 MB

     Dynamical RAM for     wfc (w. buffer):       2.31 MB

     Dynamical RAM for           str. fact:       0.41 MB

     Dynamical RAM for           local pot:       0.00 MB

     Dynamical RAM for          nlocal pot:       0.63 MB

     Dynamical RAM for                qrad:       3.73 MB

     Dynamical RAM for          rho,v,vnew:       0.87 MB

     Dynamical RAM for               rhoin:       0.29 MB

     Dynamical RAM for            rho*nmix:       2.18 MB

     Dynamical RAM for           G-vectors:       0.53 MB

     Dynamical RAM for          h,s,v(r/c):       0.19 MB

     Dynamical RAM for          <psi|beta>:       0.10 MB

     Dynamical RAM for                 psi:       0.77 MB

     Dynamical RAM for                hpsi:       0.77 MB

     Dynamical RAM for                spsi:       0.77 MB

     Dynamical RAM for      wfcinit/wfcrot:       0.86 MB

     Dynamical RAM for           addusdens:      13.01 MB

     Estimated static dynamical RAM per process >      10.09 MB

     Estimated max dynamical RAM per process >      25.28 MB

     Estimated total dynamical RAM >     193.52 MB

     Check: negative core charge=   -0.000007

     Initial potential from superposition of free atoms

     starting charge      58.9978, renormalised to      62.0000

     negative rho (up, down):  4.840E-03 0.000E+00
     Starting wfcs are   56 randomized atomic wfcs +    8 random wfcs

     total cpu time spent up to now is        1.3 secs

     Self-consistent Calculation

     iteration #  1     ecut=    30.00 Ry     beta= 0.70
     Davidson diagonalization with overlap

---- Real-time Memory Report at c_bands before calling an iterative solver
           181 MiB given to the printing process from OS
             0 MiB allocation reported by mallinfo(arena+hblkhd)
        141684 MiB available memory on the node where the printing process lives
------------------
     ethr =  1.00E-02,  avg # of iterations =  4.6

     negative rho (up, down):  3.782E-03 0.000E+00

     total cpu time spent up to now is        1.8 secs

     total energy              =    -514.42960059 Ry
     estimated scf accuracy    <       9.33149327 Ry

     iteration #  2     ecut=    30.00 Ry     beta= 0.70
     Davidson diagonalization with overlap

---- Real-time Memory Report at c_bands before calling an iterative solver
           202 MiB given to the printing process from OS
             0 MiB allocation reported by mallinfo(arena+hblkhd)
        141603 MiB available memory on the node where the printing process lives
------------------
     ethr =  1.00E-02,  avg # of iterations =  3.1

     negative rho (up, down):  2.734E-03 0.000E+00

     total cpu time spent up to now is        2.2 secs

     total energy              =    -511.20551194 Ry
     estimated scf accuracy    <     108.68341250 Ry

     iteration #  3     ecut=    30.00 Ry     beta= 0.70
     Davidson diagonalization with overlap

---- Real-time Memory Report at c_bands before calling an iterative solver
           206 MiB given to the printing process from OS
             0 MiB allocation reported by mallinfo(arena+hblkhd)
        141590 MiB available memory on the node where the printing process lives
------------------
     ethr =  1.00E-02,  avg # of iterations =  3.4

     negative rho (up, down):  2.480E-03 0.000E+00

     total cpu time spent up to now is        2.7 secs

     total energy              =    -519.36556640 Ry
     estimated scf accuracy    <      19.16842647 Ry

     iteration #  4     ecut=    30.00 Ry     beta= 0.70
     Davidson diagonalization with overlap

---- Real-time Memory Report at c_bands before calling an iterative solver
           207 MiB given to the printing process from OS
             0 MiB allocation reported by mallinfo(arena+hblkhd)
        141586 MiB available memory on the node where the printing process lives
------------------
     ethr =  1.00E-02,  avg # of iterations =  1.7

     negative rho (up, down):  2.758E-03 0.000E+00

     total cpu time spent up to now is        3.0 secs

     total energy              =    -520.86746209 Ry
     estimated scf accuracy    <       2.38218951 Ry

     iteration #  5     ecut=    30.00 Ry     beta= 0.70
     Davidson diagonalization with overlap

---- Real-time Memory Report at c_bands before calling an iterative solver
           207 MiB given to the printing process from OS
             0 MiB allocation reported by mallinfo(arena+hblkhd)
        141587 MiB available memory on the node where the printing process lives
------------------
     ethr =  3.84E-03,  avg # of iterations =  1.0

     negative rho (up, down):  2.947E-03 0.000E+00

     total cpu time spent up to now is        3.3 secs

     total energy              =    -520.91617840 Ry
     estimated scf accuracy    <       0.40151990 Ry

     iteration #  6     ecut=    30.00 Ry     beta= 0.70
     Davidson diagonalization with overlap

---- Real-time Memory Report at c_bands before calling an iterative solver
           207 MiB given to the printing process from OS
             0 MiB allocation reported by mallinfo(arena+hblkhd)
        141591 MiB available memory on the node where the printing process lives
------------------
     ethr =  6.48E-04,  avg # of iterations =  2.2

     negative rho (up, down):  2.728E-03 0.000E+00

     total cpu time spent up to now is        3.8 secs

     total energy              =    -520.90433432 Ry
     estimated scf accuracy    <       0.19282244 Ry

     iteration #  7     ecut=    30.00 Ry     beta= 0.70
     Davidson diagonalization with overlap

---- Real-time Memory Report at c_bands before calling an iterative solver
           207 MiB given to the printing process from OS
             0 MiB allocation reported by mallinfo(arena+hblkhd)
        141590 MiB available memory on the node where the printing process lives
------------------
     ethr =  3.11E-04,  avg # of iterations =  1.7

     negative rho (up, down):  2.941E-03 0.000E+00

     total cpu time spent up to now is        4.1 secs

     total energy              =    -520.90190293 Ry
     estimated scf accuracy    <       0.55352799 Ry

     iteration #  8     ecut=    30.00 Ry     beta= 0.70
     Davidson diagonalization with overlap

---- Real-time Memory Report at c_bands before calling an iterative solver
           207 MiB given to the printing process from OS
             0 MiB allocation reported by mallinfo(arena+hblkhd)
        141592 MiB available memory on the node where the printing process lives
------------------
     ethr =  3.11E-04,  avg # of iterations =  1.1

     negative rho (up, down):  3.012E-03 0.000E+00

     total cpu time spent up to now is        4.4 secs

     total energy              =    -520.90415163 Ry
     estimated scf accuracy    <       0.13180644 Ry

     iteration #  9     ecut=    30.00 Ry     beta= 0.70
     Davidson diagonalization with overlap

---- Real-time Memory Report at c_bands before calling an iterative solver
           207 MiB given to the printing process from OS
             0 MiB allocation reported by mallinfo(arena+hblkhd)
        141590 MiB available memory on the node where the printing process lives
------------------
     ethr =  2.13E-04,  avg # of iterations =  1.2

     negative rho (up, down):  2.988E-03 0.000E+00

     total cpu time spent up to now is        4.7 secs

     total energy              =    -520.90628608 Ry
     estimated scf accuracy    <       0.02727508 Ry

     iteration # 10     ecut=    30.00 Ry     beta= 0.70
     Davidson diagonalization with overlap

---- Real-time Memory Report at c_bands before calling an iterative solver
           207 MiB given to the printing process from OS
             0 MiB allocation reported by mallinfo(arena+hblkhd)
        141590 MiB available memory on the node where the printing process lives
------------------
     ethr =  4.40E-05,  avg # of iterations =  2.3

     negative rho (up, down):  3.032E-03 0.000E+00

     total cpu time spent up to now is        5.0 secs

     total energy              =    -520.90395138 Ry
     estimated scf accuracy    <       0.01327715 Ry

     iteration # 11     ecut=    30.00 Ry     beta= 0.70
     Davidson diagonalization with overlap

---- Real-time Memory Report at c_bands before calling an iterative solver
           207 MiB given to the printing process from OS
             0 MiB allocation reported by mallinfo(arena+hblkhd)
        141590 MiB available memory on the node where the printing process lives
------------------
     ethr =  2.14E-05,  avg # of iterations =  2.8

     negative rho (up, down):  3.016E-03 0.000E+00

     total cpu time spent up to now is        5.3 secs

     total energy              =    -520.90555807 Ry
     estimated scf accuracy    <       0.00188645 Ry

     iteration # 12     ecut=    30.00 Ry     beta= 0.70
     Davidson diagonalization with overlap

---- Real-time Memory Report at c_bands before calling an iterative solver
           207 MiB given to the printing process from OS
             0 MiB allocation reported by mallinfo(arena+hblkhd)
        141592 MiB available memory on the node where the printing process lives
------------------
     ethr =  3.04E-06,  avg # of iterations =  4.0

     negative rho (up, down):  3.014E-03 0.000E+00

     total cpu time spent up to now is        5.6 secs

     total energy              =    -520.90556449 Ry
     estimated scf accuracy    <       0.00053759 Ry

     iteration # 13     ecut=    30.00 Ry     beta= 0.70
     Davidson diagonalization with overlap

---- Real-time Memory Report at c_bands before calling an iterative solver
           207 MiB given to the printing process from OS
             0 MiB allocation reported by mallinfo(arena+hblkhd)
        141591 MiB available memory on the node where the printing process lives
------------------
     ethr =  8.67E-07,  avg # of iterations =  1.1

     negative rho (up, down):  3.014E-03 0.000E+00

     total cpu time spent up to now is        5.9 secs

     total energy              =    -520.90557215 Ry
     estimated scf accuracy    <       0.00010329 Ry

     iteration # 14     ecut=    30.00 Ry     beta= 0.70
     Davidson diagonalization with overlap

---- Real-time Memory Report at c_bands before calling an iterative solver
           207 MiB given to the printing process from OS
             0 MiB allocation reported by mallinfo(arena+hblkhd)
        141593 MiB available memory on the node where the printing process lives
------------------
     ethr =  1.67E-07,  avg # of iterations =  1.0

     negative rho (up, down):  3.012E-03 0.000E+00

     total cpu time spent up to now is        6.2 secs

     total energy              =    -520.90558507 Ry
     estimated scf accuracy    <       0.00001493 Ry

     iteration # 15     ecut=    30.00 Ry     beta= 0.70
     Davidson diagonalization with overlap

---- Real-time Memory Report at c_bands before calling an iterative solver
           207 MiB given to the printing process from OS
             0 MiB allocation reported by mallinfo(arena+hblkhd)
        141591 MiB available memory on the node where the printing process lives
------------------
     ethr =  2.41E-08,  avg # of iterations =  1.0

     negative rho (up, down):  3.012E-03 0.000E+00

     total cpu time spent up to now is        6.5 secs

     total energy              =    -520.90558541 Ry
     estimated scf accuracy    <       0.00000289 Ry

     iteration # 16     ecut=    30.00 Ry     beta= 0.70
     Davidson diagonalization with overlap

---- Real-time Memory Report at c_bands before calling an iterative solver
           207 MiB given to the printing process from OS
             0 MiB allocation reported by mallinfo(arena+hblkhd)
        141590 MiB available memory on the node where the printing process lives
------------------
     ethr =  4.65E-09,  avg # of iterations =  1.0

     negative rho (up, down):  3.012E-03 0.000E+00

     total cpu time spent up to now is        6.8 secs

     End of self-consistent calculation

          k = 0.0000 0.0000 0.0000 (  1557 PWs)   bands (ev):

   -45.1386 -41.0376 -40.8846 -40.8751 -19.4500 -19.2183 -19.0314 -17.5593
   -17.4188 -17.2501 -17.1980 -17.1444 -17.1179 -17.0580 -16.9904 -16.9317
     4.0432   5.8442   9.6366   9.8177  11.0799  11.9025  12.2483  12.3388
    12.9323  13.6127  13.9869  14.4671  15.2132  15.4402  15.8828  16.1920
    16.3488  16.5190  16.6740  16.9447  17.1381  17.4714  18.1905  18.8459
    19.0750  19.1365  19.9077  20.5045  21.0300  21.3908  21.6958  22.6689
    23.0256  24.4060  24.6249  24.8639  25.0774  27.1269  27.3297  27.8932
    28.3436  28.6726  29.5826  29.5918  30.4908  31.0468  33.1416  33.7513

     occupation numbers 
     1.0000   1.0000   1.0000   1.0000   1.0000   1.0000   1.0000   1.0000
     1.0000   1.0000   1.0000   1.0000   1.0000   1.0000   1.0000   1.0000
     1.0000   1.0000   1.0000   1.0000   1.0000   1.0000   1.0000   1.0000
     1.0000   1.0000   1.0000   1.0000   1.0000   1.0000   1.0000   0.0000
     0.0000   0.0000   0.0000   0.0000   0.0000   0.0000   0.0000   0.0000
     0.0000   0.0000   0.0000   0.0000   0.0000   0.0000   0.0000   0.0000
     0.0000   0.0000   0.0000   0.0000   0.0000   0.0000   0.0000   0.0000
     0.0000   0.0000   0.0000   0.0000   0.0000   0.0000   0.0000   0.0000

          k = 0.0000 0.0000 0.1686 (  1564 PWs)   bands (ev):

   -45.1387 -41.0372 -40.8886 -40.8718 -19.4493 -19.2178 -19.0314 -17.5691
   -17.3973 -17.2291 -17.1979 -17.1694 -17.1192 -17.0671 -16.9914 -16.9310
     4.4157   5.2993   9.6352   9.9024  10.9315  11.7610  12.5328  12.8743
    13.2925  13.4514  13.6708  14.2011  15.2088  15.3048  15.5170  15.8562
    16.6146  16.8187  16.9175  17.1871  17.2557  17.4542  18.4336  18.4905
    18.9471  19.6287  19.7225  20.4232  20.7470  20.8933  21.8807  22.1393
    23.8447  24.6486  25.0023  25.2308  25.2352  25.9648  26.3818  26.7447
    28.7444  29.8094  29.9340  30.3292  30.5370  31.4764  31.8003  33.9956

     occupation numbers 
     1.0000   1.0000   1.0000   1.0000   1.0000   1.0000   1.0000   1.0000
     1.0000   1.0000   1.0000   1.0000   1.0000   1.0000   1.0000   1.0000
     1.0000   1.0000   1.0000   1.0000   1.0000   1.0000   1.0000   1.0000
     1.0000   1.0000   1.0000   1.0000   1.0000   1.0000   1.0000   0.0000
     0.0000   0.0000   0.0000   0.0000   0.0000   0.0000   0.0000   0.0000
     0.0000   0.0000   0.0000   0.0000   0.0000   0.0000   0.0000   0.0000
     0.0000   0.0000   0.0000   0.0000   0.0000   0.0000   0.0000   0.0000
     0.0000   0.0000   0.0000   0.0000   0.0000   0.0000   0.0000   0.0000

          k = 0.0000 0.2239-0.0014 (  1558 PWs)   bands (ev):

   -45.1382 -41.0273 -40.8916 -40.8794 -19.4465 -19.2098 -19.0280 -17.5383
   -17.3799 -17.2551 -17.1805 -17.1711 -17.1306 -17.0986 -16.9940 -16.9507
     4.6160   5.5625   9.7858   9.8393  10.6619  11.5157  12.3141  12.9486
    13.1430  13.1632  13.6034  14.1632  14.6998  15.5649  15.8554  16.4694
    16.6995  16.9495  17.0543  17.3898  17.4338  17.5943  18.1719  18.3465
    18.5933  19.2260  19.3353  19.7815  20.7220  21.2798  21.7782  22.6597
    22.8935  23.2007  24.8291  25.2012  25.5154  26.1833  27.6479  27.8894
    29.0233  29.9201  30.2582  31.1185  32.0467  32.5734  32.8489  33.1342

     occupation numbers 
     1.0000   1.0000   1.0000   1.0000   1.0000   1.0000   1.0000   1.0000
     1.0000   1.0000   1.0000   1.0000   1.0000   1.0000   1.0000   1.0000
     1.0000   1.0000   1.0000   1.0000   1.0000   1.0000   1.0000   1.0000
     1.0000   1.0000   1.0000   1.0000   1.0000   1.0000   1.0000   0.0000
     0.0000   0.0000   0.0000   0.0000   0.0000   0.0000   0.0000   0.0000
     0.0000   0.0000   0.0000   0.0000   0.0000   0.0000   0.0000   0.0000
     0.0000   0.0000   0.0000   0.0000   0.0000   0.0000   0.0000   0.0000
     0.0000   0.0000   0.0000   0.0000   0.0000   0.0000   0.0000   0.0000

          k = 0.0000 0.2239 0.1672 (  1570 PWs)   bands (ev):

   -45.1383 -41.0274 -40.8873 -40.8840 -19.4451 -19.2092 -19.0280 -17.5232
   -17.3882 -17.2779 -17.1806 -17.1720 -17.1333 -17.0823 -16.9923 -16.9525
     4.8363   5.4213   9.1219   9.4677  11.4114  12.1570  12.4461  12.6581
    13.1006  13.2671  13.7449  13.8757  14.9881  15.4906  15.7009  16.0982
    16.6912  16.7561  16.9737  17.3341  17.4291  17.5233  18.5198  18.5402
    18.8235  18.9506  19.3885  19.9616  20.9502  21.0543  21.9317  22.4578
    23.1831  23.5952  24.8698  24.9258  25.4515  25.5191  26.4298  27.0015
    29.8738  30.5330  31.0574  31.0842  31.9908  32.8124  32.9138  33.4161

     occupation numbers 
     1.0000   1.0000   1.0000   1.0000   1.0000   1.0000   1.0000   1.0000
     1.0000   1.0000   1.0000   1.0000   1.0000   1.0000   1.0000   1.0000
     1.0000   1.0000   1.0000   1.0000   1.0000   1.0000   1.0000   1.0000
     1.0000   1.0000   1.0000   1.0000   1.0000   1.0000   1.0000   0.0000
     0.0000   0.0000   0.0000   0.0000   0.0000   0.0000   0.0000   0.0000
     0.0000   0.0000   0.0000   0.0000   0.0000   0.0000   0.0000   0.0000
     0.0000   0.0000   0.0000   0.0000   0.0000   0.0000   0.0000   0.0000
     0.0000   0.0000   0.0000   0.0000   0.0000   0.0000   0.0000   0.0000

          k = 0.0000 0.2239-0.1701 (  1577 PWs)   bands (ev):

   -45.1384 -41.0272 -40.8928 -40.8789 -19.4454 -19.2086 -19.0280 -17.5350
   -17.3903 -17.2365 -17.1875 -17.1801 -17.1460 -17.0820 -16.9949 -16.9504
     4.9143   5.3163   9.1765   9.4646  11.3594  12.2824  12.5435  12.8345
    12.9587  13.0417  13.5648  13.9367  15.0395  15.5425  15.6088  16.3786
    16.5770  16.7071  17.0678  17.2946  17.3787  17.5007  18.5240  18.5667
    18.8087  18.9556  19.3648  19.9053  20.9241  21.0774  21.9166  22.3279
    23.4095  23.5215  24.8993  24.9306  25.4948  25.5812  26.4474  27.0226
    30.0057  30.6694  30.9488  31.3609  31.7129  32.6170  32.7885  33.4202

     occupation numbers 
     1.0000   1.0000   1.0000   1.0000   1.0000   1.0000   1.0000   1.0000
     1.0000   1.0000   1.0000   1.0000   1.0000   1.0000   1.0000   1.0000
     1.0000   1.0000   1.0000   1.0000   1.0000   1.0000   1.0000   1.0000
     1.0000   1.0000   1.0000   1.0000   1.0000   1.0000   1.0000   0.0000
     0.0000   0.0000   0.0000   0.0000   0.0000   0.0000   0.0000   0.0000
     0.0000   0.0000   0.0000   0.0000   0.0000   0.0000   0.0000   0.0000
     0.0000   0.0000   0.0000   0.0000   0.0000   0.0000   0.0000   0.0000
     0.0000   0.0000   0.0000   0.0000   0.0000   0.0000   0.0000   0.0000

          k = 0.3333 0.0000 0.0000 (  1588 PWs)   bands (ev):

   -45.1158 -41.0063 -40.8737 -40.8663 -19.4070 -19.3032 -19.1707 -17.4621
   -17.4271 -17.3285 -17.2096 -17.1715 -17.1679 -17.1545 -17.1229 -17.0775
     5.5337   6.6583   9.0369   9.2387  11.2489  11.4139  11.9346  12.4931
    12.8047  13.0840  13.4957  13.6060  14.0203  14.2145  14.6963  14.8081
    17.4608  17.6006  18.0300  18.1392  18.3970  18.4208  18.5314  18.6163
    19.9162  20.2367  20.3516  20.6927  21.0624  21.5807  22.4067  22.4938
    23.5588  23.7315  24.8095  25.1373  26.1987  26.5296  26.6319  27.1794
    28.7666  28.8249  29.1567  29.6836  30.1238  30.3223  31.7379  32.4219

     occupation numbers 
     1.0000   1.0000   1.0000   1.0000   1.0000   1.0000   1.0000   1.0000
     1.0000   1.0000   1.0000   1.0000   1.0000   1.0000   1.0000   1.0000
     1.0000   1.0000   1.0000   1.0000   1.0000   1.0000   1.0000   1.0000
     1.0000   1.0000   1.0000   1.0000   1.0000   1.0000   1.0000   0.0000
     0.0000   0.0000   0.0000   0.0000   0.0000   0.0000   0.0000   0.0000
     0.0000   0.0000   0.0000   0.0000   0.0000   0.0000   0.0000   0.0000
     0.0000   0.0000   0.0000   0.0000   0.0000   0.0000   0.0000   0.0000
     0.0000   0.0000   0.0000   0.0000   0.0000   0.0000   0.0000   0.0000

          k = 0.3333 0.0000 0.1686 (  1593 PWs)   bands (ev):

   -45.1158 -41.0062 -40.8733 -40.8669 -19.4059 -19.3031 -19.1703 -17.4683
   -17.4151 -17.3296 -17.2199 -17.1815 -17.1634 -17.1440 -17.1229 -17.0790
     5.7866   6.3438   9.0901   9.2759  11.1276  11.3967  11.9630  12.3771
    12.9202  13.1619  13.5097  13.6493  13.9035  14.1861  14.6386  14.7377
    17.6094  17.7291  18.0943  18.3365  18.3913  18.4198  18.5754  18.6781
    19.5141  19.9274  20.6647  20.7967  21.4197  21.6574  22.1405  22.6102
    23.2947  23.6802  25.0772  25.4229  25.8650  26.5610  26.7049  27.1157
    27.6584  27.9473  29.2015  29.8041  30.5414  31.5486  31.8340  32.4877

     occupation numbers 
     1.0000   1.0000   1.0000   1.0000   1.0000   1.0000   1.0000   1.0000
     1.0000   1.0000   1.0000   1.0000   1.0000   1.0000   1.0000   1.0000
     1.0000   1.0000   1.0000   1.0000   1.0000   1.0000   1.0000   1.0000
     1.0000   1.0000   1.0000   1.0000   1.0000   1.0000   1.0000   0.0000
     0.0000   0.0000   0.0000   0.0000   0.0000   0.0000   0.0000   0.0000
     0.0000   0.0000   0.0000   0.0000   0.0000   0.0000   0.0000   0.0000
     0.0000   0.0000   0.0000   0.0000   0.0000   0.0000   0.0000   0.0000
     0.0000   0.0000   0.0000   0.0000   0.0000   0.0000   0.0000   0.0000

          k = 0.3333 0.2239-0.0014 (  1580 PWs)   bands (ev):

   -45.1156 -41.0032 -40.8771 -40.8658 -19.4106 -19.3140 -19.1770 -17.4885
   -17.4585 -17.3390 -17.2369 -17.1871 -17.1375 -17.1144 -17.0982 -17.0398
     5.9143   6.5197   9.2858   9.3969  10.8033  11.1907  11.4036  12.4109
    12.9388  13.4886  13.6219  13.8921  14.3593  14.4644  14.8950  15.4130
    16.0222  16.8276  17.5402  17.8241  18.0916  18.2985  18.5066  18.6099
    19.4285  19.4835  20.1582  20.4004  21.4166  21.8798  22.7684  23.3834
    23.6363  23.9393  25.3384  26.1119  26.3619  27.1292  27.6832  27.9066
    28.2346  28.5503  29.7834  30.1056  30.2554  30.8200  32.0167  32.2626

     occupation numbers 
     1.0000   1.0000   1.0000   1.0000   1.0000   1.0000   1.0000   1.0000
     1.0000   1.0000   1.0000   1.0000   1.0000   1.0000   1.0000   1.0000
     1.0000   1.0000   1.0000   1.0000   1.0000   1.0000   1.0000   1.0000
     1.0000   1.0000   1.0000   1.0000   1.0000   1.0000   1.0000   0.0000
     0.0000   0.0000   0.0000   0.0000   0.0000   0.0000   0.0000   0.0000
     0.0000   0.0000   0.0000   0.0000   0.0000   0.0000   0.0000   0.0000
     0.0000   0.0000   0.0000   0.0000   0.0000   0.0000   0.0000   0.0000
     0.0000   0.0000   0.0000   0.0000   0.0000   0.0000   0.0000   0.0000

          k = 0.3333 0.2239 0.1672 (  1582 PWs)   bands (ev):

   -45.1156 -41.0032 -40.8736 -40.8694 -19.4099 -19.3140 -19.1764 -17.4963
   -17.4546 -17.3403 -17.2007 -17.1855 -17.1620 -17.1180 -17.1018 -17.0426
     6.0677   6.4179   9.2036   9.2853  10.7651  10.9785  12.1505  12.6017
    12.7322  13.2488  13.6037  13.8734  14.0603  14.4411  14.5916  15.0834
    16.5485  17.2553  17.7378  17.9480  18.1062  18.3063  18.5266  18.5722
    19.4578  19.5446  20.1163  20.7341  21.2934  21.5662  22.5544  23.1516
    23.6404  24.0561  25.5123  26.1119  26.2871  26.6805  27.3346  27.6882
    28.6706  28.9952  29.3496  29.9497  30.2628  31.1443  31.9702  32.2272

     occupation numbers 
     1.0000   1.0000   1.0000   1.0000   1.0000   1.0000   1.0000   1.0000
     1.0000   1.0000   1.0000   1.0000   1.0000   1.0000   1.0000   1.0000
     1.0000   1.0000   1.0000   1.0000   1.0000   1.0000   1.0000   1.0000
     1.0000   1.0000   1.0000   1.0000   1.0000   1.0000   1.0000   0.0000
     0.0000   0.0000   0.0000   0.0000   0.0000   0.0000   0.0000   0.0000
     0.0000   0.0000   0.0000   0.0000   0.0000   0.0000   0.0000   0.0000
     0.0000   0.0000   0.0000   0.0000   0.0000   0.0000   0.0000   0.0000
     0.0000   0.0000   0.0000   0.0000   0.0000   0.0000   0.0000   0.0000

          k = 0.3333 0.2239-0.1701 (  1583 PWs)   bands (ev):

   -45.1156 -41.0031 -40.8756 -40.8675 -19.4098 -19.3141 -19.1765 -17.4978
   -17.4491 -17.3348 -17.2325 -17.1817 -17.1490 -17.1134 -17.0982 -17.0452
     6.1038   6.3751   9.1894   9.3346  10.7015  10.9910  11.9957  12.6372
    12.9579  13.2905  13.6360  13.7865  14.0797  14.3128  14.6761  15.0434
    16.5328  17.2373  17.7289  18.0324  18.1526  18.3180  18.4197  18.5775
    19.4688  19.5551  20.1194  20.6510  21.1335  21.6413  22.7736  23.0600
    23.6546  24.0137  25.4293  26.1142  26.5090  26.7889  27.3706  27.5458
    28.5573  29.1776  29.3036  29.8944  30.2826  30.9699  31.9733  32.3342

     occupation numbers 
     1.0000   1.0000   1.0000   1.0000   1.0000   1.0000   1.0000   1.0000
     1.0000   1.0000   1.0000   1.0000   1.0000   1.0000   1.0000   1.0000
     1.0000   1.0000   1.0000   1.0000   1.0000   1.0000   1.0000   1.0000
     1.0000   1.0000   1.0000   1.0000   1.0000   1.0000   1.0000   0.0000
     0.0000   0.0000   0.0000   0.0000   0.0000   0.0000   0.0000   0.0000
     0.0000   0.0000   0.0000   0.0000   0.0000   0.0000   0.0000   0.0000
     0.0000   0.0000   0.0000   0.0000   0.0000   0.0000   0.0000   0.0000
     0.0000   0.0000   0.0000   0.0000   0.0000   0.0000   0.0000   0.0000

     highest occupied, lowest unoccupied level (ev):    15.8828   14.7377

!    total energy              =    -520.90558540 Ry
     estimated scf accuracy    <       0.00000020 Ry

     The total energy is the sum of the following terms:
     one-electron contribution =    -124.21377822 Ry
     hartree contribution      =      92.62504252 Ry
     xc contribution           =     -82.01763621 Ry
     ewald contribution        =    -407.29921348 Ry

     convergence has been achieved in  16 iterations

     Writing all to output data dir calculations_bands_val/myprefix.save/
 
     init_run     :      3.48s CPU      1.13s WALL (       1 calls)
     electrons    :     20.90s CPU      5.55s WALL (       1 calls)

     Called by init_run:
     wfcinit      :      0.39s CPU      0.11s WALL (       1 calls)
     wfcinit:atom :      0.00s CPU      0.00s WALL (       5 calls)
     wfcinit:wfcr :      0.38s CPU      0.11s WALL (       5 calls)
     potinit      :      1.14s CPU      0.30s WALL (       1 calls)
     hinit0       :      1.83s CPU      0.64s WALL (       1 calls)

     Called by electrons:
     c_bands      :     16.15s CPU      4.22s WALL (      16 calls)
     sum_band     :      3.21s CPU      0.89s WALL (      16 calls)
     v_of_rho     :      0.40s CPU      0.11s WALL (      17 calls)
     v_h          :      0.03s CPU      0.01s WALL (      17 calls)
     v_xc         :      0.37s CPU      0.10s WALL (      17 calls)
     newd         :      0.69s CPU      0.19s WALL (      17 calls)
     mix_rho      :      0.12s CPU      0.03s WALL (      16 calls)

     Called by c_bands:
     init_us_2    :      0.12s CPU      0.03s WALL (     165 calls)
     init_us_2:cp :      0.11s CPU      0.03s WALL (     165 calls)
     cegterg      :     14.12s CPU      3.68s WALL (      80 calls)

     Called by sum_band:
     sum_band:wei :      0.01s CPU      0.00s WALL (      16 calls)
     sum_band:loo :      2.24s CPU      0.59s WALL (      16 calls)
     sum_band:buf :      0.03s CPU      0.01s WALL (      80 calls)
     sum_band:ini :      0.06s CPU      0.01s WALL (      80 calls)
     sum_band:cal :      0.12s CPU      0.03s WALL (      80 calls)
     sum_band:bec :      0.03s CPU      0.01s WALL (      80 calls)
     addusdens    :      0.68s CPU      0.23s WALL (      16 calls)
     addusd:skk   :      0.00s CPU      0.00s WALL (      32 calls)
     addusd:dgemm :      0.12s CPU      0.08s WALL (      32 calls)
     addusd:qvan2 :      0.46s CPU      0.12s WALL (      32 calls)

     Called by *egterg:
     cdiaghg      :      3.95s CPU      1.03s WALL (     250 calls)
     cegterg:over :      0.53s CPU      0.14s WALL (     170 calls)
     cegterg:upda :      0.23s CPU      0.06s WALL (     170 calls)
     cegterg:last :      0.32s CPU      0.08s WALL (     122 calls)
     cdiaghg:chol :      0.28s CPU      0.07s WALL (     250 calls)
     cdiaghg:inve :      0.05s CPU      0.01s WALL (     250 calls)
     cdiaghg:para :      0.64s CPU      0.17s WALL (     500 calls)
     h_psi        :      8.97s CPU      2.35s WALL (     255 calls)
     s_psi        :      0.16s CPU      0.04s WALL (     255 calls)
     g_psi        :      0.02s CPU      0.00s WALL (     170 calls)

     Called by h_psi:
     h_psi:calbec :      0.34s CPU      0.09s WALL (     255 calls)
     vloc_psi     :      8.37s CPU      2.19s WALL (     255 calls)
     add_vuspsi   :      0.21s CPU      0.06s WALL (     255 calls)

     General routines
     calbec       :      0.46s CPU      0.12s WALL (     335 calls)
     fft          :      1.19s CPU      0.31s WALL (     219 calls)
     ffts         :      0.81s CPU      0.21s WALL (      33 calls)
     fftw         :      8.24s CPU      2.16s WALL (   28090 calls)
     interpolate  :      0.82s CPU      0.22s WALL (      17 calls)
 
     Parallel routines
 
     PWSCF        :     25.83s CPU      7.33s WALL

 
   This run was terminated on:  12:28: 2   4Jun2023            

=------------------------------------------------------------------------------=
   JOB DONE.
=------------------------------------------------------------------------------=
