
     Program PWSCF v.7.0 starts on  4Jun2023 at 14:48:46 

     This program is part of the open-source Quantum ESPRESSO suite
     for quantum simulation of materials; please cite
         "P. Giannozzi et al., J. Phys.:Condens. Matter 21 395502 (2009);
         "P. Giannozzi et al., J. Phys.:Condens. Matter 29 465901 (2017);
         "P. Giannozzi et al., J. Chem. Phys. 152 154105 (2020);
          URL http://www.quantum-espresso.org", 
     in publications or presentations arising from this work. More details at
     http://www.quantum-espresso.org/quote

     Parallel version (MPI & OpenMP), running on      32 processor cores
     Number of MPI processes:                 8
     Threads/MPI process:                     4

     MPI processes distributed on     1 nodes
     K-points division:     npool     =       2
     R & G space division:  proc/nbgrp/npool/nimage =       4
     143218 MiB available memory on the printing compute node when the environment starts
 
     Reading input from espresso_802.pwi
Warning: card &CELL ignored
Warning: card / ignored

     Current dimensions of program PWSCF are:
     Max number of different atomic species (ntypx) = 10
     Max number of k-points (npk) =  40000
     Max angular momentum in pseudopotentials (lmaxx) =  4
     file Pb.pbe-dn-kjpaw_psl.0.2.2.UPF: wavefunction(s)  6S renormalized
     Message from routine setup:
     using ibrav=0 with symmetry is DISCOURAGED, use correct ibrav instead

     Subspace diagonalization in iterative solution of the eigenvalue problem:
     one sub-group per band group will be used
     scalapack distributed-memory algorithm (size of sub-group:  2*  2 procs)

 
     Parallelization info
     --------------------
     sticks:   dense  smooth     PW     G-vecs:    dense   smooth      PW
     Min         221     109     34                 6421     2269     372
     Max         222     110     35                 6423     2274     373
     Sum         885     437    137                25687     9083    1489
 
     Using Slab Decomposition
 


     bravais-lattice index     =            0
     lattice parameter (alat)  =       6.8260  a.u.
     unit-cell volume          =     408.4304 (a.u.)^3
     number of atoms/cell      =            2
     number of atomic types    =            2
     number of electrons       =        24.00
     number of Kohn-Sham states=           64
     kinetic-energy cutoff     =      30.0000  Ry
     charge density cutoff     =     240.0000  Ry
     scf convergence threshold =      1.0E-06
     mixing beta               =       0.7000
     number of iterations used =            8  plain     mixing
     Exchange-correlation= SLA  PW   PBX  PBC
                           (   1   4   3   4   0   0   0)

     celldm(1)=   6.825991  celldm(2)=   0.000000  celldm(3)=   0.000000
     celldm(4)=   0.000000  celldm(5)=   0.000000  celldm(6)=   0.000000

     crystal axes: (cart. coord. in units of alat)
               a(1) = (   1.000000   0.000000   0.000000 )  
               a(2) = (   0.000000   1.000000   0.000000 )  
               a(3) = (   0.000000   0.000000   1.284165 )  

     reciprocal axes: (cart. coord. in units 2 pi/alat)
               b(1) = (  1.000000  0.000000  0.000000 )  
               b(2) = (  0.000000  1.000000  0.000000 )  
               b(3) = (  0.000000  0.000000  0.778716 )  


     PseudoPot. # 1 for Ca read from file:
     /home/pragov/projects/rrg-bengioy-ad/pragov/crystal_structure_design/SSSP/Ca_pbe_v1.uspp.F.UPF
     MD5 check sum: 403a4c14b9e4d4dfdc3024c9a3812218
     Pseudo is Ultrasoft + core correction, Zval = 10.0
     Generated by new atomic code, or converted to UPF format
     Using radial grid of  845 points,  6 beta functions with: 
                l(1) =   0
                l(2) =   0
                l(3) =   1
                l(4) =   1
                l(5) =   2
                l(6) =   2
     Q(r) pseudized with  8 coefficients,  rinner =    1.500   1.500   1.500
                                                       1.500   1.500

     PseudoPot. # 2 for Pb read from file:
     /home/pragov/projects/rrg-bengioy-ad/pragov/crystal_structure_design/SSSP/Pb.pbe-dn-kjpaw_psl.0.2.2.UPF
     MD5 check sum: 9d431e6316058b74ade52399a6cf67da
     Pseudo is Projector augmented-wave + core cor, Zval = 14.0
     Generated using "atomic" code by A. Dal Corso  v.5.0.99 svn rev. 10869
     Shape of augmentation charge: PSQ
     Using radial grid of 1281 points,  6 beta functions with: 
                l(1) =   0
                l(2) =   0
                l(3) =   1
                l(4) =   1
                l(5) =   2
                l(6) =   2
     Q(r) pseudized with 0 coefficients 


     atomic species   valence    mass     pseudopotential
        Ca            10.00    40.07800     Ca( 1.00)
        Pb            14.00   207.20000     Pb( 1.00)

     16 Sym. Ops., with inversion, found


                                    s                        frac. trans.

      isym =  1     identity                                     

 cryst.   s( 1) = (     1          0          0      )
                  (     0          1          0      )
                  (     0          0          1      )

 cart.    s( 1) = (  1.0000000  0.0000000  0.0000000 )
                  (  0.0000000  1.0000000  0.0000000 )
                  (  0.0000000  0.0000000  1.0000000 )


      isym =  2     180 deg rotation - cart. axis [0,0,1]        

 cryst.   s( 2) = (    -1          0          0      )
                  (     0         -1          0      )
                  (     0          0          1      )

 cart.    s( 2) = ( -1.0000000  0.0000000  0.0000000 )
                  (  0.0000000 -1.0000000  0.0000000 )
                  (  0.0000000  0.0000000  1.0000000 )


      isym =  3     180 deg rotation - cart. axis [0,1,0]        

 cryst.   s( 3) = (    -1          0          0      )
                  (     0          1          0      )
                  (     0          0         -1      )

 cart.    s( 3) = ( -1.0000000  0.0000000  0.0000000 )
                  (  0.0000000  1.0000000  0.0000000 )
                  (  0.0000000  0.0000000 -1.0000000 )


      isym =  4     180 deg rotation - cart. axis [1,0,0]        

 cryst.   s( 4) = (     1          0          0      )
                  (     0         -1          0      )
                  (     0          0         -1      )

 cart.    s( 4) = (  1.0000000  0.0000000  0.0000000 )
                  (  0.0000000 -1.0000000  0.0000000 )
                  (  0.0000000  0.0000000 -1.0000000 )


      isym =  5     180 deg rotation - cart. axis [1,1,0]        

 cryst.   s( 5) = (     0          1          0      )
                  (     1          0          0      )
                  (     0          0         -1      )

 cart.    s( 5) = (  0.0000000  1.0000000  0.0000000 )
                  (  1.0000000  0.0000000  0.0000000 )
                  (  0.0000000  0.0000000 -1.0000000 )


      isym =  6     180 deg rotation - cart. axis [1,-1,0]       

 cryst.   s( 6) = (     0         -1          0      )
                  (    -1          0          0      )
                  (     0          0         -1      )

 cart.    s( 6) = (  0.0000000 -1.0000000  0.0000000 )
                  ( -1.0000000  0.0000000  0.0000000 )
                  (  0.0000000  0.0000000 -1.0000000 )


      isym =  7      90 deg rotation - cart. axis [0,0,-1]       

 cryst.   s( 7) = (     0         -1          0      )
                  (     1          0          0      )
                  (     0          0          1      )

 cart.    s( 7) = (  0.0000000  1.0000000  0.0000000 )
                  ( -1.0000000  0.0000000  0.0000000 )
                  (  0.0000000  0.0000000  1.0000000 )


      isym =  8      90 deg rotation - cart. axis [0,0,1]        

 cryst.   s( 8) = (     0          1          0      )
                  (    -1          0          0      )
                  (     0          0          1      )

 cart.    s( 8) = (  0.0000000 -1.0000000  0.0000000 )
                  (  1.0000000  0.0000000  0.0000000 )
                  (  0.0000000  0.0000000  1.0000000 )


      isym =  9     inversion                                    

 cryst.   s( 9) = (    -1          0          0      )
                  (     0         -1          0      )
                  (     0          0         -1      )

 cart.    s( 9) = ( -1.0000000  0.0000000  0.0000000 )
                  (  0.0000000 -1.0000000  0.0000000 )
                  (  0.0000000  0.0000000 -1.0000000 )


      isym = 10     inv. 180 deg rotation - cart. axis [0,0,1]   

 cryst.   s(10) = (     1          0          0      )
                  (     0          1          0      )
                  (     0          0         -1      )

 cart.    s(10) = (  1.0000000  0.0000000  0.0000000 )
                  (  0.0000000  1.0000000  0.0000000 )
                  (  0.0000000  0.0000000 -1.0000000 )


      isym = 11     inv. 180 deg rotation - cart. axis [0,1,0]   

 cryst.   s(11) = (     1          0          0      )
                  (     0         -1          0      )
                  (     0          0          1      )

 cart.    s(11) = (  1.0000000  0.0000000  0.0000000 )
                  (  0.0000000 -1.0000000  0.0000000 )
                  (  0.0000000  0.0000000  1.0000000 )


      isym = 12     inv. 180 deg rotation - cart. axis [1,0,0]   

 cryst.   s(12) = (    -1          0          0      )
                  (     0          1          0      )
                  (     0          0          1      )

 cart.    s(12) = ( -1.0000000  0.0000000  0.0000000 )
                  (  0.0000000  1.0000000  0.0000000 )
                  (  0.0000000  0.0000000  1.0000000 )


      isym = 13     inv. 180 deg rotation - cart. axis [1,1,0]   

 cryst.   s(13) = (     0         -1          0      )
                  (    -1          0          0      )
                  (     0          0          1      )

 cart.    s(13) = (  0.0000000 -1.0000000  0.0000000 )
                  ( -1.0000000  0.0000000  0.0000000 )
                  (  0.0000000  0.0000000  1.0000000 )


      isym = 14     inv. 180 deg rotation - cart. axis [1,-1,0]  

 cryst.   s(14) = (     0          1          0      )
                  (     1          0          0      )
                  (     0          0          1      )

 cart.    s(14) = (  0.0000000  1.0000000  0.0000000 )
                  (  1.0000000  0.0000000  0.0000000 )
                  (  0.0000000  0.0000000  1.0000000 )


      isym = 15     inv.  90 deg rotation - cart. axis [0,0,-1]  

 cryst.   s(15) = (     0          1          0      )
                  (    -1          0          0      )
                  (     0          0         -1      )

 cart.    s(15) = (  0.0000000 -1.0000000  0.0000000 )
                  (  1.0000000  0.0000000  0.0000000 )
                  (  0.0000000  0.0000000 -1.0000000 )


      isym = 16     inv.  90 deg rotation - cart. axis [0,0,1]   

 cryst.   s(16) = (     0         -1          0      )
                  (     1          0          0      )
                  (     0          0         -1      )

 cart.    s(16) = (  0.0000000  1.0000000  0.0000000 )
                  ( -1.0000000  0.0000000  0.0000000 )
                  (  0.0000000  0.0000000 -1.0000000 )


   Cartesian axes

     site n.     atom                  positions (alat units)
         1           Ca  tau(   1) = (   0.0000000   0.0000000   0.0000000  )
         2           Pb  tau(   2) = (   0.5000000   0.5000000   0.6420826  )

   Crystallographic axes

     site n.     atom                  positions (cryst. coord.)
         1           Ca  tau(   1) = (  0.0000000  0.0000000  0.0000000  )
         2           Pb  tau(   2) = (  0.5000000  0.5000000  0.5000000  )

     number of k points=     6
                       cart. coord. in units 2pi/alat
        k(    1) = (   0.0000000   0.0000000   0.0000000), wk =   0.0740741
        k(    2) = (   0.0000000   0.0000000   0.2595720), wk =   0.1481481
        k(    3) = (   0.0000000   0.3333333   0.0000000), wk =   0.2962963
        k(    4) = (   0.0000000   0.3333333   0.2595720), wk =   0.5925926
        k(    5) = (   0.3333333   0.3333333   0.0000000), wk =   0.2962963
        k(    6) = (   0.3333333   0.3333333   0.2595720), wk =   0.5925926

                       cryst. coord.
        k(    1) = (   0.0000000   0.0000000   0.0000000), wk =   0.0740741
        k(    2) = (   0.0000000   0.0000000   0.3333333), wk =   0.1481481
        k(    3) = (   0.0000000   0.3333333   0.0000000), wk =   0.2962963
        k(    4) = (   0.0000000   0.3333333   0.3333333), wk =   0.5925926
        k(    5) = (   0.3333333   0.3333333   0.0000000), wk =   0.2962963
        k(    6) = (   0.3333333   0.3333333   0.3333333), wk =   0.5925926

     Dense  grid:    25687 G-vectors     FFT dimensions: (  36,  36,  45)

     Smooth grid:     9083 G-vectors     FFT dimensions: (  24,  24,  32)

     Dynamical RAM for                 wfc:       0.28 MB

     Dynamical RAM for     wfc (w. buffer):       1.11 MB

     Dynamical RAM for           str. fact:       0.20 MB

     Dynamical RAM for           local pot:       0.00 MB

     Dynamical RAM for          nlocal pot:       0.16 MB

     Dynamical RAM for                qrad:       2.49 MB

     Dynamical RAM for          rho,v,vnew:       0.65 MB

     Dynamical RAM for               rhoin:       0.22 MB

     Dynamical RAM for            rho*nmix:       1.57 MB

     Dynamical RAM for           G-vectors:       0.38 MB

     Dynamical RAM for          h,s,v(r/c):       0.19 MB

     Dynamical RAM for          <psi|beta>:       0.04 MB

     Dynamical RAM for                 psi:       0.55 MB

     Dynamical RAM for                hpsi:       0.55 MB

     Dynamical RAM for                spsi:       0.55 MB

     Dynamical RAM for      wfcinit/wfcrot:       0.65 MB

     Dynamical RAM for           addusdens:       9.21 MB

     Estimated static dynamical RAM per process >       6.08 MB

     Estimated max dynamical RAM per process >      16.86 MB

     Estimated total dynamical RAM >     128.61 MB

     Check: negative core charge=   -0.000001

     Initial potential from superposition of free atoms

     starting charge      23.9922, renormalised to      24.0000
     Starting wfcs are   19 randomized atomic wfcs +   45 random wfcs
     Checking if some PAW data can be deallocated... 
       PAW data deallocated on    4 nodes for type:  2

     total cpu time spent up to now is        1.4 secs

     Self-consistent Calculation

     iteration #  1     ecut=    30.00 Ry     beta= 0.70
     Davidson diagonalization with overlap

---- Real-time Memory Report at c_bands before calling an iterative solver
           161 MiB given to the printing process from OS
             0 MiB allocation reported by mallinfo(arena+hblkhd)
        142741 MiB available memory on the node where the printing process lives
------------------
     ethr =  1.00E-02,  avg # of iterations =  7.0

     Threshold (ethr) on eigenvalues was too large:
     Diagonalizing with lowered threshold

     Davidson diagonalization with overlap

---- Real-time Memory Report at c_bands before calling an iterative solver
           191 MiB given to the printing process from OS
             0 MiB allocation reported by mallinfo(arena+hblkhd)
        142451 MiB available memory on the node where the printing process lives
------------------
     ethr =  6.90E-05,  avg # of iterations =  6.7

     total cpu time spent up to now is        2.1 secs

     total energy              =    -945.51060430 Ry
     estimated scf accuracy    <       0.01655662 Ry

     iteration #  2     ecut=    30.00 Ry     beta= 0.70
     Davidson diagonalization with overlap

---- Real-time Memory Report at c_bands before calling an iterative solver
           195 MiB given to the printing process from OS
             0 MiB allocation reported by mallinfo(arena+hblkhd)
        142405 MiB available memory on the node where the printing process lives
------------------
     ethr =  6.90E-05,  avg # of iterations =  2.0

     total cpu time spent up to now is        2.3 secs

     total energy              =    -945.51606704 Ry
     estimated scf accuracy    <       0.00999278 Ry

     iteration #  3     ecut=    30.00 Ry     beta= 0.70
     Davidson diagonalization with overlap

---- Real-time Memory Report at c_bands before calling an iterative solver
           196 MiB given to the printing process from OS
             0 MiB allocation reported by mallinfo(arena+hblkhd)
        142395 MiB available memory on the node where the printing process lives
------------------
     ethr =  4.16E-05,  avg # of iterations =  1.0

     total cpu time spent up to now is        2.5 secs

     total energy              =    -945.51773928 Ry
     estimated scf accuracy    <       0.00044830 Ry

     iteration #  4     ecut=    30.00 Ry     beta= 0.70
     Davidson diagonalization with overlap

---- Real-time Memory Report at c_bands before calling an iterative solver
           196 MiB given to the printing process from OS
             0 MiB allocation reported by mallinfo(arena+hblkhd)
        142395 MiB available memory on the node where the printing process lives
------------------
     ethr =  1.87E-06,  avg # of iterations =  2.7

     total cpu time spent up to now is        2.7 secs

     total energy              =    -945.51777487 Ry
     estimated scf accuracy    <       0.00000981 Ry

     iteration #  5     ecut=    30.00 Ry     beta= 0.70
     Davidson diagonalization with overlap

---- Real-time Memory Report at c_bands before calling an iterative solver
           196 MiB given to the printing process from OS
             0 MiB allocation reported by mallinfo(arena+hblkhd)
        142396 MiB available memory on the node where the printing process lives
------------------
     ethr =  4.09E-08,  avg # of iterations =  4.0

     total cpu time spent up to now is        3.0 secs

     total energy              =    -945.51778278 Ry
     estimated scf accuracy    <       0.00000314 Ry

     iteration #  6     ecut=    30.00 Ry     beta= 0.70
     Davidson diagonalization with overlap

---- Real-time Memory Report at c_bands before calling an iterative solver
           196 MiB given to the printing process from OS
             0 MiB allocation reported by mallinfo(arena+hblkhd)
        142410 MiB available memory on the node where the printing process lives
------------------
     ethr =  1.31E-08,  avg # of iterations =  2.0

     total cpu time spent up to now is        3.2 secs

     End of self-consistent calculation

          k = 0.0000 0.0000 0.0000 (  1155 PWs)   bands (ev):

   -31.9057 -12.9700 -12.8451 -12.8451  -7.4380  -7.3048  -7.2468  -7.2430
    -7.2430  -0.5726   8.7502   9.5101  10.7629  12.5032  12.5032  13.0118
    13.3238  13.3238  14.0184  18.3904  18.6336  20.0005  21.4938  21.7171
    21.7171  25.0661  25.0661  25.3188  25.3188  25.3369  26.2269  28.8302
    29.1192  29.2523  30.4932  32.6925  34.2510  34.4921  34.4921  34.5270
    34.5270  37.7476  38.2119  38.2119  38.7297  40.2715  41.6717  43.1870
    43.1870  44.7863  44.7863  45.7352  46.3097  49.7894  50.4942  50.4942
    50.6504  51.0980  51.5606  51.9364  52.2002  53.5181  53.5181  55.5392

     occupation numbers 
     1.0000   1.0000   1.0000   1.0000   1.0000   1.0000   1.0000   1.0000
     1.0000   1.0000   1.0000   1.0000   0.0000   0.0000   0.0000   0.0000
     0.0000   0.0000   0.0000   0.0000   0.0000   0.0000   0.0000   0.0000
     0.0000   0.0000   0.0000   0.0000   0.0000   0.0000   0.0000   0.0000
     0.0000   0.0000   0.0000   0.0000   0.0000   0.0000   0.0000   0.0000
     0.0000   0.0000   0.0000   0.0000   0.0000   0.0000   0.0000   0.0000
     0.0000   0.0000   0.0000   0.0000   0.0000   0.0000   0.0000   0.0000
     0.0000   0.0000   0.0000   0.0000   0.0000   0.0000   0.0000   0.0000

          k = 0.0000 0.0000 0.2596 (  1119 PWs)   bands (ev):

   -31.9053 -12.9869 -12.8457 -12.8457  -7.4369  -7.2900  -7.2463  -7.2410
    -7.2410  -0.1836   5.8456  10.8316  11.5367  11.5367  11.9656  14.0061
    15.2237  15.2237  15.2265  17.2660  17.7886  19.5030  19.5030  20.2015
    21.6305  23.3155  25.2245  25.2245  27.7182  28.1851  28.5670  28.5670
    28.5732  30.0311  30.1644  30.1644  30.7802  32.7854  33.9808  34.9420
    34.9420  38.4618  38.8116  40.2539  40.2539  40.9062  42.4292  43.4218
    43.4218  43.4629  47.4016  47.5030  47.6167  47.6167  48.9398  48.9398
    49.2568  50.4589  51.1284  51.1284  51.7632  52.9242  54.4725  54.4725

     occupation numbers 
     1.0000   1.0000   1.0000   1.0000   1.0000   1.0000   1.0000   1.0000
     1.0000   1.0000   1.0000   1.0000   0.0000   0.0000   0.0000   0.0000
     0.0000   0.0000   0.0000   0.0000   0.0000   0.0000   0.0000   0.0000
     0.0000   0.0000   0.0000   0.0000   0.0000   0.0000   0.0000   0.0000
     0.0000   0.0000   0.0000   0.0000   0.0000   0.0000   0.0000   0.0000
     0.0000   0.0000   0.0000   0.0000   0.0000   0.0000   0.0000   0.0000
     0.0000   0.0000   0.0000   0.0000   0.0000   0.0000   0.0000   0.0000
     0.0000   0.0000   0.0000   0.0000   0.0000   0.0000   0.0000   0.0000

          k = 0.0000 0.3333 0.0000 (  1130 PWs)   bands (ev):

   -31.8955 -12.9810 -12.9574 -12.8342  -7.3666  -7.2901  -7.2882  -7.2369
    -7.2204   0.4824   6.7871   8.8318  10.5743  12.0158  12.2438  13.4164
    13.9626  14.8554  15.2176  17.1488  17.3726  18.8588  20.8150  21.0677
    22.4685  24.1263  24.3395  24.6951  25.5588  27.2921  27.6122  29.3899
    30.2980  31.6584  32.0449  32.7834  33.4817  34.5630  35.3739  36.1098
    36.6506  38.3100  38.5859  38.9937  39.6904  40.9612  42.6169  42.8818
    43.2586  44.6275  44.9251  45.4903  45.7829  46.0833  46.4005  47.7563
    47.8358  48.7048  49.7167  49.9549  50.4090  51.1504  51.8379  52.6001

     occupation numbers 
     1.0000   1.0000   1.0000   1.0000   1.0000   1.0000   1.0000   1.0000
     1.0000   1.0000   1.0000   1.0000   0.0000   0.0000   0.0000   0.0000
     0.0000   0.0000   0.0000   0.0000   0.0000   0.0000   0.0000   0.0000
     0.0000   0.0000   0.0000   0.0000   0.0000   0.0000   0.0000   0.0000
     0.0000   0.0000   0.0000   0.0000   0.0000   0.0000   0.0000   0.0000
     0.0000   0.0000   0.0000   0.0000   0.0000   0.0000   0.0000   0.0000
     0.0000   0.0000   0.0000   0.0000   0.0000   0.0000   0.0000   0.0000
     0.0000   0.0000   0.0000   0.0000   0.0000   0.0000   0.0000   0.0000

          k = 0.0000 0.3333 0.2596 (  1123 PWs)   bands (ev):

   -31.8951 -12.9777 -12.9675 -12.8332  -7.3639  -7.2994  -7.2923  -7.2394
    -7.2099   0.6942   6.9406   7.5211  10.7507  12.3464  12.9287  13.1107
    13.1245  15.1829  15.2111  17.7843  18.1297  19.7115  20.7980  21.5431
    21.9401  23.0297  24.1519  25.5103  25.5606  26.8026  28.2665  28.4349
    28.7825  30.5850  32.5096  34.0318  34.3303  34.9167  35.0721  36.0248
    36.3750  37.7127  38.3994  38.7997  39.4622  39.5392  41.6869  42.8938
    43.3766  44.1627  44.5911  44.9755  46.4343  46.5066  47.4570  48.5663
    49.3554  49.5253  49.8393  51.7787  51.8970  52.3732  52.8333  53.3832

     occupation numbers 
     1.0000   1.0000   1.0000   1.0000   1.0000   1.0000   1.0000   1.0000
     1.0000   1.0000   1.0000   1.0000   0.0000   0.0000   0.0000   0.0000
     0.0000   0.0000   0.0000   0.0000   0.0000   0.0000   0.0000   0.0000
     0.0000   0.0000   0.0000   0.0000   0.0000   0.0000   0.0000   0.0000
     0.0000   0.0000   0.0000   0.0000   0.0000   0.0000   0.0000   0.0000
     0.0000   0.0000   0.0000   0.0000   0.0000   0.0000   0.0000   0.0000
     0.0000   0.0000   0.0000   0.0000   0.0000   0.0000   0.0000   0.0000
     0.0000   0.0000   0.0000   0.0000   0.0000   0.0000   0.0000   0.0000

          k = 0.3333 0.3333 0.0000 (  1142 PWs)   bands (ev):

   -31.8855 -12.9650 -12.9594 -12.9412  -7.3500  -7.2930  -7.2880  -7.2176
    -7.2142   1.3923   7.7468   8.1883   9.7906  11.6710  11.9242  12.0154
    13.5776  14.2218  14.9268  16.9403  17.2388  17.9253  20.3073  20.9916
    23.1458  24.3435  24.6317  25.9047  27.8940  29.3965  30.4041  30.4240
    31.7495  32.5870  33.5293  34.0251  34.2216  34.3374  34.4113  36.8874
    37.2142  38.1439  38.5506  38.6397  38.6647  39.5724  39.6204  40.7573
    41.2382  42.5586  42.5966  43.1997  44.5204  44.8758  44.9123  45.9087
    47.0032  47.7054  48.4949  50.2516  50.7592  51.6513  52.1770  53.3643

     occupation numbers 
     1.0000   1.0000   1.0000   1.0000   1.0000   1.0000   1.0000   1.0000
     1.0000   1.0000   1.0000   1.0000   0.0000   0.0000   0.0000   0.0000
     0.0000   0.0000   0.0000   0.0000   0.0000   0.0000   0.0000   0.0000
     0.0000   0.0000   0.0000   0.0000   0.0000   0.0000   0.0000   0.0000
     0.0000   0.0000   0.0000   0.0000   0.0000   0.0000   0.0000   0.0000
     0.0000   0.0000   0.0000   0.0000   0.0000   0.0000   0.0000   0.0000
     0.0000   0.0000   0.0000   0.0000   0.0000   0.0000   0.0000   0.0000
     0.0000   0.0000   0.0000   0.0000   0.0000   0.0000   0.0000   0.0000

          k = 0.3333 0.3333 0.2596 (  1128 PWs)   bands (ev):

   -31.8852 -12.9632 -12.9605 -12.9524  -7.3453  -7.2922  -7.2879  -7.2143
    -7.2023   1.5991   7.8634   8.0458   8.3203  11.9721  12.0040  12.3375
    13.8493  14.3739  15.3045  16.4205  16.5042  18.9060  20.5268  23.2745
    23.3285  25.0787  25.7313  26.2563  27.5139  28.2507  28.8681  29.3753
    29.5289  30.0229  30.9406  33.6111  34.1548  34.7174  35.9805  36.6427
    37.3519  37.4991  37.8012  39.0096  40.1003  40.3514  41.7929  41.8584
    42.9145  43.2137  43.7613  44.5592  44.9537  45.5404  45.5519  47.1364
    47.5462  47.8428  48.9200  49.6050  50.5768  50.7552  51.1304  52.1442

     occupation numbers 
     1.0000   1.0000   1.0000   1.0000   1.0000   1.0000   1.0000   1.0000
     1.0000   1.0000   1.0000   1.0000   0.0000   0.0000   0.0000   0.0000
     0.0000   0.0000   0.0000   0.0000   0.0000   0.0000   0.0000   0.0000
     0.0000   0.0000   0.0000   0.0000   0.0000   0.0000   0.0000   0.0000
     0.0000   0.0000   0.0000   0.0000   0.0000   0.0000   0.0000   0.0000
     0.0000   0.0000   0.0000   0.0000   0.0000   0.0000   0.0000   0.0000
     0.0000   0.0000   0.0000   0.0000   0.0000   0.0000   0.0000   0.0000
     0.0000   0.0000   0.0000   0.0000   0.0000   0.0000   0.0000   0.0000

     highest occupied, lowest unoccupied level (ev):    10.8316    8.3203

!    total energy              =    -945.51778297 Ry
     estimated scf accuracy    <       0.00000003 Ry

     The total energy is the sum of the following terms:
     one-electron contribution =     -62.43951025 Ry
     hartree contribution      =      45.04021903 Ry
     xc contribution           =     -56.33313663 Ry
     ewald contribution        =    -143.30519480 Ry
     one-center paw contrib.   =    -728.48016031 Ry
      -> PAW hartree energy AE =       0.00000000 Ry
      -> PAW hartree energy PS =       0.00000000 Ry
      -> PAW xc energy AE      =       0.00000000 Ry
      -> PAW xc energy PS      =       0.00000000 Ry
      -> total E_H with PAW    =      45.04021903 Ry
      -> total E_XC with PAW   =     -56.33313663 Ry

     convergence has been achieved in   6 iterations

     Writing all to output data dir calculations_bands_val/myprefix.save/
 
     init_run     :      3.20s CPU      1.04s WALL (       1 calls)
     electrons    :      6.78s CPU      1.77s WALL (       1 calls)

     Called by init_run:
     wfcinit      :      0.25s CPU      0.07s WALL (       1 calls)
     wfcinit:atom :      0.00s CPU      0.00s WALL (       3 calls)
     wfcinit:wfcr :      0.24s CPU      0.06s WALL (       3 calls)
     potinit      :      0.97s CPU      0.26s WALL (       1 calls)
     hinit0       :      1.68s CPU      0.59s WALL (       1 calls)

     Called by electrons:
     c_bands      :      4.09s CPU      1.07s WALL (       7 calls)
     sum_band     :      0.89s CPU      0.23s WALL (       7 calls)
     v_of_rho     :      0.14s CPU      0.04s WALL (       7 calls)
     v_h          :      0.01s CPU      0.00s WALL (       7 calls)
     v_xc         :      0.13s CPU      0.03s WALL (       7 calls)
     newd         :      0.38s CPU      0.10s WALL (       7 calls)
     PAW_pot      :      1.50s CPU      0.39s WALL (       7 calls)
     mix_rho      :      0.02s CPU      0.01s WALL (       7 calls)

     Called by c_bands:
     init_us_2    :      0.02s CPU      0.01s WALL (      45 calls)
     init_us_2:cp :      0.02s CPU      0.01s WALL (      45 calls)
     cegterg      :      3.85s CPU      1.00s WALL (      21 calls)

     Called by sum_band:
     sum_band:wei :      0.00s CPU      0.00s WALL (       7 calls)
     sum_band:loo :      0.43s CPU      0.11s WALL (       7 calls)
     sum_band:buf :      0.00s CPU      0.00s WALL (      21 calls)
     sum_band:ini :      0.01s CPU      0.00s WALL (      21 calls)
     sum_band:cal :      0.02s CPU      0.00s WALL (      21 calls)
     sum_band:bec :      0.00s CPU      0.00s WALL (      21 calls)
     addusdens    :      0.36s CPU      0.10s WALL (       7 calls)
     addusd:skk   :      0.00s CPU      0.00s WALL (      14 calls)
     addusd:dgemm :      0.03s CPU      0.01s WALL (      14 calls)
     addusd:qvan2 :      0.26s CPU      0.07s WALL (      14 calls)

     Called by *egterg:
     cdiaghg      :      1.41s CPU      0.37s WALL (      94 calls)
     cegterg:over :      0.17s CPU      0.04s WALL (      76 calls)
     cegterg:upda :      0.08s CPU      0.02s WALL (      76 calls)
     cegterg:last :      0.15s CPU      0.04s WALL (      48 calls)
     cdiaghg:chol :      0.10s CPU      0.03s WALL (      94 calls)
     cdiaghg:inve :      0.02s CPU      0.01s WALL (      94 calls)
     cdiaghg:para :      0.24s CPU      0.06s WALL (     188 calls)
     h_psi        :      2.16s CPU      0.56s WALL (     100 calls)
     s_psi        :      0.02s CPU      0.00s WALL (     100 calls)
     g_psi        :      0.00s CPU      0.00s WALL (      76 calls)

     Called by h_psi:
     h_psi:calbec :      0.05s CPU      0.01s WALL (     100 calls)
     vloc_psi     :      2.07s CPU      0.54s WALL (     100 calls)
     add_vuspsi   :      0.03s CPU      0.01s WALL (     100 calls)

     General routines
     calbec       :      0.06s CPU      0.02s WALL (     121 calls)
     fft          :      0.82s CPU      0.24s WALL (      90 calls)
     ffts         :      0.64s CPU      0.17s WALL (      14 calls)
     fftw         :      1.97s CPU      0.51s WALL (    8464 calls)
     interpolate  :      0.65s CPU      0.17s WALL (       7 calls)
 
     Parallel routines

     PAW routines
     PAW_pot      :      1.50s CPU      0.39s WALL (       7 calls)
     PAW_symme    :      0.04s CPU      0.01s WALL (      14 calls)
 
     PWSCF        :     11.23s CPU      3.60s WALL

 
   This run was terminated on:  14:48:50   4Jun2023            

=------------------------------------------------------------------------------=
   JOB DONE.
=------------------------------------------------------------------------------=
