
     Program PWSCF v.7.0 starts on  4Jun2023 at 14:40:44 

     This program is part of the open-source Quantum ESPRESSO suite
     for quantum simulation of materials; please cite
         "P. Giannozzi et al., J. Phys.:Condens. Matter 21 395502 (2009);
         "P. Giannozzi et al., J. Phys.:Condens. Matter 29 465901 (2017);
         "P. Giannozzi et al., J. Chem. Phys. 152 154105 (2020);
          URL http://www.quantum-espresso.org", 
     in publications or presentations arising from this work. More details at
     http://www.quantum-espresso.org/quote

     Parallel version (MPI & OpenMP), running on      32 processor cores
     Number of MPI processes:                 8
     Threads/MPI process:                     4

     MPI processes distributed on     1 nodes
     K-points division:     npool     =       2
     R & G space division:  proc/nbgrp/npool/nimage =       4
     143199 MiB available memory on the printing compute node when the environment starts
 
     Reading input from espresso_769.pwi
Warning: card &CELL ignored
Warning: card / ignored

     Current dimensions of program PWSCF are:
     Max number of different atomic species (ntypx) = 10
     Max number of k-points (npk) =  40000
     Max angular momentum in pseudopotentials (lmaxx) =  4
     file Fe.pbe-spn-kjpaw_psl.0.2.1.UPF: wavefunction(s)  3D renormalized
     Message from routine setup:
     using ibrav=0 with symmetry is DISCOURAGED, use correct ibrav instead

     Subspace diagonalization in iterative solution of the eigenvalue problem:
     one sub-group per band group will be used
     scalapack distributed-memory algorithm (size of sub-group:  2*  2 procs)

 
     Parallelization info
     --------------------
     sticks:   dense  smooth     PW     G-vecs:    dense   smooth      PW
     Min         460     229     70                 7723     2730     475
     Max         462     230     71                 7724     2731     476
     Sum        1843     917    283                30895    10921    1903
 
     Using Slab Decomposition
 


     bravais-lattice index     =            0
     lattice parameter (alat)  =      10.6951  a.u.
     unit-cell volume          =     491.9437 (a.u.)^3
     number of atoms/cell      =            5
     number of atomic types    =            3
     number of electrons       =        52.00
     number of Kohn-Sham states=           64
     kinetic-energy cutoff     =      30.0000  Ry
     charge density cutoff     =     240.0000  Ry
     scf convergence threshold =      1.0E-06
     mixing beta               =       0.7000
     number of iterations used =            8  plain     mixing
     Exchange-correlation= PBE
                           (   1   4   3   4   0   0   0)

     celldm(1)=  10.695082  celldm(2)=   0.000000  celldm(3)=   0.000000
     celldm(4)=   0.000000  celldm(5)=   0.000000  celldm(6)=   0.000000

     crystal axes: (cart. coord. in units of alat)
               a(1) = (   1.000000   0.000000   0.000000 )  
               a(2) = (   0.542037   0.840355   0.000000 )  
               a(3) = (  -0.771018  -0.420177   0.478520 )  

     reciprocal axes: (cart. coord. in units 2 pi/alat)
               b(1) = (  1.000000 -0.645009  1.044888 )  
               b(2) = (  0.000000  1.189974  1.044888 )  
               b(3) = (  0.000000  0.000000  2.089776 )  


     PseudoPot. # 1 for Ca read from file:
     /home/pragov/projects/rrg-bengioy-ad/pragov/crystal_structure_design/SSSP/Ca_pbe_v1.uspp.F.UPF
     MD5 check sum: 403a4c14b9e4d4dfdc3024c9a3812218
     Pseudo is Ultrasoft + core correction, Zval = 10.0
     Generated by new atomic code, or converted to UPF format
     Using radial grid of  845 points,  6 beta functions with: 
                l(1) =   0
                l(2) =   0
                l(3) =   1
                l(4) =   1
                l(5) =   2
                l(6) =   2
     Q(r) pseudized with  8 coefficients,  rinner =    1.500   1.500   1.500
                                                       1.500   1.500

     PseudoPot. # 2 for Fe read from file:
     /home/pragov/projects/rrg-bengioy-ad/pragov/crystal_structure_design/SSSP/Fe.pbe-spn-kjpaw_psl.0.2.1.UPF
     MD5 check sum: e86618425769142926afa95317d90200
     Pseudo is Projector augmented-wave + core cor, Zval = 16.0
     Generated using "atomic" code by A. Dal Corso  v.5.0.99 svn rev. 10869
     Shape of augmentation charge: PSQ
     Using radial grid of 1191 points,  6 beta functions with: 
                l(1) =   0
                l(2) =   0
                l(3) =   1
                l(4) =   1
                l(5) =   2
                l(6) =   2
     Q(r) pseudized with 0 coefficients 


     PseudoPot. # 3 for P  read from file:
     /home/pragov/projects/rrg-bengioy-ad/pragov/crystal_structure_design/SSSP/P.pbe-n-rrkjus_psl.1.0.0.UPF
     MD5 check sum: 8b930f418f0a4573dca56cd030ffe088
     Pseudo is Ultrasoft + core correction, Zval =  5.0
     Generated using "atomic" code by A. Dal Corso  v.5.1
     Using radial grid of 1147 points,  6 beta functions with: 
                l(1) =   0
                l(2) =   0
                l(3) =   1
                l(4) =   1
                l(5) =   2
                l(6) =   2
     Q(r) pseudized with 0 coefficients 


     atomic species   valence    mass     pseudopotential
        Ca            10.00    40.07800     Ca( 1.00)
        Fe            16.00    55.84500     Fe( 1.00)
        P              5.00    30.97376     P ( 1.00)

      4 Sym. Ops., with inversion, found


                                    s                        frac. trans.

      isym =  1     identity                                     

 cryst.   s( 1) = (     1          0          0      )
                  (     0          1          0      )
                  (     0          0          1      )

 cart.    s( 1) = (  1.0000000 -0.0000000 -0.0000000 )
                  (  0.0000000  1.0000000 -0.0000000 )
                  (  0.0000000  0.0000000  1.0000000 )


      isym =  2     180 deg rotation - cart. axis [0,0,1]        

 cryst.   s( 2) = (    -1          0          0      )
                  (     0         -1          0      )
                  (     1          1          1      )

 cart.    s( 2) = ( -1.0000000  0.0000000 -0.0000000 )
                  (  0.0000000 -1.0000000 -0.0000000 )
                  (  0.0000000  0.0000000  1.0000000 )


      isym =  3     inversion                                    

 cryst.   s( 3) = (    -1          0          0      )
                  (     0         -1          0      )
                  (     0          0         -1      )

 cart.    s( 3) = ( -1.0000000  0.0000000  0.0000000 )
                  (  0.0000000 -1.0000000  0.0000000 )
                  (  0.0000000  0.0000000 -1.0000000 )


      isym =  4     inv. 180 deg rotation - cart. axis [0,0,1]   

 cryst.   s( 4) = (     1          0          0      )
                  (     0          1          0      )
                  (    -1         -1         -1      )

 cart.    s( 4) = (  1.0000000 -0.0000000  0.0000000 )
                  (  0.0000000  1.0000000  0.0000000 )
                  (  0.0000000  0.0000000 -1.0000000 )


   Cartesian axes

     site n.     atom                  positions (alat units)
         1           Ca  tau(   1) = (   0.0000000   0.0000000   0.0000000  )
         2           Fe  tau(   2) = (   0.2710183   0.4201774   0.2392601  )
         3           Fe  tau(   3) = (   0.5000000  -0.0000000   0.2392601  )
         4           P   tau(   4) = (   0.9880554   0.5384548   0.0000000  )
         5           P   tau(   5) = (   0.5539813   0.3019000   0.0000000  )

   Crystallographic axes

     site n.     atom                  positions (cryst. coord.)
         1           Ca  tau(   1) = (  0.0000000  0.0000000  0.0000000  )
         2           Fe  tau(   2) = (  0.2500000  0.7500000  0.5000000  )
         3           Fe  tau(   3) = (  0.7500000  0.2500000  0.5000000  )
         4           P   tau(   4) = (  0.6407470  0.6407470  0.0000000  )
         5           P   tau(   5) = (  0.3592530  0.3592530  0.0000000  )

     number of k points=    10
                       cart. coord. in units 2pi/alat
        k(    1) = (   0.0000000   0.0000000   0.0000000), wk =   0.0740741
        k(    2) = (   0.0000000   0.0000000   0.6965919), wk =   0.1481481
        k(    3) = (   0.0000000   0.3966578   0.3482959), wk =   0.2962963
        k(    4) = (   0.0000000   0.3966578   1.0448878), wk =   0.1481481
        k(    5) = (   0.3333333  -0.2150031   0.3482959), wk =   0.2962963
        k(    6) = (   0.3333333  -0.2150031   1.0448878), wk =   0.1481481
        k(    7) = (   0.3333333   0.1816547   0.6965919), wk =   0.2962963
        k(    8) = (   0.3333333   0.1816547   0.0000000), wk =   0.1481481
        k(    9) = (   0.3333333  -0.6116609  -0.0000000), wk =   0.1481481
        k(   10) = (   0.3333333  -0.6116609   0.6965919), wk =   0.2962963

                       cryst. coord.
        k(    1) = (   0.0000000   0.0000000   0.0000000), wk =   0.0740741
        k(    2) = (   0.0000000   0.0000000   0.3333333), wk =   0.1481481
        k(    3) = (   0.0000000   0.3333333  -0.0000000), wk =   0.2962963
        k(    4) = (   0.0000000   0.3333333   0.3333333), wk =   0.1481481
        k(    5) = (   0.3333333   0.0000000  -0.0000000), wk =   0.2962963
        k(    6) = (   0.3333333   0.0000000   0.3333333), wk =   0.1481481
        k(    7) = (   0.3333333   0.3333333  -0.0000000), wk =   0.2962963
        k(    8) = (   0.3333333   0.3333333  -0.3333333), wk =   0.1481481
        k(    9) = (   0.3333333  -0.3333333   0.0000000), wk =   0.1481481
        k(   10) = (   0.3333333  -0.3333333   0.3333333), wk =   0.2962963

     Dense  grid:    30895 G-vectors     FFT dimensions: (  54,  54,  54)

     Smooth grid:    10921 G-vectors     FFT dimensions: (  40,  40,  40)

     Dynamical RAM for                 wfc:       0.33 MB

     Dynamical RAM for     wfc (w. buffer):       2.00 MB

     Dynamical RAM for           str. fact:       0.35 MB

     Dynamical RAM for           local pot:       0.00 MB

     Dynamical RAM for          nlocal pot:       0.47 MB

     Dynamical RAM for                qrad:       3.73 MB

     Dynamical RAM for          rho,v,vnew:       1.29 MB

     Dynamical RAM for               rhoin:       0.43 MB

     Dynamical RAM for            rho*nmix:       1.89 MB

     Dynamical RAM for           G-vectors:       0.46 MB

     Dynamical RAM for          h,s,v(r/c):       0.19 MB

     Dynamical RAM for          <psi|beta>:       0.09 MB

     Dynamical RAM for                 psi:       0.67 MB

     Dynamical RAM for                hpsi:       0.67 MB

     Dynamical RAM for                spsi:       0.67 MB

     Dynamical RAM for      wfcinit/wfcrot:       0.76 MB

     Dynamical RAM for           addusdens:      11.14 MB

     Estimated static dynamical RAM per process >      10.76 MB

     Estimated max dynamical RAM per process >      23.78 MB

     Estimated total dynamical RAM >     182.73 MB

     Check: negative core charge=   -0.000145

     Initial potential from superposition of free atoms

     starting charge      51.9933, renormalised to      52.0000
     Starting wfcs are   44 randomized atomic wfcs +   20 random wfcs
     Checking if some PAW data can be deallocated... 
       PAW data deallocated on    4 nodes for type:  2

     total cpu time spent up to now is        1.7 secs

     Self-consistent Calculation

     iteration #  1     ecut=    30.00 Ry     beta= 0.70
     Davidson diagonalization with overlap

---- Real-time Memory Report at c_bands before calling an iterative solver
           170 MiB given to the printing process from OS
             0 MiB allocation reported by mallinfo(arena+hblkhd)
        142545 MiB available memory on the node where the printing process lives
------------------
     ethr =  1.00E-02,  avg # of iterations =  6.7

     total cpu time spent up to now is        2.6 secs

     total energy              =    -760.75827432 Ry
     estimated scf accuracy    <       0.65166994 Ry

     iteration #  2     ecut=    30.00 Ry     beta= 0.70
     Davidson diagonalization with overlap

---- Real-time Memory Report at c_bands before calling an iterative solver
           190 MiB given to the printing process from OS
             0 MiB allocation reported by mallinfo(arena+hblkhd)
        142421 MiB available memory on the node where the printing process lives
------------------
     ethr =  1.25E-03,  avg # of iterations =  2.1

     total cpu time spent up to now is        3.1 secs

     total energy              =    -758.38845217 Ry
     estimated scf accuracy    <      29.54889834 Ry

     iteration #  3     ecut=    30.00 Ry     beta= 0.70
     Davidson diagonalization with overlap

---- Real-time Memory Report at c_bands before calling an iterative solver
           191 MiB given to the printing process from OS
             0 MiB allocation reported by mallinfo(arena+hblkhd)
        142401 MiB available memory on the node where the printing process lives
------------------
     ethr =  1.25E-03,  avg # of iterations =  2.0

     total cpu time spent up to now is        3.7 secs

     total energy              =    -761.13301499 Ry
     estimated scf accuracy    <       0.25714347 Ry

     iteration #  4     ecut=    30.00 Ry     beta= 0.70
     Davidson diagonalization with overlap

---- Real-time Memory Report at c_bands before calling an iterative solver
           191 MiB given to the printing process from OS
             0 MiB allocation reported by mallinfo(arena+hblkhd)
        142405 MiB available memory on the node where the printing process lives
------------------
     ethr =  4.95E-04,  avg # of iterations =  1.0

     total cpu time spent up to now is        4.1 secs

     total energy              =    -761.13848885 Ry
     estimated scf accuracy    <       0.05573056 Ry

     iteration #  5     ecut=    30.00 Ry     beta= 0.70
     Davidson diagonalization with overlap

---- Real-time Memory Report at c_bands before calling an iterative solver
           191 MiB given to the printing process from OS
             0 MiB allocation reported by mallinfo(arena+hblkhd)
        142402 MiB available memory on the node where the printing process lives
------------------
     ethr =  1.07E-04,  avg # of iterations =  1.0

     total cpu time spent up to now is        4.6 secs

     total energy              =    -761.13681041 Ry
     estimated scf accuracy    <       0.03582781 Ry

     iteration #  6     ecut=    30.00 Ry     beta= 0.70
     Davidson diagonalization with overlap

---- Real-time Memory Report at c_bands before calling an iterative solver
           192 MiB given to the printing process from OS
             0 MiB allocation reported by mallinfo(arena+hblkhd)
        142400 MiB available memory on the node where the printing process lives
------------------
     ethr =  6.89E-05,  avg # of iterations =  1.0

     total cpu time spent up to now is        5.1 secs

     total energy              =    -761.13657868 Ry
     estimated scf accuracy    <       0.00580256 Ry

     iteration #  7     ecut=    30.00 Ry     beta= 0.70
     Davidson diagonalization with overlap

---- Real-time Memory Report at c_bands before calling an iterative solver
           193 MiB given to the printing process from OS
             0 MiB allocation reported by mallinfo(arena+hblkhd)
        142400 MiB available memory on the node where the printing process lives
------------------
     ethr =  1.12E-05,  avg # of iterations =  1.3

     total cpu time spent up to now is        5.6 secs

     total energy              =    -761.13713333 Ry
     estimated scf accuracy    <       0.00013372 Ry

     iteration #  8     ecut=    30.00 Ry     beta= 0.70
     Davidson diagonalization with overlap

---- Real-time Memory Report at c_bands before calling an iterative solver
           193 MiB given to the printing process from OS
             0 MiB allocation reported by mallinfo(arena+hblkhd)
        142398 MiB available memory on the node where the printing process lives
------------------
     ethr =  2.57E-07,  avg # of iterations =  2.0

     total cpu time spent up to now is        6.1 secs

     total energy              =    -761.13716777 Ry
     estimated scf accuracy    <       0.00001202 Ry

     iteration #  9     ecut=    30.00 Ry     beta= 0.70
     Davidson diagonalization with overlap

---- Real-time Memory Report at c_bands before calling an iterative solver
           193 MiB given to the printing process from OS
             0 MiB allocation reported by mallinfo(arena+hblkhd)
        142398 MiB available memory on the node where the printing process lives
------------------
     ethr =  2.31E-08,  avg # of iterations =  2.2

     total cpu time spent up to now is        6.6 secs

     End of self-consistent calculation

          k = 0.0000 0.0000 0.0000 (  1357 PWs)   bands (ev):

   -73.6992 -73.6799 -39.4848 -39.4848 -39.3765 -39.3765 -39.1466 -39.1457
   -27.3440  -8.3937  -8.3937  -8.3885   0.2959   3.1983   7.0001   9.1689
     9.1689   9.4773  10.2499  10.4920  10.4920  12.3906  12.5296  12.6590
    13.0977  13.0977  13.6645  14.2795  15.5324  15.5324  17.0808  17.4831
    17.8951  18.2020  18.7113  18.9000  18.9000  19.7178  22.8340  22.8340
    23.1003  23.8533  23.8533  24.1161  24.4833  25.8709  27.4585  27.4585
    27.8123  28.7590  31.9442  33.0896  33.0896  33.4528  33.4806  33.6147
    33.6147  33.6434  35.7302  38.6787  39.3569  40.8175  40.8175  41.4620

     occupation numbers 
     1.0000   1.0000   1.0000   1.0000   1.0000   1.0000   1.0000   1.0000
     1.0000   1.0000   1.0000   1.0000   1.0000   1.0000   1.0000   1.0000
     1.0000   1.0000   1.0000   1.0000   1.0000   1.0000   1.0000   1.0000
     1.0000   1.0000   0.0000   0.0000   0.0000   0.0000   0.0000   0.0000
     0.0000   0.0000   0.0000   0.0000   0.0000   0.0000   0.0000   0.0000
     0.0000   0.0000   0.0000   0.0000   0.0000   0.0000   0.0000   0.0000
     0.0000   0.0000   0.0000   0.0000   0.0000   0.0000   0.0000   0.0000
     0.0000   0.0000   0.0000   0.0000   0.0000   0.0000   0.0000   0.0000

          k = 0.0000 0.0000 0.6966 (  1355 PWs)   bands (ev):

   -73.6928 -73.6878 -39.4940 -39.4762 -39.4076 -39.3857 -39.1413 -39.1272
   -27.3328  -8.4811  -8.4696  -8.3655   1.6908   3.2852   7.2266   7.9850
     8.9668   9.4849  10.1478  10.7485  10.8073  11.7148  11.7385  12.0545
    12.1968  12.4796  13.0035  14.0294  14.1168  15.4728  17.3712  17.8256
    17.9460  18.2221  18.5294  18.7819  21.6839  22.0071  22.0550  23.1956
    23.4987  23.9346  24.0583  24.8494  25.0902  26.8730  28.3577  28.9617
    30.3100  30.8703  31.0405  32.0098  32.6187  33.1875  34.1023  34.2486
    34.3951  34.5318  35.9429  36.0383  38.1793  38.3556  38.9937  39.5490

     occupation numbers 
     1.0000   1.0000   1.0000   1.0000   1.0000   1.0000   1.0000   1.0000
     1.0000   1.0000   1.0000   1.0000   1.0000   1.0000   1.0000   1.0000
     1.0000   1.0000   1.0000   1.0000   1.0000   1.0000   1.0000   1.0000
     1.0000   1.0000   0.0000   0.0000   0.0000   0.0000   0.0000   0.0000
     0.0000   0.0000   0.0000   0.0000   0.0000   0.0000   0.0000   0.0000
     0.0000   0.0000   0.0000   0.0000   0.0000   0.0000   0.0000   0.0000
     0.0000   0.0000   0.0000   0.0000   0.0000   0.0000   0.0000   0.0000
     0.0000   0.0000   0.0000   0.0000   0.0000   0.0000   0.0000   0.0000

          k = 0.0000 0.3967 0.3483 (  1375 PWs)   bands (ev):

   -73.7001 -73.6880 -39.4841 -39.4756 -39.4386 -39.4339 -39.1422 -39.1370
   -27.3382  -8.4970  -8.3828  -8.3789   1.2382   2.8698   7.7326   8.2420
     9.2120   9.3823  10.0153  10.0171  10.9170  11.9014  11.9836  12.2223
    12.3816  12.7021  14.0131  14.2068  15.1768  16.4193  16.8129  17.4196
    17.8007  17.9338  18.7732  18.8805  20.2690  20.7592  21.2972  22.4479
    22.9627  23.6986  24.2272  25.0612  26.0502  26.7641  26.8701  27.9756
    29.4414  31.1618  31.2065  31.9226  32.3018  32.8060  33.9333  34.2850
    34.4634  35.4786  36.9758  37.7187  38.2262  38.8972  39.1182  40.0039

     occupation numbers 
     1.0000   1.0000   1.0000   1.0000   1.0000   1.0000   1.0000   1.0000
     1.0000   1.0000   1.0000   1.0000   1.0000   1.0000   1.0000   1.0000
     1.0000   1.0000   1.0000   1.0000   1.0000   1.0000   1.0000   1.0000
     1.0000   1.0000   0.0000   0.0000   0.0000   0.0000   0.0000   0.0000
     0.0000   0.0000   0.0000   0.0000   0.0000   0.0000   0.0000   0.0000
     0.0000   0.0000   0.0000   0.0000   0.0000   0.0000   0.0000   0.0000
     0.0000   0.0000   0.0000   0.0000   0.0000   0.0000   0.0000   0.0000
     0.0000   0.0000   0.0000   0.0000   0.0000   0.0000   0.0000   0.0000

          k = 0.0000 0.3967 1.0449 (  1350 PWs)   bands (ev):

   -73.6935 -73.6853 -39.4870 -39.4725 -39.4018 -39.3930 -39.1324 -39.1266
   -27.3327  -8.4780  -8.4719  -8.3686   1.9715   2.8375   7.7919   7.8373
     8.7964   9.6808   9.7924  10.5732  11.0935  11.3549  11.5303  12.0242
    12.4834  12.8161  13.5123  13.9839  14.2638  14.6409  17.4644  17.7307
    18.3762  18.5560  19.0282  19.2853  20.0906  20.5490  21.3184  22.9834
    23.1593  23.7099  24.9461  26.6085  27.0369  27.6051  28.7088  29.1712
    29.5840  30.4641  30.5034  31.6398  31.9531  32.9615  33.4405  33.4617
    33.7365  35.2242  36.1800  36.3838  37.1378  38.5227  39.3182  39.8810

     occupation numbers 
     1.0000   1.0000   1.0000   1.0000   1.0000   1.0000   1.0000   1.0000
     1.0000   1.0000   1.0000   1.0000   1.0000   1.0000   1.0000   1.0000
     1.0000   1.0000   1.0000   1.0000   1.0000   1.0000   1.0000   1.0000
     1.0000   1.0000   0.0000   0.0000   0.0000   0.0000   0.0000   0.0000
     0.0000   0.0000   0.0000   0.0000   0.0000   0.0000   0.0000   0.0000
     0.0000   0.0000   0.0000   0.0000   0.0000   0.0000   0.0000   0.0000
     0.0000   0.0000   0.0000   0.0000   0.0000   0.0000   0.0000   0.0000
     0.0000   0.0000   0.0000   0.0000   0.0000   0.0000   0.0000   0.0000

          k = 0.3333-0.2150 0.3483 (  1375 PWs)   bands (ev):

   -73.7001 -73.6880 -39.4841 -39.4756 -39.4386 -39.4339 -39.1422 -39.1370
   -27.3382  -8.4970  -8.3828  -8.3789   1.2382   2.8698   7.7326   8.2420
     9.2120   9.3823  10.0153  10.0171  10.9170  11.9014  11.9836  12.2223
    12.3816  12.7021  14.0131  14.2068  15.1768  16.4193  16.8129  17.4196
    17.8007  17.9338  18.7732  18.8805  20.2690  20.7592  21.2972  22.4479
    22.9627  23.6986  24.2272  25.0612  26.0502  26.7641  26.8701  27.9756
    29.4414  31.1618  31.2065  31.9226  32.3018  32.8060  33.9333  34.2850
    34.4634  35.4786  36.9758  37.7187  38.2262  38.8972  39.1182  40.0039

     occupation numbers 
     1.0000   1.0000   1.0000   1.0000   1.0000   1.0000   1.0000   1.0000
     1.0000   1.0000   1.0000   1.0000   1.0000   1.0000   1.0000   1.0000
     1.0000   1.0000   1.0000   1.0000   1.0000   1.0000   1.0000   1.0000
     1.0000   1.0000   0.0000   0.0000   0.0000   0.0000   0.0000   0.0000
     0.0000   0.0000   0.0000   0.0000   0.0000   0.0000   0.0000   0.0000
     0.0000   0.0000   0.0000   0.0000   0.0000   0.0000   0.0000   0.0000
     0.0000   0.0000   0.0000   0.0000   0.0000   0.0000   0.0000   0.0000
     0.0000   0.0000   0.0000   0.0000   0.0000   0.0000   0.0000   0.0000

          k = 0.3333-0.2150 1.0449 (  1350 PWs)   bands (ev):

   -73.6935 -73.6853 -39.4870 -39.4725 -39.4018 -39.3930 -39.1324 -39.1266
   -27.3327  -8.4780  -8.4719  -8.3686   1.9715   2.8375   7.7919   7.8373
     8.7964   9.6808   9.7924  10.5732  11.0935  11.3549  11.5303  12.0242
    12.4834  12.8161  13.5123  13.9839  14.2638  14.6409  17.4644  17.7307
    18.3762  18.5560  19.0282  19.2853  20.0906  20.5490  21.3184  22.9834
    23.1593  23.7099  24.9461  26.6085  27.0369  27.6051  28.7088  29.1712
    29.5840  30.4641  30.5034  31.6398  31.9531  32.9615  33.4405  33.4617
    33.7365  35.2242  36.1800  36.3838  37.1378  38.5227  39.3182  39.8810

     occupation numbers 
     1.0000   1.0000   1.0000   1.0000   1.0000   1.0000   1.0000   1.0000
     1.0000   1.0000   1.0000   1.0000   1.0000   1.0000   1.0000   1.0000
     1.0000   1.0000   1.0000   1.0000   1.0000   1.0000   1.0000   1.0000
     1.0000   1.0000   0.0000   0.0000   0.0000   0.0000   0.0000   0.0000
     0.0000   0.0000   0.0000   0.0000   0.0000   0.0000   0.0000   0.0000
     0.0000   0.0000   0.0000   0.0000   0.0000   0.0000   0.0000   0.0000
     0.0000   0.0000   0.0000   0.0000   0.0000   0.0000   0.0000   0.0000
     0.0000   0.0000   0.0000   0.0000   0.0000   0.0000   0.0000   0.0000

          k = 0.3333 0.1817 0.6966 (  1350 PWs)   bands (ev):

   -73.6935 -73.6853 -39.4869 -39.4725 -39.4018 -39.3930 -39.1324 -39.1266
   -27.3327  -8.4780  -8.4719  -8.3686   1.9715   2.8375   7.7919   7.8373
     8.7964   9.6808   9.7924  10.5732  11.0935  11.3549  11.5303  12.0242
    12.4835  12.8161  13.5123  13.9839  14.2638  14.6409  17.4644  17.7307
    18.3762  18.5560  19.0282  19.2853  20.0906  20.5490  21.3184  22.9834
    23.1593  23.7099  24.9461  26.6085  27.0369  27.6051  28.7088  29.1712
    29.5840  30.4641  30.5034  31.6398  31.9531  32.9615  33.4405  33.4617
    33.7365  35.2242  36.1800  36.3838  37.1378  38.5227  39.3182  39.8811

     occupation numbers 
     1.0000   1.0000   1.0000   1.0000   1.0000   1.0000   1.0000   1.0000
     1.0000   1.0000   1.0000   1.0000   1.0000   1.0000   1.0000   1.0000
     1.0000   1.0000   1.0000   1.0000   1.0000   1.0000   1.0000   1.0000
     1.0000   1.0000   0.0000   0.0000   0.0000   0.0000   0.0000   0.0000
     0.0000   0.0000   0.0000   0.0000   0.0000   0.0000   0.0000   0.0000
     0.0000   0.0000   0.0000   0.0000   0.0000   0.0000   0.0000   0.0000
     0.0000   0.0000   0.0000   0.0000   0.0000   0.0000   0.0000   0.0000
     0.0000   0.0000   0.0000   0.0000   0.0000   0.0000   0.0000   0.0000

          k = 0.3333 0.1817 0.0000 (  1364 PWs)   bands (ev):

   -73.6993 -73.6832 -39.5122 -39.5121 -39.3702 -39.3702 -39.1508 -39.1286
   -27.3436  -8.4034  -8.3932  -8.3932   0.8202   2.2692   7.4054   9.2427
     9.2427   9.7083  10.2558  10.2558  10.2690  11.8407  12.6773  13.2038
    13.2116  13.2116  13.6645  15.0400  16.1455  16.2106  16.2106  17.0187
    17.3512  18.3113  18.4632  18.4632  19.5613  19.6039  20.6168  20.6168
    21.9157  24.7063  24.8173  25.9056  25.9811  25.9811  27.4593  29.1855
    29.1855  29.3428  30.6330  30.6330  31.2052  31.7496  35.4359  36.2731
    36.2731  36.5459  36.5986  37.2448  37.2448  38.6944  39.0046  39.9662

     occupation numbers 
     1.0000   1.0000   1.0000   1.0000   1.0000   1.0000   1.0000   1.0000
     1.0000   1.0000   1.0000   1.0000   1.0000   1.0000   1.0000   1.0000
     1.0000   1.0000   1.0000   1.0000   1.0000   1.0000   1.0000   1.0000
     1.0000   1.0000   0.0000   0.0000   0.0000   0.0000   0.0000   0.0000
     0.0000   0.0000   0.0000   0.0000   0.0000   0.0000   0.0000   0.0000
     0.0000   0.0000   0.0000   0.0000   0.0000   0.0000   0.0000   0.0000
     0.0000   0.0000   0.0000   0.0000   0.0000   0.0000   0.0000   0.0000
     0.0000   0.0000   0.0000   0.0000   0.0000   0.0000   0.0000   0.0000

          k = 0.3333-0.6117-0.0000 (  1355 PWs)   bands (ev):

   -73.6928 -73.6878 -39.4940 -39.4762 -39.4076 -39.3857 -39.1413 -39.1272
   -27.3328  -8.4811  -8.4696  -8.3655   1.6908   3.2852   7.2266   7.9850
     8.9668   9.4849  10.1478  10.7485  10.8073  11.7148  11.7385  12.0545
    12.1968  12.4796  13.0035  14.0295  14.1168  15.4728  17.3712  17.8256
    17.9460  18.2221  18.5294  18.7819  21.6839  22.0071  22.0550  23.1956
    23.4987  23.9346  24.0583  24.8494  25.0902  26.8730  28.3577  28.9617
    30.3100  30.8703  31.0405  32.0098  32.6187  33.1875  34.1023  34.2486
    34.3951  34.5318  35.9429  36.0383  38.1793  38.3556  38.9937  39.5488

     occupation numbers 
     1.0000   1.0000   1.0000   1.0000   1.0000   1.0000   1.0000   1.0000
     1.0000   1.0000   1.0000   1.0000   1.0000   1.0000   1.0000   1.0000
     1.0000   1.0000   1.0000   1.0000   1.0000   1.0000   1.0000   1.0000
     1.0000   1.0000   0.0000   0.0000   0.0000   0.0000   0.0000   0.0000
     0.0000   0.0000   0.0000   0.0000   0.0000   0.0000   0.0000   0.0000
     0.0000   0.0000   0.0000   0.0000   0.0000   0.0000   0.0000   0.0000
     0.0000   0.0000   0.0000   0.0000   0.0000   0.0000   0.0000   0.0000
     0.0000   0.0000   0.0000   0.0000   0.0000   0.0000   0.0000   0.0000

          k = 0.3333-0.6117 0.6966 (  1356 PWs)   bands (ev):

   -73.6962 -73.6841 -39.4666 -39.4612 -39.4171 -39.4136 -39.1404 -39.1268
   -27.3380  -8.4961  -8.3858  -8.3825   1.9374   2.0037   7.6071   8.8135
     8.8626   9.5029   9.6463  10.4557  10.8692  11.6569  12.0095  12.1575
    12.3086  13.9522  14.0661  14.4167  15.9006  16.1114  16.3787  16.9373
    17.1399  17.3375  17.4986  18.1210  21.7249  22.2632  22.5747  22.5989
    22.7122  22.8434  24.2810  24.7035  25.8358  25.8694  27.2047  27.5825
    30.2988  30.9470  31.6263  32.2451  32.7346  33.3342  33.6679  34.4804
    35.8244  36.3144  36.7989  36.8534  37.7016  37.9020  38.9061  39.2402

     occupation numbers 
     1.0000   1.0000   1.0000   1.0000   1.0000   1.0000   1.0000   1.0000
     1.0000   1.0000   1.0000   1.0000   1.0000   1.0000   1.0000   1.0000
     1.0000   1.0000   1.0000   1.0000   1.0000   1.0000   1.0000   1.0000
     1.0000   1.0000   0.0000   0.0000   0.0000   0.0000   0.0000   0.0000
     0.0000   0.0000   0.0000   0.0000   0.0000   0.0000   0.0000   0.0000
     0.0000   0.0000   0.0000   0.0000   0.0000   0.0000   0.0000   0.0000
     0.0000   0.0000   0.0000   0.0000   0.0000   0.0000   0.0000   0.0000
     0.0000   0.0000   0.0000   0.0000   0.0000   0.0000   0.0000   0.0000

     highest occupied, lowest unoccupied level (ev):    13.9522   13.0035

!    total energy              =    -761.13717021 Ry
     estimated scf accuracy    <       0.00000012 Ry

     The total energy is the sum of the following terms:
     one-electron contribution =    -387.71561907 Ry
     hartree contribution      =     220.06832347 Ry
     xc contribution           =     -90.56437777 Ry
     ewald contribution        =    -350.77926532 Ry
     one-center paw contrib.   =    -152.14623152 Ry
      -> PAW hartree energy AE =       0.00000000 Ry
      -> PAW hartree energy PS =       0.00000000 Ry
      -> PAW xc energy AE      =       0.00000000 Ry
      -> PAW xc energy PS      =       0.00000000 Ry
      -> total E_H with PAW    =     220.06832347 Ry
      -> total E_XC with PAW   =     -90.56437777 Ry

     convergence has been achieved in   9 iterations

     Writing all to output data dir calculations_bands_val/myprefix.save/
 
     init_run     :      4.83s CPU      1.43s WALL (       1 calls)
     electrons    :     18.66s CPU      4.89s WALL (       1 calls)

     Called by init_run:
     wfcinit      :      0.50s CPU      0.13s WALL (       1 calls)
     wfcinit:atom :      0.00s CPU      0.00s WALL (       5 calls)
     wfcinit:wfcr :      0.49s CPU      0.13s WALL (       5 calls)
     potinit      :      1.52s CPU      0.42s WALL (       1 calls)
     hinit0       :      2.32s CPU      0.75s WALL (       1 calls)

     Called by electrons:
     c_bands      :     12.03s CPU      3.14s WALL (       9 calls)
     sum_band     :      2.94s CPU      0.78s WALL (       9 calls)
     v_of_rho     :      0.43s CPU      0.12s WALL (      10 calls)
     v_h          :      0.03s CPU      0.01s WALL (      10 calls)
     v_xc         :      0.40s CPU      0.11s WALL (      10 calls)
     newd         :      0.80s CPU      0.21s WALL (      10 calls)
     PAW_pot      :      2.61s CPU      0.69s WALL (      10 calls)
     mix_rho      :      0.08s CPU      0.02s WALL (       9 calls)

     Called by c_bands:
     init_us_2    :      0.08s CPU      0.02s WALL (      95 calls)
     init_us_2:cp :      0.08s CPU      0.02s WALL (      95 calls)
     cegterg      :     11.38s CPU      2.97s WALL (      45 calls)

     Called by sum_band:
     sum_band:wei :      0.00s CPU      0.00s WALL (       9 calls)
     sum_band:loo :      2.00s CPU      0.52s WALL (       9 calls)
     sum_band:buf :      0.01s CPU      0.00s WALL (      45 calls)
     sum_band:ini :      0.04s CPU      0.01s WALL (      45 calls)
     sum_band:cal :      0.06s CPU      0.02s WALL (      45 calls)
     sum_band:bec :      0.02s CPU      0.00s WALL (      45 calls)
     addusdens    :      0.76s CPU      0.21s WALL (       9 calls)
     addusd:skk   :      0.00s CPU      0.00s WALL (      27 calls)
     addusd:dgemm :      0.11s CPU      0.04s WALL (      27 calls)
     addusd:qvan2 :      0.63s CPU      0.16s WALL (      27 calls)

     Called by *egterg:
     cdiaghg      :      2.31s CPU      0.60s WALL (     144 calls)
     cegterg:over :      0.28s CPU      0.07s WALL (      99 calls)
     cegterg:upda :      0.15s CPU      0.04s WALL (      99 calls)
     cegterg:last :      0.21s CPU      0.06s WALL (      77 calls)
     cdiaghg:chol :      0.16s CPU      0.04s WALL (     144 calls)
     cdiaghg:inve :      0.03s CPU      0.01s WALL (     144 calls)
     cdiaghg:para :      0.40s CPU      0.10s WALL (     288 calls)
     h_psi        :      8.66s CPU      2.26s WALL (     149 calls)
     s_psi        :      0.07s CPU      0.02s WALL (     149 calls)
     g_psi        :      0.01s CPU      0.00s WALL (      99 calls)

     Called by h_psi:
     h_psi:calbec :      0.19s CPU      0.05s WALL (     149 calls)
     vloc_psi     :      8.36s CPU      2.18s WALL (     149 calls)
     add_vuspsi   :      0.09s CPU      0.02s WALL (     149 calls)

     General routines
     calbec       :      0.25s CPU      0.07s WALL (     194 calls)
     fft          :      1.03s CPU      0.27s WALL (     128 calls)
     ffts         :      1.03s CPU      0.29s WALL (      19 calls)
     fftw         :      8.77s CPU      2.29s WALL (   16662 calls)
     interpolate  :      1.05s CPU      0.29s WALL (      10 calls)
 
     Parallel routines

     PAW routines
     PAW_pot      :      2.61s CPU      0.69s WALL (      10 calls)
     PAW_symme    :      0.02s CPU      0.00s WALL (      19 calls)
 
     PWSCF        :     24.54s CPU      6.87s WALL

 
   This run was terminated on:  14:40:51   4Jun2023            

=------------------------------------------------------------------------------=
   JOB DONE.
=------------------------------------------------------------------------------=
