
     Program PWSCF v.7.0 starts on  4Jun2023 at 10:48:37 

     This program is part of the open-source Quantum ESPRESSO suite
     for quantum simulation of materials; please cite
         "P. Giannozzi et al., J. Phys.:Condens. Matter 21 395502 (2009);
         "P. Giannozzi et al., J. Phys.:Condens. Matter 29 465901 (2017);
         "P. Giannozzi et al., J. Chem. Phys. 152 154105 (2020);
          URL http://www.quantum-espresso.org", 
     in publications or presentations arising from this work. More details at
     http://www.quantum-espresso.org/quote

     Parallel version (MPI & OpenMP), running on      32 processor cores
     Number of MPI processes:                 8
     Threads/MPI process:                     4

     MPI processes distributed on     1 nodes
     K-points division:     npool     =       2
     R & G space division:  proc/nbgrp/npool/nimage =       4
     145366 MiB available memory on the printing compute node when the environment starts
 
     Reading input from espresso_97.pwi
Warning: card &CELL ignored
Warning: card / ignored

     Current dimensions of program PWSCF are:
     Max number of different atomic species (ntypx) = 10
     Max number of k-points (npk) =  40000
     Max angular momentum in pseudopotentials (lmaxx) =  4
     Message from routine setup:
     using ibrav=0 with symmetry is DISCOURAGED, use correct ibrav instead

     Subspace diagonalization in iterative solution of the eigenvalue problem:
     one sub-group per band group will be used
     scalapack distributed-memory algorithm (size of sub-group:  2*  2 procs)

 
     Parallelization info
     --------------------
     sticks:   dense  smooth     PW     G-vecs:    dense   smooth      PW
     Min         253     126     37                10015     3542     591
     Max         254     128     38                10018     3545     594
     Sum        1015     507    151                40065    14173    2373
 
     Using Slab Decomposition
 


     bravais-lattice index     =            0
     lattice parameter (alat)  =       7.7705  a.u.
     unit-cell volume          =     637.2577 (a.u.)^3
     number of atoms/cell      =            4
     number of atomic types    =            1
     number of electrons       =        28.00
     number of Kohn-Sham states=           64
     kinetic-energy cutoff     =      30.0000  Ry
     charge density cutoff     =     240.0000  Ry
     scf convergence threshold =      1.0E-06
     mixing beta               =       0.7000
     number of iterations used =            8  plain     mixing
     Exchange-correlation=  SLA  PW   PBX  PBC
                           (   1   4   3   4   0   0   0)

     celldm(1)=   7.770540  celldm(2)=   0.000000  celldm(3)=   0.000000
     celldm(4)=   0.000000  celldm(5)=   0.000000  celldm(6)=   0.000000

     crystal axes: (cart. coord. in units of alat)
               a(1) = (   1.000000   0.000000   0.000000 )  
               a(2) = (  -0.482384   0.875960   0.000000 )  
               a(3) = (   0.000000   0.000000   1.550520 )  

     reciprocal axes: (cart. coord. in units 2 pi/alat)
               b(1) = (  1.000000  0.550692  0.000000 )  
               b(2) = (  0.000000  1.141605  0.000000 )  
               b(3) = (  0.000000  0.000000  0.644945 )  


     PseudoPot. # 1 for F  read from file:
     /home/pragov/projects/rrg-bengioy-ad/pragov/crystal_structure_design/SSSP/f_pbe_v1.4.uspp.F.UPF
     MD5 check sum: 4c38b6a325caf53ec0e86aed9459de46
     Pseudo is Ultrasoft, Zval =  7.0
     Generated by new atomic code, or converted to UPF format
     Using radial grid of  799 points,  4 beta functions with: 
                l(1) =   0
                l(2) =   0
                l(3) =   1
                l(4) =   1
     Q(r) pseudized with  8 coefficients,  rinner =    0.950   0.950   0.950


     atomic species   valence    mass     pseudopotential
        F              7.00    18.99840     F ( 1.00)

      4 Sym. Ops., with inversion, found ( 2 have fractional translation)


                                    s                        frac. trans.

      isym =  1     identity                                     

 cryst.   s( 1) = (     1          0          0      )
                  (     0          1          0      )
                  (     0          0          1      )

 cart.    s( 1) = (  1.0000000  0.0000000  0.0000000 )
                  (  0.0000000  1.0000000  0.0000000 )
                  (  0.0000000  0.0000000  1.0000000 )


      isym =  2     180 deg rotation - cart. axis [0,0,1]        

 cryst.   s( 2) = (    -1          0          0      )    f =( -0.5000000 )
                  (     0         -1          0      )       (  0.5000000 )
                  (     0          0          1      )       ( -0.5000000 )

 cart.    s( 2) = ( -1.0000000 -0.0000000  0.0000000 )    f =( -0.7411921 )
                  (  0.0000000 -1.0000000  0.0000000 )       (  0.4379799 )
                  (  0.0000000  0.0000000  1.0000000 )       ( -0.7752599 )


      isym =  3     inversion                                    

 cryst.   s( 3) = (    -1          0          0      )
                  (     0         -1          0      )
                  (     0          0         -1      )

 cart.    s( 3) = ( -1.0000000 -0.0000000  0.0000000 )
                  (  0.0000000 -1.0000000  0.0000000 )
                  (  0.0000000  0.0000000 -1.0000000 )


      isym =  4     inv. 180 deg rotation - cart. axis [0,0,1]   

 cryst.   s( 4) = (     1          0          0      )    f =(  0.5000000 )
                  (     0          1          0      )       ( -0.5000000 )
                  (     0          0         -1      )       (  0.5000000 )

 cart.    s( 4) = (  1.0000000  0.0000000  0.0000000 )    f =(  0.7411921 )
                  (  0.0000000  1.0000000  0.0000000 )       ( -0.4379799 )
                  (  0.0000000  0.0000000 -1.0000000 )       (  0.7752599 )


   Cartesian axes

     site n.     atom                  positions (alat units)
         1           F   tau(   1) = (   0.0452696   0.0766097   0.1488700  )
         2           F   tau(   2) = (   0.2135383   0.3613702   0.9241299  )
         3           F   tau(   3) = (   0.3040776   0.5145896   0.6263898  )
         4           F   tau(   4) = (   0.4723462   0.7993501   1.4016497  )

   Crystallographic axes

     site n.     atom                  positions (cryst. coord.)
         1           F   tau(   1) = (  0.0874580  0.0874580  0.0960130  )
         2           F   tau(   2) = (  0.4125420  0.4125420  0.5960130  )
         3           F   tau(   3) = (  0.5874580  0.5874580  0.4039870  )
         4           F   tau(   4) = (  0.9125420  0.9125420  0.9039870  )

     number of k points=    10
                       cart. coord. in units 2pi/alat
        k(    1) = (   0.0000000   0.0000000   0.0000000), wk =   0.0740741
        k(    2) = (   0.0000000   0.0000000   0.2149817), wk =   0.1481481
        k(    3) = (   0.0000000   0.3805350   0.0000000), wk =   0.1481481
        k(    4) = (   0.0000000   0.3805350   0.2149817), wk =   0.2962963
        k(    5) = (   0.3333333   0.1835641   0.0000000), wk =   0.1481481
        k(    6) = (   0.3333333   0.1835641   0.2149817), wk =   0.2962963
        k(    7) = (   0.3333333   0.5640990   0.0000000), wk =   0.1481481
        k(    8) = (   0.3333333   0.5640990   0.2149817), wk =   0.2962963
        k(    9) = (   0.3333333  -0.1969709   0.0000000), wk =   0.1481481
        k(   10) = (   0.3333333  -0.1969709   0.2149817), wk =   0.2962963

                       cryst. coord.
        k(    1) = (   0.0000000   0.0000000   0.0000000), wk =   0.0740741
        k(    2) = (   0.0000000   0.0000000   0.3333333), wk =   0.1481481
        k(    3) = (   0.0000000   0.3333333   0.0000000), wk =   0.1481481
        k(    4) = (   0.0000000   0.3333333   0.3333333), wk =   0.2962963
        k(    5) = (   0.3333333  -0.0000000   0.0000000), wk =   0.1481481
        k(    6) = (   0.3333333  -0.0000000   0.3333333), wk =   0.2962963
        k(    7) = (   0.3333333   0.3333333   0.0000000), wk =   0.1481481
        k(    8) = (   0.3333333   0.3333333   0.3333333), wk =   0.2962963
        k(    9) = (   0.3333333  -0.3333333   0.0000000), wk =   0.1481481
        k(   10) = (   0.3333333  -0.3333333   0.3333333), wk =   0.2962963

     Dense  grid:    40065 G-vectors     FFT dimensions: (  40,  40,  60)

     Smooth grid:    14173 G-vectors     FFT dimensions: (  30,  30,  48)

     Dynamical RAM for                 wfc:       0.43 MB

     Dynamical RAM for     wfc (w. buffer):       2.59 MB

     Dynamical RAM for           str. fact:       0.15 MB

     Dynamical RAM for           local pot:       0.00 MB

     Dynamical RAM for          nlocal pot:       0.22 MB

     Dynamical RAM for                qrad:       0.36 MB

     Dynamical RAM for          rho,v,vnew:       1.01 MB

     Dynamical RAM for               rhoin:       0.34 MB

     Dynamical RAM for            rho*nmix:       2.45 MB

     Dynamical RAM for           G-vectors:       0.60 MB

     Dynamical RAM for          h,s,v(r/c):       0.19 MB

     Dynamical RAM for          <psi|beta>:       0.03 MB

     Dynamical RAM for                 psi:       0.86 MB

     Dynamical RAM for                hpsi:       0.86 MB

     Dynamical RAM for                spsi:       0.86 MB

     Dynamical RAM for      wfcinit/wfcrot:       0.96 MB

     Dynamical RAM for           addusdens:       3.67 MB

     Estimated static dynamical RAM per process >       6.48 MB

     Estimated max dynamical RAM per process >      12.59 MB

     Estimated total dynamical RAM >      90.97 MB

     Initial potential from superposition of free atoms
     Starting wfcs are   16 randomized atomic wfcs +   48 random wfcs

     total cpu time spent up to now is        1.2 secs

     Self-consistent Calculation

     iteration #  1     ecut=    30.00 Ry     beta= 0.70
     Davidson diagonalization with overlap

---- Real-time Memory Report at c_bands before calling an iterative solver
           174 MiB given to the printing process from OS
             0 MiB allocation reported by mallinfo(arena+hblkhd)
        144838 MiB available memory on the node where the printing process lives
------------------
     ethr =  1.00E-02,  avg # of iterations =  6.9

     Threshold (ethr) on eigenvalues was too large:
     Diagonalizing with lowered threshold

     Davidson diagonalization with overlap

---- Real-time Memory Report at c_bands before calling an iterative solver
           199 MiB given to the printing process from OS
             0 MiB allocation reported by mallinfo(arena+hblkhd)
        144632 MiB available memory on the node where the printing process lives
------------------
     ethr =  9.49E-04,  avg # of iterations =  1.0

     total cpu time spent up to now is        2.8 secs

     total energy              =    -193.75937179 Ry
     estimated scf accuracy    <       0.26538795 Ry

     iteration #  2     ecut=    30.00 Ry     beta= 0.70
     Davidson diagonalization with overlap

---- Real-time Memory Report at c_bands before calling an iterative solver
           205 MiB given to the printing process from OS
             0 MiB allocation reported by mallinfo(arena+hblkhd)
        144587 MiB available memory on the node where the printing process lives
------------------
     ethr =  9.48E-04,  avg # of iterations =  1.0

     total cpu time spent up to now is        3.6 secs

     total energy              =    -193.77242164 Ry
     estimated scf accuracy    <       0.01572607 Ry

     iteration #  3     ecut=    30.00 Ry     beta= 0.70
     Davidson diagonalization with overlap

---- Real-time Memory Report at c_bands before calling an iterative solver
           205 MiB given to the printing process from OS
             0 MiB allocation reported by mallinfo(arena+hblkhd)
        144579 MiB available memory on the node where the printing process lives
------------------
     ethr =  5.62E-05,  avg # of iterations =  1.0

     total cpu time spent up to now is        4.0 secs

     total energy              =    -193.77327625 Ry
     estimated scf accuracy    <       0.00101972 Ry

     iteration #  4     ecut=    30.00 Ry     beta= 0.70
     Davidson diagonalization with overlap

---- Real-time Memory Report at c_bands before calling an iterative solver
           205 MiB given to the printing process from OS
             0 MiB allocation reported by mallinfo(arena+hblkhd)
        144575 MiB available memory on the node where the printing process lives
------------------
     ethr =  3.64E-06,  avg # of iterations =  2.6

     total cpu time spent up to now is        4.6 secs

     total energy              =    -193.77350054 Ry
     estimated scf accuracy    <       0.00007494 Ry

     iteration #  5     ecut=    30.00 Ry     beta= 0.70
     Davidson diagonalization with overlap

---- Real-time Memory Report at c_bands before calling an iterative solver
           205 MiB given to the printing process from OS
             0 MiB allocation reported by mallinfo(arena+hblkhd)
        144579 MiB available memory on the node where the printing process lives
------------------
     ethr =  2.68E-07,  avg # of iterations =  1.3

     total cpu time spent up to now is        5.0 secs

     total energy              =    -193.77351608 Ry
     estimated scf accuracy    <       0.00000110 Ry

     iteration #  6     ecut=    30.00 Ry     beta= 0.70
     Davidson diagonalization with overlap

---- Real-time Memory Report at c_bands before calling an iterative solver
           205 MiB given to the printing process from OS
             0 MiB allocation reported by mallinfo(arena+hblkhd)
        144580 MiB available memory on the node where the printing process lives
------------------
     ethr =  3.92E-09,  avg # of iterations =  1.0

     total cpu time spent up to now is        5.3 secs

     End of self-consistent calculation

          k = 0.0000 0.0000 0.0000 (  1777 PWs)   bands (ev):

   -30.2256 -30.1451 -24.1932 -24.0154 -11.7685 -11.4598  -9.0561  -9.0206
    -8.9454  -8.9171  -6.0272  -5.8135  -5.7151  -5.6565  -2.5324  -2.1616
     2.6220   5.8109   6.5751  11.5672  12.3921  12.4197  13.5400  13.6101
    13.7709  14.3916  15.0034  15.2722  15.7572  15.9420  16.2035  16.8501
    16.9317  17.1149  18.6614  19.9637  20.1141  22.7482  23.4873  24.1053
    25.1440  25.4903  25.6454  25.9914  26.8098  27.6803  27.9152  28.7780
    28.8319  30.1088  31.2697  31.3271  33.3716  33.5529  33.7367  33.9579
    34.6145  34.6317  34.7266  36.3687  36.8632  37.3287  37.5805  38.0611

     occupation numbers 
     1.0000   1.0000   1.0000   1.0000   1.0000   1.0000   1.0000   1.0000
     1.0000   1.0000   1.0000   1.0000   1.0000   1.0000   0.0000   0.0000
     0.0000   0.0000   0.0000   0.0000   0.0000   0.0000   0.0000   0.0000
     0.0000   0.0000   0.0000   0.0000   0.0000   0.0000   0.0000   0.0000
     0.0000   0.0000   0.0000   0.0000   0.0000   0.0000   0.0000   0.0000
     0.0000   0.0000   0.0000   0.0000   0.0000   0.0000   0.0000   0.0000
     0.0000   0.0000   0.0000   0.0000   0.0000   0.0000   0.0000   0.0000
     0.0000   0.0000   0.0000   0.0000   0.0000   0.0000   0.0000   0.0000

          k = 0.0000 0.0000 0.2150 (  1765 PWs)   bands (ev):

   -30.2051 -30.1657 -24.1488 -24.0594 -11.6971 -11.5435  -9.0118  -8.9905
    -8.9548  -8.9402  -5.9415  -5.7901  -5.7548  -5.7334  -2.4647  -2.2818
     3.0969   4.3294   8.6194  11.4263  11.8252  12.3673  12.7185  13.3020
    13.4592  13.6014  15.3552  15.4588  15.5221  15.5910  16.9249  17.1025
    17.7984  18.4770  19.6903  20.8022  20.8858  21.6859  21.9166  22.2193
    22.9298  23.6329  25.2124  26.5051  27.5358  28.4723  30.3109  30.4366
    30.7180  31.3300  31.4505  31.8014  32.9276  33.4220  33.9860  34.1675
    34.2737  34.7324  34.9767  36.0926  36.6118  36.8857  36.9348  37.1895

     occupation numbers 
     1.0000   1.0000   1.0000   1.0000   1.0000   1.0000   1.0000   1.0000
     1.0000   1.0000   1.0000   1.0000   1.0000   1.0000   0.0000   0.0000
     0.0000   0.0000   0.0000   0.0000   0.0000   0.0000   0.0000   0.0000
     0.0000   0.0000   0.0000   0.0000   0.0000   0.0000   0.0000   0.0000
     0.0000   0.0000   0.0000   0.0000   0.0000   0.0000   0.0000   0.0000
     0.0000   0.0000   0.0000   0.0000   0.0000   0.0000   0.0000   0.0000
     0.0000   0.0000   0.0000   0.0000   0.0000   0.0000   0.0000   0.0000
     0.0000   0.0000   0.0000   0.0000   0.0000   0.0000   0.0000   0.0000

          k = 0.0000 0.3805 0.0000 (  1770 PWs)   bands (ev):

   -30.1991 -30.1589 -24.1525 -24.0632 -11.7073 -11.5460  -9.1119  -9.0684
    -9.0036  -8.9791  -5.8933  -5.8122  -5.7546  -5.7134  -2.4342  -2.2323
     4.0577   7.0586   7.5297   7.5372   9.9283  10.3366  12.3046  12.6599
    13.8724  14.6980  15.3310  15.3582  16.9193  16.9706  18.3494  19.0673
    19.4527  20.2213  20.5422  21.1766  21.2760  22.4378  22.7687  23.0369
    23.7000  23.7846  25.2077  26.0062  27.0538  27.7316  28.0619  29.0819
    29.4120  30.0030  30.0538  30.7225  31.1673  31.5549  33.2786  33.6703
    34.0340  34.1198  34.6956  34.9088  35.0494  35.7166  36.0450  37.8077

     occupation numbers 
     1.0000   1.0000   1.0000   1.0000   1.0000   1.0000   1.0000   1.0000
     1.0000   1.0000   1.0000   1.0000   1.0000   1.0000   0.0000   0.0000
     0.0000   0.0000   0.0000   0.0000   0.0000   0.0000   0.0000   0.0000
     0.0000   0.0000   0.0000   0.0000   0.0000   0.0000   0.0000   0.0000
     0.0000   0.0000   0.0000   0.0000   0.0000   0.0000   0.0000   0.0000
     0.0000   0.0000   0.0000   0.0000   0.0000   0.0000   0.0000   0.0000
     0.0000   0.0000   0.0000   0.0000   0.0000   0.0000   0.0000   0.0000
     0.0000   0.0000   0.0000   0.0000   0.0000   0.0000   0.0000   0.0000

          k = 0.0000 0.3805 0.2150 (  1772 PWs)   bands (ev):

   -30.1892 -30.1692 -24.1303 -24.0860 -11.6574 -11.5761  -9.1290  -9.0913
    -9.0064  -8.9901  -5.8324  -5.7976  -5.7747  -5.7370  -2.3878  -2.2883
     4.4489   5.5645   7.7709   8.6989   9.6134  11.4916  11.8902  12.6067
    13.3771  14.0678  14.8149  16.4075  16.8233  17.0377  17.8991  18.7138
    19.2132  19.8995  20.2425  21.1615  21.4726  22.0898  23.0496  23.7507
    24.6897  25.7269  26.0790  26.5637  26.8108  27.6634  27.8599  28.3743
    28.8990  29.1894  29.5725  30.3822  30.9186  31.7460  31.9408  33.2640
    33.5034  33.9290  34.1107  35.3010  35.4058  35.6418  36.3627  36.8236

     occupation numbers 
     1.0000   1.0000   1.0000   1.0000   1.0000   1.0000   1.0000   1.0000
     1.0000   1.0000   1.0000   1.0000   1.0000   1.0000   0.0000   0.0000
     0.0000   0.0000   0.0000   0.0000   0.0000   0.0000   0.0000   0.0000
     0.0000   0.0000   0.0000   0.0000   0.0000   0.0000   0.0000   0.0000
     0.0000   0.0000   0.0000   0.0000   0.0000   0.0000   0.0000   0.0000
     0.0000   0.0000   0.0000   0.0000   0.0000   0.0000   0.0000   0.0000
     0.0000   0.0000   0.0000   0.0000   0.0000   0.0000   0.0000   0.0000
     0.0000   0.0000   0.0000   0.0000   0.0000   0.0000   0.0000   0.0000

          k = 0.3333 0.1836 0.0000 (  1770 PWs)   bands (ev):

   -30.1991 -30.1589 -24.1525 -24.0632 -11.7073 -11.5460  -9.1119  -9.0684
    -9.0036  -8.9791  -5.8933  -5.8122  -5.7546  -5.7134  -2.4342  -2.2323
     4.0577   7.0586   7.5297   7.5372   9.9283  10.3366  12.3046  12.6599
    13.8724  14.6980  15.3310  15.3582  16.9193  16.9706  18.3494  19.0673
    19.4527  20.2213  20.5422  21.1766  21.2760  22.4378  22.7687  23.0369
    23.7000  23.7846  25.2077  26.0062  27.0538  27.7316  28.0619  29.0819
    29.4120  30.0030  30.0538  30.7225  31.1673  31.5549  33.2786  33.6703
    34.0340  34.1198  34.6956  34.9088  35.0494  35.7166  36.0450  37.8071

     occupation numbers 
     1.0000   1.0000   1.0000   1.0000   1.0000   1.0000   1.0000   1.0000
     1.0000   1.0000   1.0000   1.0000   1.0000   1.0000   0.0000   0.0000
     0.0000   0.0000   0.0000   0.0000   0.0000   0.0000   0.0000   0.0000
     0.0000   0.0000   0.0000   0.0000   0.0000   0.0000   0.0000   0.0000
     0.0000   0.0000   0.0000   0.0000   0.0000   0.0000   0.0000   0.0000
     0.0000   0.0000   0.0000   0.0000   0.0000   0.0000   0.0000   0.0000
     0.0000   0.0000   0.0000   0.0000   0.0000   0.0000   0.0000   0.0000
     0.0000   0.0000   0.0000   0.0000   0.0000   0.0000   0.0000   0.0000

          k = 0.3333 0.1836 0.2150 (  1772 PWs)   bands (ev):

   -30.1892 -30.1692 -24.1303 -24.0860 -11.6574 -11.5761  -9.1290  -9.0913
    -9.0064  -8.9901  -5.8324  -5.7976  -5.7747  -5.7370  -2.3878  -2.2883
     4.4489   5.5645   7.7709   8.6989   9.6134  11.4916  11.8902  12.6067
    13.3771  14.0678  14.8149  16.4075  16.8233  17.0377  17.8991  18.7138
    19.2132  19.8995  20.2425  21.1615  21.4726  22.0898  23.0496  23.7507
    24.6897  25.7269  26.0790  26.5637  26.8108  27.6634  27.8599  28.3743
    28.8990  29.1894  29.5725  30.3822  30.9186  31.7460  31.9408  33.2640
    33.5034  33.9290  34.1107  35.3010  35.4058  35.6418  36.3626  36.8233

     occupation numbers 
     1.0000   1.0000   1.0000   1.0000   1.0000   1.0000   1.0000   1.0000
     1.0000   1.0000   1.0000   1.0000   1.0000   1.0000   0.0000   0.0000
     0.0000   0.0000   0.0000   0.0000   0.0000   0.0000   0.0000   0.0000
     0.0000   0.0000   0.0000   0.0000   0.0000   0.0000   0.0000   0.0000
     0.0000   0.0000   0.0000   0.0000   0.0000   0.0000   0.0000   0.0000
     0.0000   0.0000   0.0000   0.0000   0.0000   0.0000   0.0000   0.0000
     0.0000   0.0000   0.0000   0.0000   0.0000   0.0000   0.0000   0.0000
     0.0000   0.0000   0.0000   0.0000   0.0000   0.0000   0.0000   0.0000

          k = 0.3333 0.5641 0.0000 (  1769 PWs)   bands (ev):

   -30.1951 -30.1574 -24.1471 -24.0670 -11.6909 -11.5584  -9.1577  -9.1161
    -9.0299  -9.0004  -5.9047  -5.8862  -5.7148  -5.7060  -2.3865  -2.2589
     5.8547   6.4723   7.5420   8.6783   9.0892   9.2319  10.3128  11.5642
    11.7735  16.2253  16.7373  17.3052  17.9214  18.2898  18.6064  19.5240
    19.7749  19.7770  19.9137  20.0612  20.4419  22.3591  22.8810  24.5814
    25.7609  26.0708  26.3243  26.7019  26.9485  27.1676  28.4132  28.8804
    29.0611  29.5485  29.9475  30.3087  30.6060  30.8001  31.4322  31.6408
    31.8306  32.0943  33.6010  33.7244  34.7134  34.8552  36.0351  36.6765

     occupation numbers 
     1.0000   1.0000   1.0000   1.0000   1.0000   1.0000   1.0000   1.0000
     1.0000   1.0000   1.0000   1.0000   1.0000   1.0000   0.0000   0.0000
     0.0000   0.0000   0.0000   0.0000   0.0000   0.0000   0.0000   0.0000
     0.0000   0.0000   0.0000   0.0000   0.0000   0.0000   0.0000   0.0000
     0.0000   0.0000   0.0000   0.0000   0.0000   0.0000   0.0000   0.0000
     0.0000   0.0000   0.0000   0.0000   0.0000   0.0000   0.0000   0.0000
     0.0000   0.0000   0.0000   0.0000   0.0000   0.0000   0.0000   0.0000
     0.0000   0.0000   0.0000   0.0000   0.0000   0.0000   0.0000   0.0000

          k = 0.3333 0.5641 0.2150 (  1771 PWs)   bands (ev):

   -30.1858 -30.1669 -24.1273 -24.0876 -11.6500 -11.5797  -9.1230  -9.1169
    -9.0747  -9.0398  -5.8395  -5.8393  -5.7600  -5.7394  -2.3566  -2.2923
     6.1906   6.7692   7.1907   7.4362   8.7183   9.4853  11.2929  12.8239
    13.3425  14.4079  15.4534  15.7149  17.3113  17.5695  17.7794  18.0576
    20.0817  21.2144  21.4745  22.1006  22.9657  23.0495  24.2112  24.5951
    25.2544  25.6204  26.1491  26.4399  26.5579  27.1362  27.3969  27.9177
    27.9659  29.0248  29.2157  30.0592  30.1915  31.2364  31.6215  32.3111
    32.3946  32.7686  33.3715  33.5189  34.3312  34.9832  35.2359  35.8418

     occupation numbers 
     1.0000   1.0000   1.0000   1.0000   1.0000   1.0000   1.0000   1.0000
     1.0000   1.0000   1.0000   1.0000   1.0000   1.0000   0.0000   0.0000
     0.0000   0.0000   0.0000   0.0000   0.0000   0.0000   0.0000   0.0000
     0.0000   0.0000   0.0000   0.0000   0.0000   0.0000   0.0000   0.0000
     0.0000   0.0000   0.0000   0.0000   0.0000   0.0000   0.0000   0.0000
     0.0000   0.0000   0.0000   0.0000   0.0000   0.0000   0.0000   0.0000
     0.0000   0.0000   0.0000   0.0000   0.0000   0.0000   0.0000   0.0000
     0.0000   0.0000   0.0000   0.0000   0.0000   0.0000   0.0000   0.0000

          k = 0.3333-0.1970 0.0000 (  1784 PWs)   bands (ev):

   -30.2187 -30.1411 -24.1872 -24.0182 -11.7534 -11.4646  -9.1924  -9.0914
    -8.9894  -8.9531  -6.0367  -5.9040  -5.6859  -5.6594  -2.4803  -2.1776
     4.1045   7.1954   7.4314   8.0620   9.7565  11.1579  11.5615  12.3257
    13.3127  15.0982  15.1645  15.3899  16.6962  16.7129  18.0312  18.5513
    20.0078  20.4051  20.6497  20.7928  20.8235  22.7678  23.7123  23.8001
    24.0731  24.7381  26.0859  26.3058  26.4547  26.8857  27.8862  28.2519
    29.5656  29.7064  30.0161  30.7770  31.7770  32.1965  32.5530  33.3818
    33.9221  34.3852  34.5642  34.7310  35.3624  36.1917  36.4054  36.6489

     occupation numbers 
     1.0000   1.0000   1.0000   1.0000   1.0000   1.0000   1.0000   1.0000
     1.0000   1.0000   1.0000   1.0000   1.0000   1.0000   0.0000   0.0000
     0.0000   0.0000   0.0000   0.0000   0.0000   0.0000   0.0000   0.0000
     0.0000   0.0000   0.0000   0.0000   0.0000   0.0000   0.0000   0.0000
     0.0000   0.0000   0.0000   0.0000   0.0000   0.0000   0.0000   0.0000
     0.0000   0.0000   0.0000   0.0000   0.0000   0.0000   0.0000   0.0000
     0.0000   0.0000   0.0000   0.0000   0.0000   0.0000   0.0000   0.0000
     0.0000   0.0000   0.0000   0.0000   0.0000   0.0000   0.0000   0.0000

          k = 0.3333-0.1970 0.2150 (  1766 PWs)   bands (ev):

   -30.1995 -30.1605 -24.1446 -24.0602 -11.6852 -11.5439  -9.1476  -9.0455
    -9.0355  -8.9655  -5.9454  -5.8437  -5.7560  -5.7364  -2.4167  -2.2687
     4.5096   5.6191   8.3763   8.8982  10.0128  11.3126  11.7994  12.0893
    12.2666  13.4549  15.3032  16.6617  16.7055  17.4534  17.8138  18.4984
    19.8809  19.9975  20.2039  20.4203  22.0635  22.8020  23.1279  24.2131
    24.4308  25.3838  25.6042  25.9193  25.9872  28.0118  28.4265  28.4777
    29.5303  29.7660  30.5846  30.6489  31.1365  31.9031  32.3100  32.6377
    33.1501  33.8379  34.1223  34.2990  35.3941  35.5486  36.6534  36.9373

     occupation numbers 
     1.0000   1.0000   1.0000   1.0000   1.0000   1.0000   1.0000   1.0000
     1.0000   1.0000   1.0000   1.0000   1.0000   1.0000   0.0000   0.0000
     0.0000   0.0000   0.0000   0.0000   0.0000   0.0000   0.0000   0.0000
     0.0000   0.0000   0.0000   0.0000   0.0000   0.0000   0.0000   0.0000
     0.0000   0.0000   0.0000   0.0000   0.0000   0.0000   0.0000   0.0000
     0.0000   0.0000   0.0000   0.0000   0.0000   0.0000   0.0000   0.0000
     0.0000   0.0000   0.0000   0.0000   0.0000   0.0000   0.0000   0.0000
     0.0000   0.0000   0.0000   0.0000   0.0000   0.0000   0.0000   0.0000

     highest occupied, lowest unoccupied level (ev):    -5.6565   -2.5324

!    total energy              =    -193.77351627 Ry
     estimated scf accuracy    <          4.9E-09 Ry

     The total energy is the sum of the following terms:
     one-electron contribution =    -167.97156670 Ry
     hartree contribution      =      93.64271836 Ry
     xc contribution           =     -36.51898944 Ry
     ewald contribution        =     -82.92567849 Ry

     convergence has been achieved in   6 iterations

     Writing all to output data dir calculations_bands_val/myprefix.save/
 
     init_run     :      3.33s CPU      1.07s WALL (       1 calls)
     electrons    :     15.75s CPU      4.21s WALL (       1 calls)

     Called by init_run:
     wfcinit      :      0.40s CPU      0.11s WALL (       1 calls)
     wfcinit:atom :      0.00s CPU      0.00s WALL (       5 calls)
     wfcinit:wfcr :      0.37s CPU      0.10s WALL (       5 calls)
     potinit      :      1.07s CPU      0.28s WALL (       1 calls)
     hinit0       :      1.49s CPU      0.51s WALL (       1 calls)

     Called by electrons:
     c_bands      :     12.31s CPU      3.27s WALL (       7 calls)
     sum_band     :      2.64s CPU      0.70s WALL (       7 calls)
     v_of_rho     :      0.35s CPU      0.10s WALL (       7 calls)
     v_h          :      0.06s CPU      0.02s WALL (       7 calls)
     v_xc         :      0.29s CPU      0.08s WALL (       7 calls)
     newd         :      0.37s CPU      0.10s WALL (       7 calls)
     mix_rho      :      0.18s CPU      0.05s WALL (       7 calls)

     Called by c_bands:
     init_us_2    :      0.03s CPU      0.01s WALL (      75 calls)
     init_us_2:cp :      0.03s CPU      0.01s WALL (      75 calls)
     cegterg      :     10.74s CPU      2.85s WALL (      35 calls)

     Called by sum_band:
     sum_band:wei :      0.00s CPU      0.00s WALL (       7 calls)
     sum_band:loo :      2.25s CPU      0.59s WALL (       7 calls)
     sum_band:buf :      0.01s CPU      0.00s WALL (      35 calls)
     sum_band:ini :      0.01s CPU      0.00s WALL (      35 calls)
     sum_band:cal :      0.05s CPU      0.01s WALL (      35 calls)
     sum_band:bec :      0.01s CPU      0.00s WALL (      35 calls)
     addusdens    :      0.10s CPU      0.03s WALL (       7 calls)
     addusd:skk   :      0.00s CPU      0.00s WALL (       7 calls)
     addusd:dgemm :      0.01s CPU      0.01s WALL (       7 calls)
     addusd:qvan2 :      0.04s CPU      0.01s WALL (       7 calls)

     Called by *egterg:
     cdiaghg      :      1.98s CPU      0.53s WALL (     102 calls)
     cegterg:over :      0.33s CPU      0.09s WALL (      72 calls)
     cegterg:upda :      0.16s CPU      0.04s WALL (      72 calls)
     cegterg:last :      0.20s CPU      0.05s WALL (      56 calls)
     cdiaghg:chol :      0.13s CPU      0.04s WALL (     102 calls)
     cdiaghg:inve :      0.03s CPU      0.01s WALL (     102 calls)
     cdiaghg:para :      0.39s CPU      0.10s WALL (     204 calls)
     h_psi        :      8.15s CPU      2.17s WALL (     112 calls)
     s_psi        :      0.03s CPU      0.01s WALL (     112 calls)
     g_psi        :      0.01s CPU      0.00s WALL (      72 calls)

     Called by h_psi:
     h_psi:calbec :      0.14s CPU      0.04s WALL (     112 calls)
     vloc_psi     :      7.94s CPU      2.11s WALL (     112 calls)
     add_vuspsi   :      0.05s CPU      0.01s WALL (     112 calls)

     General routines
     calbec       :      0.19s CPU      0.05s WALL (     147 calls)
     fft          :      1.61s CPU      0.53s WALL (      89 calls)
     ffts         :      0.76s CPU      0.20s WALL (      14 calls)
     fftw         :      9.02s CPU      2.40s WALL (   13432 calls)
     interpolate  :      0.77s CPU      0.20s WALL (       7 calls)
 
     Parallel routines
 
     PWSCF        :     20.83s CPU      6.24s WALL

 
   This run was terminated on:  10:48:43   4Jun2023            

=------------------------------------------------------------------------------=
   JOB DONE.
=------------------------------------------------------------------------------=
