
     Program PWSCF v.7.0 starts on  4Jun2023 at 12:55:30 

     This program is part of the open-source Quantum ESPRESSO suite
     for quantum simulation of materials; please cite
         "P. Giannozzi et al., J. Phys.:Condens. Matter 21 395502 (2009);
         "P. Giannozzi et al., J. Phys.:Condens. Matter 29 465901 (2017);
         "P. Giannozzi et al., J. Chem. Phys. 152 154105 (2020);
          URL http://www.quantum-espresso.org", 
     in publications or presentations arising from this work. More details at
     http://www.quantum-espresso.org/quote

     Parallel version (MPI & OpenMP), running on      32 processor cores
     Number of MPI processes:                 8
     Threads/MPI process:                     4

     MPI processes distributed on     1 nodes
     K-points division:     npool     =       2
     R & G space division:  proc/nbgrp/npool/nimage =       4
     142202 MiB available memory on the printing compute node when the environment starts
 
     Reading input from espresso_504.pwi
Warning: card &CELL ignored
Warning: card / ignored

     Current dimensions of program PWSCF are:
     Max number of different atomic species (ntypx) = 10
     Max number of k-points (npk) =  40000
     Max angular momentum in pseudopotentials (lmaxx) =  4

     Subspace diagonalization in iterative solution of the eigenvalue problem:
     one sub-group per band group will be used
     scalapack distributed-memory algorithm (size of sub-group:  2*  2 procs)

 
     Parallelization info
     --------------------
     sticks:   dense  smooth     PW     G-vecs:    dense   smooth      PW
     Min         573     288     90                37287    13214    2317
     Max         574     289     91                37290    13217    2320
     Sum        2295    1155    363               149157    52863    9273
 
     Using Slab Decomposition
 


     bravais-lattice index     =            0
     lattice parameter (alat)  =      18.7456  a.u.
     unit-cell volume          =    2376.2505 (a.u.)^3
     number of atoms/cell      =           15
     number of atomic types    =            3
     number of electrons       =       126.00
     number of Kohn-Sham states=           64
     kinetic-energy cutoff     =      30.0000  Ry
     charge density cutoff     =     240.0000  Ry
     scf convergence threshold =      1.0E-06
     mixing beta               =       0.7000
     number of iterations used =            8  plain     mixing
     Exchange-correlation= SLA  PW   PBE  PBE
                           (   1   4   3   4   0   0   0)

     celldm(1)=  18.745628  celldm(2)=   0.000000  celldm(3)=   0.000000
     celldm(4)=   0.000000  celldm(5)=   0.000000  celldm(6)=   0.000000

     crystal axes: (cart. coord. in units of alat)
               a(1) = (   1.000000   0.000000   0.000000 )  
               a(2) = (   0.939866   0.341544   0.000000 )  
               a(3) = (   0.084755   0.014922   1.056200 )  

     reciprocal axes: (cart. coord. in units 2 pi/alat)
               b(1) = (  1.000000 -2.751819 -0.041366 )  
               b(2) = (  0.000000  2.927884 -0.041366 )  
               b(3) = (  0.000000  0.000000  0.946790 )  


     PseudoPot. # 1 for Ta read from file:
     /home/pragov/projects/rrg-bengioy-ad/pragov/crystal_structure_design/SSSP/Ta_pbe_v1.uspp.F.UPF
     MD5 check sum: f8bbe9446314a3b8ea5d9f3e3836c939
     Pseudo is Ultrasoft + core correction, Zval = 13.0
     Generated by new atomic code, or converted to UPF format
     Using radial grid of  921 points,  7 beta functions with: 
                l(1) =   0
                l(2) =   0
                l(3) =   1
                l(4) =   1
                l(5) =   2
                l(6) =   2
                l(7) =   3
     Q(r) pseudized with  6 coefficients,  rinner =    1.300   1.300   1.300
                                                       1.300   1.300   1.300
                                                       1.300

     PseudoPot. # 2 for Mo read from file:
     /home/pragov/projects/rrg-bengioy-ad/pragov/crystal_structure_design/SSSP/Mo_ONCV_PBE-1.0.oncvpsp.upf
     MD5 check sum: 1b5d28e075c9ccadda658a603575cd1f
     Pseudo is Norm-conserving, Zval = 14.0
     Generated using ONCVPSP code by D. R. Hamann
     Using radial grid of 1526 points,  6 beta functions with: 
                l(1) =   0
                l(2) =   0
                l(3) =   1
                l(4) =   1
                l(5) =   2
                l(6) =   2

     PseudoPot. # 3 for Se read from file:
     /home/pragov/projects/rrg-bengioy-ad/pragov/crystal_structure_design/SSSP/Se_pbe_v1.uspp.F.UPF
     MD5 check sum: 1b3568f3a8ae88f9a2a0ad0698632c85
     Pseudo is Ultrasoft + core correction, Zval =  6.0
     Generated by new atomic code, or converted to UPF format
     Using radial grid of  877 points,  6 beta functions with: 
                l(1) =   0
                l(2) =   0
                l(3) =   1
                l(4) =   1
                l(5) =   2
                l(6) =   2
     Q(r) pseudized with  8 coefficients,  rinner =    1.300   1.300   1.300
                                                       1.300   1.300

     atomic species   valence    mass     pseudopotential
        Ta            13.00   180.94788     Ta( 1.00)
        Mo            14.00    95.95000     Mo( 1.00)
        Se             6.00    78.97100     Se( 1.00)

     No symmetry found


                                    s                        frac. trans.

      isym =  1     identity                                     

 cryst.   s( 1) = (     1          0          0      )
                  (     0          1          0      )
                  (     0          0          1      )

 cart.    s( 1) = (  1.0000000  0.0000000  0.0000000 )
                  (  0.0000000  1.0000000  0.0000000 )
                  (  0.0000000  0.0000000  1.0000000 )


   Cartesian axes

     site n.     atom                  positions (alat units)
         1           Ta  tau(   1) = (   0.2813266   0.0495319   0.2870857  )
         2           Ta  tau(   2) = (   0.7085000   0.1247424   0.7157835  )
         3           Ta  tau(   3) = (   1.0247707   0.1804268   0.0609153  )
         4           Ta  tau(   4) = (   1.4564236   0.2564260   0.4932190  )
         5           Mo  tau(   5) = (   1.8820989   0.3313728   0.9199280  )
         6           Se  tau(   6) = (   0.7721598   0.1359507   0.0507177  )
         7           Se  tau(   7) = (   1.1981006   0.2109442   0.4775207  )
         8           Se  tau(   8) = (   0.0218341   0.0038442   0.2591101  )
         9           Se  tau(   9) = (   1.6265103   0.2863724   0.9039772  )
        10           Se  tau(  10) = (   0.4477576   0.0788347   0.6885008  )
        11           Se  tau(  11) = (   1.4381355   0.2532061   0.2311092  )
        12           Se  tau(  12) = (   1.8629456   0.3280005   0.6605739  )
        13           Se  tau(  13) = (   0.2496767   0.0439595   0.0242757  )
        14           Se  tau(  14) = (   0.6780795   0.1193864   0.4517114  )
        15           Se  tau(  15) = (   1.0955447   0.1928877   0.8609836  )

   Crystallographic axes

     site n.     atom                  positions (cryst. coord.)
         1           Ta  tau(   1) = (  0.1331480  0.1331480  0.2718100  )
         2           Ta  tau(   2) = (  0.3356220  0.3356220  0.6776970  )
         3           Ta  tau(   3) = (  0.5257490  0.5257490  0.0576740  )
         4           Ta  tau(   4) = (  0.7303830  0.7303830  0.4669750  )
         5           Mo  tau(   5) = (  0.9321670  0.9321670  0.8709790  )
         6           Se  tau(   6) = (  0.3959500  0.3959500  0.0480190  )
         7           Se  tau(   7) = (  0.5978670  0.5978670  0.4521120  )
         8           Se  tau(   8) = (  0.0005370  0.0005370  0.2453230  )
         9           Se  tau(   9) = (  0.8010710  0.8010710  0.8558770  )
        10           Se  tau(  10) = (  0.2023380  0.2023380  0.6518660  )
        11           Se  tau(  11) = (  0.7317980  0.7317980  0.2188120  )
        12           Se  tau(  12) = (  0.9330220  0.9330220  0.6254250  )
        13           Se  tau(  13) = (  0.1277040  0.1277040  0.0229840  )
        14           Se  tau(  14) = (  0.3308640  0.3308640  0.4276760  )
        15           Se  tau(  15) = (  0.5291370  0.5291370  0.8151710  )

     number of k points=    14
                       cart. coord. in units 2pi/alat
        k(    1) = (   0.0000000   0.0000000   0.0000000), wk =   0.0740741
        k(    2) = (   0.0000000   0.0000000   0.3155968), wk =   0.1481481
        k(    3) = (   0.0000000   0.9759614  -0.0137888), wk =   0.1481481
        k(    4) = (   0.0000000   0.9759614   0.3018080), wk =   0.1481481
        k(    5) = (   0.0000000   0.9759614  -0.3293856), wk =   0.1481481
        k(    6) = (   0.3333333  -0.9172729  -0.0137888), wk =   0.1481481
        k(    7) = (   0.3333333  -0.9172729   0.3018080), wk =   0.1481481
        k(    8) = (   0.3333333  -0.9172729  -0.3293856), wk =   0.1481481
        k(    9) = (   0.3333333   0.0586885  -0.0275776), wk =   0.1481481
        k(   10) = (   0.3333333   0.0586885   0.2880192), wk =   0.1481481
        k(   11) = (   0.3333333   0.0586885  -0.3431744), wk =   0.1481481
        k(   12) = (   0.3333333  -1.8932343   0.0000000), wk =   0.1481481
        k(   13) = (   0.3333333  -1.8932343   0.3155968), wk =   0.1481481
        k(   14) = (   0.3333333  -1.8932343  -0.3155968), wk =   0.1481481

                       cryst. coord.
        k(    1) = (   0.0000000   0.0000000   0.0000000), wk =   0.0740741
        k(    2) = (   0.0000000   0.0000000   0.3333333), wk =   0.1481481
        k(    3) = (   0.0000000   0.3333333   0.0000000), wk =   0.1481481
        k(    4) = (   0.0000000   0.3333333   0.3333333), wk =   0.1481481
        k(    5) = (   0.0000000   0.3333333  -0.3333333), wk =   0.1481481
        k(    6) = (   0.3333333   0.0000000   0.0000000), wk =   0.1481481
        k(    7) = (   0.3333333   0.0000000   0.3333333), wk =   0.1481481
        k(    8) = (   0.3333333   0.0000000  -0.3333333), wk =   0.1481481
        k(    9) = (   0.3333333   0.3333333   0.0000000), wk =   0.1481481
        k(   10) = (   0.3333333   0.3333333   0.3333333), wk =   0.1481481
        k(   11) = (   0.3333333   0.3333333  -0.3333333), wk =   0.1481481
        k(   12) = (   0.3333333  -0.3333333   0.0000000), wk =   0.1481481
        k(   13) = (   0.3333333  -0.3333333   0.3333333), wk =   0.1481481
        k(   14) = (   0.3333333  -0.3333333  -0.3333333), wk =   0.1481481

     Dense  grid:   149157 G-vectors     FFT dimensions: (  96,  96, 100)

     Smooth grid:    52863 G-vectors     FFT dimensions: (  72,  72,  72)

     Dynamical RAM for                 wfc:       1.61 MB

     Dynamical RAM for     wfc (w. buffer):      12.88 MB

     Dynamical RAM for           str. fact:       1.71 MB

     Dynamical RAM for           local pot:       0.00 MB

     Dynamical RAM for          nlocal pot:       7.49 MB

     Dynamical RAM for                qrad:       6.97 MB

     Dynamical RAM for          rho,v,vnew:       6.98 MB

     Dynamical RAM for               rhoin:       2.33 MB

     Dynamical RAM for            rho*nmix:       9.10 MB

     Dynamical RAM for           G-vectors:       2.23 MB

     Dynamical RAM for          h,s,v(r/c):       0.19 MB

     Dynamical RAM for          <psi|beta>:       0.29 MB

     Dynamical RAM for                 psi:       3.22 MB

     Dynamical RAM for                hpsi:       3.22 MB

     Dynamical RAM for                spsi:       3.22 MB

     Dynamical RAM for      wfcinit/wfcrot:       5.37 MB

     Dynamical RAM for           addusdens:     103.26 MB

     Estimated static dynamical RAM per process >      51.65 MB

     Estimated max dynamical RAM per process >     164.01 MB

     Estimated total dynamical RAM >       1.25 GB

     Initial potential from superposition of free atoms

     starting charge     125.9939, renormalised to     126.0000

     negative rho (up, down):  3.794E-01 0.000E+00
     Starting wfcs are  102 randomized atomic wfcs

     total cpu time spent up to now is        4.5 secs

     Self-consistent Calculation

     iteration #  1     ecut=    30.00 Ry     beta= 0.70
     Davidson diagonalization with overlap

---- Real-time Memory Report at c_bands before calling an iterative solver
           281 MiB given to the printing process from OS
             0 MiB allocation reported by mallinfo(arena+hblkhd)
        141268 MiB available memory on the node where the printing process lives
------------------
     ethr =  1.00E-02,  avg # of iterations =  2.0

     Threshold (ethr) on eigenvalues was too large:
     Diagonalizing with lowered threshold

     Davidson diagonalization with overlap

---- Real-time Memory Report at c_bands before calling an iterative solver
           342 MiB given to the printing process from OS
             0 MiB allocation reported by mallinfo(arena+hblkhd)
        140984 MiB available memory on the node where the printing process lives
------------------
     ethr =  6.25E-04,  avg # of iterations =  1.1

     negative rho (up, down):  3.808E-01 0.000E+00

     total cpu time spent up to now is        9.2 secs

     total energy              =   -1141.10067710 Ry
     estimated scf accuracy    <       0.80929859 Ry

     iteration #  2     ecut=    30.00 Ry     beta= 0.70
     Davidson diagonalization with overlap

---- Real-time Memory Report at c_bands before calling an iterative solver
           372 MiB given to the printing process from OS
             0 MiB allocation reported by mallinfo(arena+hblkhd)
        140730 MiB available memory on the node where the printing process lives
------------------
     ethr =  6.42E-04,  avg # of iterations =  8.3

     negative rho (up, down):  3.813E-01 0.000E+00

     total cpu time spent up to now is       12.9 secs

     total energy              =   -1140.01215775 Ry
     estimated scf accuracy    <      17.85361068 Ry

     iteration #  3     ecut=    30.00 Ry     beta= 0.70
     Davidson diagonalization with overlap

---- Real-time Memory Report at c_bands before calling an iterative solver
           390 MiB given to the printing process from OS
             0 MiB allocation reported by mallinfo(arena+hblkhd)
        140637 MiB available memory on the node where the printing process lives
------------------
     ethr =  6.42E-04,  avg # of iterations = 10.0

     negative rho (up, down):  3.819E-01 0.000E+00

     total cpu time spent up to now is       17.1 secs

     total energy              =   -1141.21212222 Ry
     estimated scf accuracy    <       2.73035075 Ry

     iteration #  4     ecut=    30.00 Ry     beta= 0.70
     Davidson diagonalization with overlap

---- Real-time Memory Report at c_bands before calling an iterative solver
           391 MiB given to the printing process from OS
             0 MiB allocation reported by mallinfo(arena+hblkhd)
        140629 MiB available memory on the node where the printing process lives
------------------
     ethr =  6.42E-04,  avg # of iterations =  8.0

     negative rho (up, down):  3.828E-01 0.000E+00

     total cpu time spent up to now is       20.2 secs

     total energy              =   -1141.44374184 Ry
     estimated scf accuracy    <       0.73933320 Ry

     iteration #  5     ecut=    30.00 Ry     beta= 0.70
     Davidson diagonalization with overlap

---- Real-time Memory Report at c_bands before calling an iterative solver
           391 MiB given to the printing process from OS
             0 MiB allocation reported by mallinfo(arena+hblkhd)
        140625 MiB available memory on the node where the printing process lives
------------------
     ethr =  5.87E-04,  avg # of iterations =  7.1

     negative rho (up, down):  3.833E-01 0.000E+00

     total cpu time spent up to now is       23.1 secs

     total energy              =   -1141.46487606 Ry
     estimated scf accuracy    <       0.64697679 Ry

     iteration #  6     ecut=    30.00 Ry     beta= 0.70
     Davidson diagonalization with overlap

---- Real-time Memory Report at c_bands before calling an iterative solver
           391 MiB given to the printing process from OS
             0 MiB allocation reported by mallinfo(arena+hblkhd)
        140621 MiB available memory on the node where the printing process lives
------------------
     ethr =  5.13E-04,  avg # of iterations =  5.1

     negative rho (up, down):  3.840E-01 0.000E+00

     total cpu time spent up to now is       25.5 secs

     total energy              =   -1141.52811228 Ry
     estimated scf accuracy    <       0.04376838 Ry

     iteration #  7     ecut=    30.00 Ry     beta= 0.70
     Davidson diagonalization with overlap

---- Real-time Memory Report at c_bands before calling an iterative solver
           391 MiB given to the printing process from OS
             0 MiB allocation reported by mallinfo(arena+hblkhd)
        140609 MiB available memory on the node where the printing process lives
------------------
     ethr =  3.47E-05,  avg # of iterations =  7.8

     negative rho (up, down):  3.843E-01 0.000E+00

     total cpu time spent up to now is       28.6 secs

     total energy              =   -1141.53675738 Ry
     estimated scf accuracy    <       0.02660700 Ry

     iteration #  8     ecut=    30.00 Ry     beta= 0.70
     Davidson diagonalization with overlap

---- Real-time Memory Report at c_bands before calling an iterative solver
           391 MiB given to the printing process from OS
             0 MiB allocation reported by mallinfo(arena+hblkhd)
        140601 MiB available memory on the node where the printing process lives
------------------
     ethr =  2.11E-05,  avg # of iterations =  5.4

     negative rho (up, down):  3.846E-01 0.000E+00

     total cpu time spent up to now is       31.1 secs

     total energy              =   -1141.53772092 Ry
     estimated scf accuracy    <       0.01124576 Ry

     iteration #  9     ecut=    30.00 Ry     beta= 0.70
     Davidson diagonalization with overlap

---- Real-time Memory Report at c_bands before calling an iterative solver
           394 MiB given to the printing process from OS
             0 MiB allocation reported by mallinfo(arena+hblkhd)
        140598 MiB available memory on the node where the printing process lives
------------------
     ethr =  8.93E-06,  avg # of iterations =  5.1

     negative rho (up, down):  3.848E-01 0.000E+00

     total cpu time spent up to now is       33.6 secs

     total energy              =   -1141.53856184 Ry
     estimated scf accuracy    <       0.00286969 Ry

     iteration # 10     ecut=    30.00 Ry     beta= 0.70
     Davidson diagonalization with overlap

---- Real-time Memory Report at c_bands before calling an iterative solver
           394 MiB given to the printing process from OS
             0 MiB allocation reported by mallinfo(arena+hblkhd)
        140594 MiB available memory on the node where the printing process lives
------------------
     ethr =  2.28E-06,  avg # of iterations =  5.8

     negative rho (up, down):  3.849E-01 0.000E+00

     total cpu time spent up to now is       36.4 secs

     total energy              =   -1141.53897340 Ry
     estimated scf accuracy    <       0.00093330 Ry

     iteration # 11     ecut=    30.00 Ry     beta= 0.70
     Davidson diagonalization with overlap

---- Real-time Memory Report at c_bands before calling an iterative solver
           395 MiB given to the printing process from OS
             0 MiB allocation reported by mallinfo(arena+hblkhd)
        140597 MiB available memory on the node where the printing process lives
------------------
     ethr =  7.41E-07,  avg # of iterations =  3.7

     negative rho (up, down):  3.849E-01 0.000E+00

     total cpu time spent up to now is       38.7 secs

     total energy              =   -1141.53900096 Ry
     estimated scf accuracy    <       0.00037287 Ry

     iteration # 12     ecut=    30.00 Ry     beta= 0.70
     Davidson diagonalization with overlap

---- Real-time Memory Report at c_bands before calling an iterative solver
           397 MiB given to the printing process from OS
             0 MiB allocation reported by mallinfo(arena+hblkhd)
        140582 MiB available memory on the node where the printing process lives
------------------
     ethr =  2.96E-07,  avg # of iterations =  5.5

     negative rho (up, down):  3.849E-01 0.000E+00

     total cpu time spent up to now is       42.3 secs

     total energy              =   -1141.53902937 Ry
     estimated scf accuracy    <       0.00015534 Ry

     iteration # 13     ecut=    30.00 Ry     beta= 0.70
     Davidson diagonalization with overlap

---- Real-time Memory Report at c_bands before calling an iterative solver
           397 MiB given to the printing process from OS
             0 MiB allocation reported by mallinfo(arena+hblkhd)
        140571 MiB available memory on the node where the printing process lives
------------------
     ethr =  1.23E-07,  avg # of iterations =  3.6

     negative rho (up, down):  3.849E-01 0.000E+00

     total cpu time spent up to now is       44.8 secs

     total energy              =   -1141.53904260 Ry
     estimated scf accuracy    <       0.00005048 Ry

     iteration # 14     ecut=    30.00 Ry     beta= 0.70
     Davidson diagonalization with overlap

---- Real-time Memory Report at c_bands before calling an iterative solver
           398 MiB given to the printing process from OS
             0 MiB allocation reported by mallinfo(arena+hblkhd)
        140570 MiB available memory on the node where the printing process lives
------------------
     ethr =  4.01E-08,  avg # of iterations =  4.8

     negative rho (up, down):  3.849E-01 0.000E+00

     total cpu time spent up to now is       47.6 secs

     total energy              =   -1141.53905052 Ry
     estimated scf accuracy    <       0.00001186 Ry

     iteration # 15     ecut=    30.00 Ry     beta= 0.70
     Davidson diagonalization with overlap

---- Real-time Memory Report at c_bands before calling an iterative solver
           398 MiB given to the printing process from OS
             0 MiB allocation reported by mallinfo(arena+hblkhd)
        140566 MiB available memory on the node where the printing process lives
------------------
     ethr =  9.41E-09,  avg # of iterations =  6.2

     negative rho (up, down):  3.849E-01 0.000E+00

     total cpu time spent up to now is       51.1 secs

     total energy              =   -1141.53905268 Ry
     estimated scf accuracy    <       0.00000491 Ry

     iteration # 16     ecut=    30.00 Ry     beta= 0.70
     Davidson diagonalization with overlap

---- Real-time Memory Report at c_bands before calling an iterative solver
           398 MiB given to the printing process from OS
             0 MiB allocation reported by mallinfo(arena+hblkhd)
        140565 MiB available memory on the node where the printing process lives
------------------
     ethr =  3.90E-09,  avg # of iterations =  4.4

     negative rho (up, down):  3.849E-01 0.000E+00

     total cpu time spent up to now is       53.8 secs

     total energy              =   -1141.53905302 Ry
     estimated scf accuracy    <       0.00000142 Ry

     iteration # 17     ecut=    30.00 Ry     beta= 0.70
     Davidson diagonalization with overlap

---- Real-time Memory Report at c_bands before calling an iterative solver
           399 MiB given to the printing process from OS
             0 MiB allocation reported by mallinfo(arena+hblkhd)
        140566 MiB available memory on the node where the printing process lives
------------------
     ethr =  1.12E-09,  avg # of iterations =  4.6

     negative rho (up, down):  3.849E-01 0.000E+00

     total cpu time spent up to now is       56.3 secs

     End of self-consistent calculation

          k = 0.0000 0.0000 0.0000 (  6623 PWs)   bands (ev):

   -59.8881 -59.7941 -59.6934 -59.6690 -52.5898 -26.6714 -26.6665 -26.6438
   -26.3568 -26.3325 -26.3055 -26.2928 -26.2868 -26.2596 -26.2049 -26.1539
   -26.1149 -26.1039 -26.0225 -26.0040  -5.7005  -5.1263  -5.0889  -4.5778
    -4.3221  -4.3107  -4.2947  -4.2658  -3.8608  -3.8166   2.6082   3.0916
     3.1380   3.8646   3.9210   4.1624   4.4013   4.5314   4.5950   4.9975
     5.1564   5.2569   5.5665   5.7060   6.1560   6.3488   6.4874   6.6815
     6.8090   6.8256   6.8940   6.9182   6.9780   7.0309   7.1798   7.3904
     7.4819   7.5165   7.5765   7.6436   7.7554   7.8771   8.2560   8.5386

     occupation numbers 
     1.0000   1.0000   1.0000   1.0000   1.0000   1.0000   1.0000   1.0000
     1.0000   1.0000   1.0000   1.0000   1.0000   1.0000   1.0000   1.0000
     1.0000   1.0000   1.0000   1.0000   1.0000   1.0000   1.0000   1.0000
     1.0000   1.0000   1.0000   1.0000   1.0000   1.0000   1.0000   1.0000
     1.0000   1.0000   1.0000   1.0000   1.0000   1.0000   1.0000   1.0000
     1.0000   1.0000   1.0000   1.0000   1.0000   1.0000   1.0000   1.0000
     1.0000   1.0000   1.0000   1.0000   1.0000   1.0000   1.0000   1.0000
     1.0000   1.0000   1.0000   1.0000   1.0000   1.0000   1.0000   0.0000

          k = 0.0000 0.0000 0.3156 (  6628 PWs)   bands (ev):

   -59.8882 -59.7941 -59.6934 -59.6691 -52.5898 -26.6714 -26.6665 -26.6438
   -26.3544 -26.3325 -26.3055 -26.3003 -26.2868 -26.2539 -26.2050 -26.1545
   -26.1148 -26.1039 -26.0225 -26.0040  -5.6260  -5.3901  -4.8219  -4.5811
    -4.5400  -4.3493  -4.1875  -4.1179  -3.9730  -3.7743   2.7310   2.9049
     3.3330   3.5918   3.9835   4.0578   4.3640   4.5332   4.6633   4.7583
     5.1324   5.6878   5.7261   6.0518   6.2423   6.2739   6.3667   6.5323
     6.6694   6.7183   6.7799   6.8959   7.0636   7.1174   7.1976   7.2733
     7.3983   7.4857   7.5807   7.6024   7.7367   7.9473   8.1177   8.6641

     occupation numbers 
     1.0000   1.0000   1.0000   1.0000   1.0000   1.0000   1.0000   1.0000
     1.0000   1.0000   1.0000   1.0000   1.0000   1.0000   1.0000   1.0000
     1.0000   1.0000   1.0000   1.0000   1.0000   1.0000   1.0000   1.0000
     1.0000   1.0000   1.0000   1.0000   1.0000   1.0000   1.0000   1.0000
     1.0000   1.0000   1.0000   1.0000   1.0000   1.0000   1.0000   1.0000
     1.0000   1.0000   1.0000   1.0000   1.0000   1.0000   1.0000   1.0000
     1.0000   1.0000   1.0000   1.0000   1.0000   1.0000   1.0000   1.0000
     1.0000   1.0000   1.0000   1.0000   1.0000   1.0000   1.0000   0.0000

          k = 0.0000 0.9760-0.0138 (  6585 PWs)   bands (ev):

   -59.8848 -59.7907 -59.6902 -59.6659 -52.5848 -26.7626 -26.6530 -26.6264
   -26.4362 -26.4046 -26.3390 -26.2891 -26.2778 -26.2336 -26.1874 -26.1833
   -26.1229 -26.1010 -26.0976 -26.0903  -4.7998  -4.4932  -4.3342  -4.2022
    -4.0363  -3.9917  -3.9499  -3.9012  -3.7068  -3.6235   3.3214   3.4288
     3.5956   3.6359   3.7879   3.8243   4.0365   4.3067   4.3510   4.5468
     4.6414   4.7257   4.7892   4.8482   5.2409   5.2677   5.5831   5.6606
     5.7639   5.9226   5.9942   6.1940   6.4717   6.5837   6.7397   6.8328
     6.9515   7.0298   7.2710   7.5808   7.6592   7.9221   8.2369   8.5348

     occupation numbers 
     1.0000   1.0000   1.0000   1.0000   1.0000   1.0000   1.0000   1.0000
     1.0000   1.0000   1.0000   1.0000   1.0000   1.0000   1.0000   1.0000
     1.0000   1.0000   1.0000   1.0000   1.0000   1.0000   1.0000   1.0000
     1.0000   1.0000   1.0000   1.0000   1.0000   1.0000   1.0000   1.0000
     1.0000   1.0000   1.0000   1.0000   1.0000   1.0000   1.0000   1.0000
     1.0000   1.0000   1.0000   1.0000   1.0000   1.0000   1.0000   1.0000
     1.0000   1.0000   1.0000   1.0000   1.0000   1.0000   1.0000   1.0000
     1.0000   1.0000   1.0000   1.0000   1.0000   1.0000   1.0000   0.0000

          k = 0.0000 0.9760 0.3018 (  6569 PWs)   bands (ev):

   -59.8848 -59.7907 -59.6902 -59.6658 -52.5847 -26.7626 -26.6530 -26.6263
   -26.4360 -26.4049 -26.3389 -26.2891 -26.2775 -26.2338 -26.1874 -26.1834
   -26.1225 -26.1010 -26.0978 -26.0903  -4.7431  -4.6112  -4.2232  -4.2043
    -4.1471  -3.9915  -3.9113  -3.8515  -3.7291  -3.6261   3.2355   3.3540
     3.6768   3.7352   3.8485   3.9362   4.1649   4.2401   4.3139   4.4881
     4.6085   4.6242   4.8603   4.8780   5.0272   5.0672   5.5177   5.6248
     5.8126   6.0290   6.1608   6.3586   6.4985   6.5485   6.7557   6.8977
     6.9404   7.0350   7.1214   7.4373   7.7030   8.0010   8.2144   8.4761

     occupation numbers 
     1.0000   1.0000   1.0000   1.0000   1.0000   1.0000   1.0000   1.0000
     1.0000   1.0000   1.0000   1.0000   1.0000   1.0000   1.0000   1.0000
     1.0000   1.0000   1.0000   1.0000   1.0000   1.0000   1.0000   1.0000
     1.0000   1.0000   1.0000   1.0000   1.0000   1.0000   1.0000   1.0000
     1.0000   1.0000   1.0000   1.0000   1.0000   1.0000   1.0000   1.0000
     1.0000   1.0000   1.0000   1.0000   1.0000   1.0000   1.0000   1.0000
     1.0000   1.0000   1.0000   1.0000   1.0000   1.0000   1.0000   1.0000
     1.0000   1.0000   1.0000   1.0000   1.0000   1.0000   1.0000   0.0000

          k = 0.0000 0.9760-0.3294 (  6586 PWs)   bands (ev):

   -59.8848 -59.7907 -59.6902 -59.6659 -52.5848 -26.7626 -26.6530 -26.6264
   -26.4362 -26.4046 -26.3390 -26.2891 -26.2778 -26.2336 -26.1874 -26.1833
   -26.1229 -26.1010 -26.0976 -26.0903  -4.7637  -4.5419  -4.3656  -4.1976
    -4.0172  -3.9804  -3.9322  -3.8910  -3.7120  -3.6370   3.3021   3.4200
     3.5894   3.6424   3.7894   3.9813   4.0335   4.2999   4.3579   4.4252
     4.6568   4.7482   4.8191   4.8828   5.1312   5.2181   5.5226   5.6049
     5.8089   5.8635   5.9595   6.2113   6.5086   6.7098   6.7581   6.8115
     7.0245   7.1674   7.2660   7.3893   7.6565   7.9199   8.2378   8.5265

     occupation numbers 
     1.0000   1.0000   1.0000   1.0000   1.0000   1.0000   1.0000   1.0000
     1.0000   1.0000   1.0000   1.0000   1.0000   1.0000   1.0000   1.0000
     1.0000   1.0000   1.0000   1.0000   1.0000   1.0000   1.0000   1.0000
     1.0000   1.0000   1.0000   1.0000   1.0000   1.0000   1.0000   1.0000
     1.0000   1.0000   1.0000   1.0000   1.0000   1.0000   1.0000   1.0000
     1.0000   1.0000   1.0000   1.0000   1.0000   1.0000   1.0000   1.0000
     1.0000   1.0000   1.0000   1.0000   1.0000   1.0000   1.0000   1.0000
     1.0000   1.0000   1.0000   1.0000   1.0000   1.0000   1.0000   0.0000

          k = 0.3333-0.9173-0.0138 (  6585 PWs)   bands (ev):

   -59.8848 -59.7907 -59.6902 -59.6659 -52.5848 -26.7626 -26.6530 -26.6264
   -26.4362 -26.4046 -26.3390 -26.2891 -26.2778 -26.2336 -26.1874 -26.1833
   -26.1229 -26.1010 -26.0976 -26.0903  -4.7998  -4.4932  -4.3342  -4.2022
    -4.0363  -3.9917  -3.9499  -3.9012  -3.7068  -3.6235   3.3214   3.4288
     3.5956   3.6359   3.7879   3.8243   4.0365   4.3067   4.3510   4.5468
     4.6414   4.7257   4.7892   4.8482   5.2409   5.2677   5.5831   5.6606
     5.7639   5.9226   5.9942   6.1940   6.4717   6.5837   6.7397   6.8328
     6.9515   7.0298   7.2710   7.5808   7.6592   7.9221   8.2369   8.5348

     occupation numbers 
     1.0000   1.0000   1.0000   1.0000   1.0000   1.0000   1.0000   1.0000
     1.0000   1.0000   1.0000   1.0000   1.0000   1.0000   1.0000   1.0000
     1.0000   1.0000   1.0000   1.0000   1.0000   1.0000   1.0000   1.0000
     1.0000   1.0000   1.0000   1.0000   1.0000   1.0000   1.0000   1.0000
     1.0000   1.0000   1.0000   1.0000   1.0000   1.0000   1.0000   1.0000
     1.0000   1.0000   1.0000   1.0000   1.0000   1.0000   1.0000   1.0000
     1.0000   1.0000   1.0000   1.0000   1.0000   1.0000   1.0000   1.0000
     1.0000   1.0000   1.0000   1.0000   1.0000   1.0000   1.0000   0.0000

          k = 0.3333-0.9173 0.3018 (  6569 PWs)   bands (ev):

   -59.8848 -59.7907 -59.6902 -59.6658 -52.5847 -26.7626 -26.6530 -26.6263
   -26.4360 -26.4049 -26.3389 -26.2891 -26.2775 -26.2338 -26.1874 -26.1834
   -26.1225 -26.1010 -26.0978 -26.0903  -4.7431  -4.6112  -4.2232  -4.2043
    -4.1471  -3.9915  -3.9113  -3.8515  -3.7291  -3.6261   3.2355   3.3540
     3.6768   3.7352   3.8485   3.9362   4.1649   4.2401   4.3139   4.4881
     4.6085   4.6242   4.8603   4.8780   5.0272   5.0672   5.5177   5.6248
     5.8126   6.0290   6.1608   6.3586   6.4985   6.5485   6.7557   6.8977
     6.9404   7.0350   7.1214   7.4373   7.7030   8.0010   8.2144   8.4761

     occupation numbers 
     1.0000   1.0000   1.0000   1.0000   1.0000   1.0000   1.0000   1.0000
     1.0000   1.0000   1.0000   1.0000   1.0000   1.0000   1.0000   1.0000
     1.0000   1.0000   1.0000   1.0000   1.0000   1.0000   1.0000   1.0000
     1.0000   1.0000   1.0000   1.0000   1.0000   1.0000   1.0000   1.0000
     1.0000   1.0000   1.0000   1.0000   1.0000   1.0000   1.0000   1.0000
     1.0000   1.0000   1.0000   1.0000   1.0000   1.0000   1.0000   1.0000
     1.0000   1.0000   1.0000   1.0000   1.0000   1.0000   1.0000   1.0000
     1.0000   1.0000   1.0000   1.0000   1.0000   1.0000   1.0000   0.0000

          k = 0.3333-0.9173-0.3294 (  6586 PWs)   bands (ev):

   -59.8848 -59.7907 -59.6902 -59.6659 -52.5848 -26.7626 -26.6530 -26.6264
   -26.4362 -26.4046 -26.3390 -26.2891 -26.2778 -26.2336 -26.1874 -26.1833
   -26.1229 -26.1010 -26.0976 -26.0903  -4.7637  -4.5419  -4.3656  -4.1976
    -4.0172  -3.9804  -3.9322  -3.8910  -3.7120  -3.6370   3.3021   3.4200
     3.5894   3.6424   3.7894   3.9813   4.0335   4.2999   4.3579   4.4252
     4.6568   4.7482   4.8191   4.8828   5.1312   5.2181   5.5226   5.6049
     5.8089   5.8635   5.9595   6.2113   6.5086   6.7098   6.7581   6.8115
     7.0245   7.1674   7.2660   7.3893   7.6565   7.9199   8.2378   8.5265

     occupation numbers 
     1.0000   1.0000   1.0000   1.0000   1.0000   1.0000   1.0000   1.0000
     1.0000   1.0000   1.0000   1.0000   1.0000   1.0000   1.0000   1.0000
     1.0000   1.0000   1.0000   1.0000   1.0000   1.0000   1.0000   1.0000
     1.0000   1.0000   1.0000   1.0000   1.0000   1.0000   1.0000   1.0000
     1.0000   1.0000   1.0000   1.0000   1.0000   1.0000   1.0000   1.0000
     1.0000   1.0000   1.0000   1.0000   1.0000   1.0000   1.0000   1.0000
     1.0000   1.0000   1.0000   1.0000   1.0000   1.0000   1.0000   1.0000
     1.0000   1.0000   1.0000   1.0000   1.0000   1.0000   1.0000   0.0000

          k = 0.3333 0.0587-0.0276 (  6629 PWs)   bands (ev):

   -59.8882 -59.7941 -59.6934 -59.6691 -52.5898 -26.6715 -26.6665 -26.6438
   -26.3543 -26.3325 -26.3055 -26.3003 -26.2868 -26.2539 -26.2049 -26.1545
   -26.1148 -26.1039 -26.0225 -26.0040  -5.6187  -5.3739  -4.8551  -4.5940
    -4.5708  -4.3676  -4.1483  -4.0771  -3.9364  -3.8184   2.7818   2.9569
     3.3988   3.5495   3.8443   3.9629   4.2550   4.4829   4.7816   4.8506
     5.2553   5.7089   5.7386   5.9229   6.2252   6.2803   6.3606   6.4979
     6.5393   6.7024   6.8771   6.9612   7.1101   7.1799   7.2142   7.3283
     7.3514   7.4894   7.5036   7.5758   7.7291   7.9508   8.1040   8.6850

     occupation numbers 
     1.0000   1.0000   1.0000   1.0000   1.0000   1.0000   1.0000   1.0000
     1.0000   1.0000   1.0000   1.0000   1.0000   1.0000   1.0000   1.0000
     1.0000   1.0000   1.0000   1.0000   1.0000   1.0000   1.0000   1.0000
     1.0000   1.0000   1.0000   1.0000   1.0000   1.0000   1.0000   1.0000
     1.0000   1.0000   1.0000   1.0000   1.0000   1.0000   1.0000   1.0000
     1.0000   1.0000   1.0000   1.0000   1.0000   1.0000   1.0000   1.0000
     1.0000   1.0000   1.0000   1.0000   1.0000   1.0000   1.0000   1.0000
     1.0000   1.0000   1.0000   1.0000   1.0000   1.0000   1.0000   0.0000

          k = 0.3333 0.0587 0.2880 (  6606 PWs)   bands (ev):

   -59.8881 -59.7941 -59.6934 -59.6690 -52.5898 -26.6714 -26.6665 -26.6438
   -26.3543 -26.3325 -26.3055 -26.3002 -26.2867 -26.2539 -26.2049 -26.1544
   -26.1148 -26.1039 -26.0225 -26.0040  -5.5488  -5.4457  -4.9108  -4.6498
    -4.4936  -4.3083  -4.1055  -4.0826  -3.9997  -3.8116   2.7699   2.9880
     3.3854   3.5457   3.6612   3.9945   4.4553   4.5411   4.6769   4.8262
     5.3552   5.7004   5.7572   5.8555   6.2385   6.2653   6.3599   6.4919
     6.5046   6.6964   6.7155   6.7671   7.1006   7.1923   7.2923   7.3380
     7.4828   7.5081   7.5295   7.7195   7.8981   7.9461   8.1152   8.4934

     occupation numbers 
     1.0000   1.0000   1.0000   1.0000   1.0000   1.0000   1.0000   1.0000
     1.0000   1.0000   1.0000   1.0000   1.0000   1.0000   1.0000   1.0000
     1.0000   1.0000   1.0000   1.0000   1.0000   1.0000   1.0000   1.0000
     1.0000   1.0000   1.0000   1.0000   1.0000   1.0000   1.0000   1.0000
     1.0000   1.0000   1.0000   1.0000   1.0000   1.0000   1.0000   1.0000
     1.0000   1.0000   1.0000   1.0000   1.0000   1.0000   1.0000   1.0000
     1.0000   1.0000   1.0000   1.0000   1.0000   1.0000   1.0000   1.0000
     1.0000   1.0000   1.0000   1.0000   1.0000   1.0000   1.0000   0.0000

          k = 0.3333 0.0587-0.3432 (  6586 PWs)   bands (ev):

   -59.8881 -59.7940 -59.6933 -59.6690 -52.5897 -26.6714 -26.6664 -26.6437
   -26.3568 -26.3325 -26.3054 -26.2927 -26.2867 -26.2596 -26.2049 -26.1538
   -26.1148 -26.1038 -26.0225 -26.0040  -5.6130  -5.2240  -5.1692  -4.6251
    -4.2875  -4.2764  -4.2136  -4.1827  -3.9118  -3.8548   2.9817   3.0928
     3.2017   3.3650   3.4753   4.0911   4.2990   4.6536   4.8499   5.0155
     5.1808   5.7087   5.7390   6.0271   6.1645   6.2561   6.3424   6.4761
     6.5926   6.6673   6.8338   6.9050   6.9315   7.0184   7.2410   7.3638
     7.4642   7.5220   7.5936   7.6300   7.7381   7.9125   8.2949   8.5060

     occupation numbers 
     1.0000   1.0000   1.0000   1.0000   1.0000   1.0000   1.0000   1.0000
     1.0000   1.0000   1.0000   1.0000   1.0000   1.0000   1.0000   1.0000
     1.0000   1.0000   1.0000   1.0000   1.0000   1.0000   1.0000   1.0000
     1.0000   1.0000   1.0000   1.0000   1.0000   1.0000   1.0000   1.0000
     1.0000   1.0000   1.0000   1.0000   1.0000   1.0000   1.0000   1.0000
     1.0000   1.0000   1.0000   1.0000   1.0000   1.0000   1.0000   1.0000
     1.0000   1.0000   1.0000   1.0000   1.0000   1.0000   1.0000   1.0000
     1.0000   1.0000   1.0000   1.0000   1.0000   1.0000   1.0000   0.0000

          k = 0.3333-1.8932 0.0000 (  6566 PWs)   bands (ev):

   -59.8848 -59.7907 -59.6902 -59.6658 -52.5847 -26.7625 -26.6530 -26.6263
   -26.4360 -26.4049 -26.3389 -26.2891 -26.2775 -26.2338 -26.1874 -26.1834
   -26.1225 -26.1010 -26.0978 -26.0903  -4.7251  -4.6295  -4.2235  -4.1796
    -4.1716  -4.0019  -3.9030  -3.8517  -3.7266  -3.6275   3.2690   3.3648
     3.7249   3.7822   3.8331   3.8848   4.1560   4.2185   4.2938   4.3730
     4.5970   4.6659   4.8004   4.9738   5.0262   5.0716   5.5660   5.6683
     5.8587   6.0527   6.1231   6.3062   6.4714   6.4975   6.7519   6.8647
     6.9466   7.0700   7.2078   7.3025   7.7076   7.9926   8.2131   8.4987

     occupation numbers 
     1.0000   1.0000   1.0000   1.0000   1.0000   1.0000   1.0000   1.0000
     1.0000   1.0000   1.0000   1.0000   1.0000   1.0000   1.0000   1.0000
     1.0000   1.0000   1.0000   1.0000   1.0000   1.0000   1.0000   1.0000
     1.0000   1.0000   1.0000   1.0000   1.0000   1.0000   1.0000   1.0000
     1.0000   1.0000   1.0000   1.0000   1.0000   1.0000   1.0000   1.0000
     1.0000   1.0000   1.0000   1.0000   1.0000   1.0000   1.0000   1.0000
     1.0000   1.0000   1.0000   1.0000   1.0000   1.0000   1.0000   1.0000
     1.0000   1.0000   1.0000   1.0000   1.0000   1.0000   1.0000   0.0000

          k = 0.3333-1.8932 0.3156 (  6569 PWs)   bands (ev):

   -59.8848 -59.7907 -59.6902 -59.6658 -52.5847 -26.7626 -26.6530 -26.6264
   -26.4362 -26.4046 -26.3389 -26.2891 -26.2778 -26.2336 -26.1874 -26.1833
   -26.1228 -26.1010 -26.0976 -26.0902  -4.7204  -4.5660  -4.4007  -4.2347
    -3.9990  -3.9656  -3.9125  -3.8786  -3.7144  -3.6473   3.3079   3.4401
     3.5483   3.6512   3.7871   3.9939   4.1984   4.2630   4.4156   4.4370
     4.5144   4.8026   4.8629   4.9659   5.0601   5.1451   5.4757   5.5495
     5.6685   5.7667   5.9898   6.1703   6.5425   6.6952   6.7288   6.9654
     7.0114   7.2623   7.3163   7.3910   7.6309   7.8912   8.2251   8.5456

     occupation numbers 
     1.0000   1.0000   1.0000   1.0000   1.0000   1.0000   1.0000   1.0000
     1.0000   1.0000   1.0000   1.0000   1.0000   1.0000   1.0000   1.0000
     1.0000   1.0000   1.0000   1.0000   1.0000   1.0000   1.0000   1.0000
     1.0000   1.0000   1.0000   1.0000   1.0000   1.0000   1.0000   1.0000
     1.0000   1.0000   1.0000   1.0000   1.0000   1.0000   1.0000   1.0000
     1.0000   1.0000   1.0000   1.0000   1.0000   1.0000   1.0000   1.0000
     1.0000   1.0000   1.0000   1.0000   1.0000   1.0000   1.0000   1.0000
     1.0000   1.0000   1.0000   1.0000   1.0000   1.0000   1.0000   0.0000

          k = 0.3333-1.8932-0.3156 (  6569 PWs)   bands (ev):

   -59.8848 -59.7907 -59.6902 -59.6658 -52.5847 -26.7626 -26.6530 -26.6264
   -26.4362 -26.4046 -26.3389 -26.2891 -26.2778 -26.2336 -26.1874 -26.1833
   -26.1228 -26.1010 -26.0976 -26.0902  -4.7204  -4.5660  -4.4007  -4.2347
    -3.9990  -3.9656  -3.9125  -3.8786  -3.7144  -3.6473   3.3079   3.4401
     3.5483   3.6512   3.7871   3.9939   4.1984   4.2630   4.4156   4.4370
     4.5144   4.8026   4.8629   4.9659   5.0601   5.1451   5.4757   5.5495
     5.6685   5.7667   5.9898   6.1703   6.5425   6.6952   6.7288   6.9654
     7.0114   7.2623   7.3163   7.3910   7.6309   7.8912   8.2251   8.5456

     occupation numbers 
     1.0000   1.0000   1.0000   1.0000   1.0000   1.0000   1.0000   1.0000
     1.0000   1.0000   1.0000   1.0000   1.0000   1.0000   1.0000   1.0000
     1.0000   1.0000   1.0000   1.0000   1.0000   1.0000   1.0000   1.0000
     1.0000   1.0000   1.0000   1.0000   1.0000   1.0000   1.0000   1.0000
     1.0000   1.0000   1.0000   1.0000   1.0000   1.0000   1.0000   1.0000
     1.0000   1.0000   1.0000   1.0000   1.0000   1.0000   1.0000   1.0000
     1.0000   1.0000   1.0000   1.0000   1.0000   1.0000   1.0000   1.0000
     1.0000   1.0000   1.0000   1.0000   1.0000   1.0000   1.0000   0.0000

     highest occupied, lowest unoccupied level (ev):     8.2949    8.4761

!    total energy              =   -1141.53905265 Ry
     estimated scf accuracy    <       0.00000054 Ry

     The total energy is the sum of the following terms:
     one-electron contribution =    -424.77738547 Ry
     hartree contribution      =     255.48847143 Ry
     xc contribution           =    -481.72124018 Ry
     ewald contribution        =    -490.52889844 Ry

     convergence has been achieved in  17 iterations

     Writing all to output data dir calculations_bands_val/myprefix.save/
 
     init_run     :     12.11s CPU      4.32s WALL (       1 calls)
     electrons    :    197.07s CPU     51.88s WALL (       1 calls)

     Called by init_run:
     wfcinit      :      4.83s CPU      1.29s WALL (       1 calls)
     wfcinit:atom :      0.03s CPU      0.01s WALL (       7 calls)
     wfcinit:wfcr :      4.57s CPU      1.22s WALL (       7 calls)
     potinit      :      3.05s CPU      0.95s WALL (       1 calls)
     hinit0       :      3.83s CPU      1.93s WALL (       1 calls)

     Called by electrons:
     c_bands      :    153.96s CPU     40.02s WALL (      18 calls)
     sum_band     :     31.07s CPU      8.50s WALL (      18 calls)
     v_of_rho     :      4.53s CPU      1.22s WALL (      18 calls)
     v_h          :      0.26s CPU      0.07s WALL (      18 calls)
     v_xc         :      4.27s CPU      1.15s WALL (      18 calls)
     newd         :      6.43s CPU      1.83s WALL (      18 calls)
     mix_rho      :      0.71s CPU      0.19s WALL (      18 calls)

     Called by c_bands:
     init_us_2    :      0.96s CPU      0.25s WALL (     259 calls)
     init_us_2:cp :      0.95s CPU      0.25s WALL (     259 calls)
     cegterg      :    147.81s CPU     38.44s WALL (     126 calls)

     Called by sum_band:
     sum_band:wei :      0.03s CPU      0.01s WALL (      18 calls)
     sum_band:loo :     23.37s CPU      6.01s WALL (      18 calls)
     sum_band:buf :      0.21s CPU      0.06s WALL (     126 calls)
     sum_band:ini :      0.42s CPU      0.11s WALL (     126 calls)
     sum_band:cal :      1.66s CPU      0.42s WALL (     126 calls)
     sum_band:bec :      0.16s CPU      0.04s WALL (     126 calls)
     addusdens    :      5.98s CPU      2.03s WALL (      18 calls)
     addusd:skk   :      0.02s CPU      0.01s WALL (      36 calls)
     addusd:dgemm :      1.02s CPU      0.75s WALL (      36 calls)
     addusd:qvan2 :      4.51s CPU      1.15s WALL (      36 calls)

     Called by *egterg:
     cdiaghg      :     14.83s CPU      3.88s WALL (     810 calls)
     cegterg:over :      5.04s CPU      1.30s WALL (     691 calls)
     cegterg:upda :      2.08s CPU      0.54s WALL (     691 calls)
     cegterg:last :      3.01s CPU      0.77s WALL (     270 calls)
     cdiaghg:chol :      1.04s CPU      0.28s WALL (     810 calls)
     cdiaghg:inve :      0.22s CPU      0.06s WALL (     810 calls)
     cdiaghg:para :      2.48s CPU      0.66s WALL (    1620 calls)
     h_psi        :    122.41s CPU     31.86s WALL (     824 calls)
     s_psi        :      2.97s CPU      0.75s WALL (     824 calls)
     g_psi        :      0.12s CPU      0.03s WALL (     691 calls)

     Called by h_psi:
     h_psi:calbec :      5.98s CPU      1.61s WALL (     824 calls)
     vloc_psi     :    112.74s CPU     29.31s WALL (     824 calls)
     add_vuspsi   :      3.47s CPU      0.89s WALL (     824 calls)

     General routines
     calbec       :      7.60s CPU      2.02s WALL (     950 calls)
     fft          :      4.96s CPU      1.51s WALL (     233 calls)
     ffts         :      1.57s CPU      0.56s WALL (      36 calls)
     fftw         :    116.05s CPU     30.17s WALL (   52364 calls)
     interpolate  :      1.77s CPU      0.62s WALL (      18 calls)
 
     Parallel routines
 
     PWSCF        :   3m30.77s CPU     56.94s WALL

 
   This run was terminated on:  12:56:27   4Jun2023            

=------------------------------------------------------------------------------=
   JOB DONE.
=------------------------------------------------------------------------------=
