
     Program PWSCF v.7.0 starts on  4Jun2023 at 10:47: 8 

     This program is part of the open-source Quantum ESPRESSO suite
     for quantum simulation of materials; please cite
         "P. Giannozzi et al., J. Phys.:Condens. Matter 21 395502 (2009);
         "P. Giannozzi et al., J. Phys.:Condens. Matter 29 465901 (2017);
         "P. Giannozzi et al., J. Chem. Phys. 152 154105 (2020);
          URL http://www.quantum-espresso.org", 
     in publications or presentations arising from this work. More details at
     http://www.quantum-espresso.org/quote

     Parallel version (MPI & OpenMP), running on      32 processor cores
     Number of MPI processes:                 8
     Threads/MPI process:                     4

     MPI processes distributed on     1 nodes
     K-points division:     npool     =       2
     R & G space division:  proc/nbgrp/npool/nimage =       4
     145479 MiB available memory on the printing compute node when the environment starts
 
     Reading input from espresso_84.pwi
Warning: card &CELL ignored
Warning: card / ignored

     Current dimensions of program PWSCF are:
     Max number of different atomic species (ntypx) = 10
     Max number of k-points (npk) =  40000
     Max angular momentum in pseudopotentials (lmaxx) =  4
     file C.pbe-n-kjpaw_psl.1.0.0.UPF: wavefunction(s)  2S 2P renormalized
     file O.pbe-n-kjpaw_psl.0.1.UPF: wavefunction(s)  2P renormalized
     Message from routine setup:
     using ibrav=0 with symmetry is DISCOURAGED, use correct ibrav instead

     Subspace diagonalization in iterative solution of the eigenvalue problem:
     one sub-group per band group will be used
     scalapack distributed-memory algorithm (size of sub-group:  2*  2 procs)

 
     Parallelization info
     --------------------
     sticks:   dense  smooth     PW     G-vecs:    dense   smooth      PW
     Min         516     259     79                13956     4918     809
     Max         517     260     80                13958     4919     810
     Sum        2067    1039    317                55829    19675    3237
 
     Using Slab Decomposition
 


     bravais-lattice index     =            0
     lattice parameter (alat)  =      12.1636  a.u.
     unit-cell volume          =     890.8622 (a.u.)^3
     number of atoms/cell      =           10
     number of atomic types    =            3
     number of electrons       =        62.00
     number of Kohn-Sham states=           64
     kinetic-energy cutoff     =      30.0000  Ry
     charge density cutoff     =     240.0000  Ry
     scf convergence threshold =      1.0E-06
     mixing beta               =       0.7000
     number of iterations used =            8  plain     mixing
     Exchange-correlation= SLA  PW   PBX  PBC
                           (   1   4   3   4   0   0   0)

     celldm(1)=  12.163604  celldm(2)=   0.000000  celldm(3)=   0.000000
     celldm(4)=   0.000000  celldm(5)=   0.000000  celldm(6)=   0.000000

     crystal axes: (cart. coord. in units of alat)
               a(1) = (   1.000000   0.000000   0.000000 )  
               a(2) = (   0.677415   0.735601   0.000000 )  
               a(3) = (   0.677415   0.297068   0.672948 )  

     reciprocal axes: (cart. coord. in units 2 pi/alat)
               b(1) = (  1.000000 -0.920901 -0.600113 )  
               b(2) = (  0.000000  1.359433 -0.600113 )  
               b(3) = (  0.000000  0.000000  1.485999 )  


     PseudoPot. # 1 for Na read from file:
     /home/pragov/projects/rrg-bengioy-ad/pragov/crystal_structure_design/SSSP/na_pbe_v1.5.uspp.F.UPF
     MD5 check sum: 44600605ef58000f06b90626533354dc
     Pseudo is Ultrasoft, Zval =  9.0
     Generated by new atomic code, or converted to UPF format
     Using radial grid of  819 points,  5 beta functions with: 
                l(1) =   0
                l(2) =   0
                l(3) =   1
                l(4) =   1
                l(5) =   2
     Q(r) pseudized with  8 coefficients,  rinner =    1.250   1.250   1.250
                                                       1.250   1.250

     PseudoPot. # 2 for C  read from file:
     /home/pragov/projects/rrg-bengioy-ad/pragov/crystal_structure_design/SSSP/C.pbe-n-kjpaw_psl.1.0.0.UPF
     MD5 check sum: 5d2aebdfa2cae82b50a7e79e9516da0f
     Pseudo is Projector augmented-wave + core cor, Zval =  4.0
     Generated using "atomic" code by A. Dal Corso  v.5.1
     Shape of augmentation charge: PSQ
     Using radial grid of 1073 points,  4 beta functions with: 
                l(1) =   0
                l(2) =   0
                l(3) =   1
                l(4) =   1
     Q(r) pseudized with 0 coefficients 


     PseudoPot. # 3 for O  read from file:
     /home/pragov/projects/rrg-bengioy-ad/pragov/crystal_structure_design/SSSP/O.pbe-n-kjpaw_psl.0.1.UPF
     MD5 check sum: 0234752ac141de4415c5fc33072bef88
     Pseudo is Projector augmented-wave + core cor, Zval =  6.0
     Generated using "atomic" code by A. Dal Corso  v.5.0.99 svn rev. 10869
     Shape of augmentation charge: BESSEL
     Using radial grid of 1095 points,  4 beta functions with: 
                l(1) =   0
                l(2) =   0
                l(3) =   1
                l(4) =   1
     Q(r) pseudized with 0 coefficients 


     atomic species   valence    mass     pseudopotential
        Na             9.00    22.98977     Na( 1.00)
        C              4.00    12.01100     C ( 1.00)
        O              6.00    15.99900     O ( 1.00)

      2 Sym. Ops., with inversion, found


                                    s                        frac. trans.

      isym =  1     identity                                     

 cryst.   s( 1) = (     1          0          0      )
                  (     0          1          0      )
                  (     0          0          1      )

 cart.    s( 1) = (  1.0000000  0.0000000  0.0000000 )
                  (  0.0000000  1.0000000  0.0000000 )
                  (  0.0000000  0.0000000  1.0000000 )


      isym =  2     inversion                                    

 cryst.   s( 2) = (    -1          0          0      )
                  (     0         -1          0      )
                  (     0          0         -1      )

 cart.    s( 2) = ( -1.0000000 -0.0000000 -0.0000000 )
                  (  0.0000000 -1.0000000 -0.0000000 )
                  (  0.0000000  0.0000000 -1.0000000 )


   Cartesian axes

     site n.     atom                  positions (alat units)
         1           Na  tau(   1) = (   1.1774153   0.5163346   0.3364740  )
         2           Na  tau(   2) = (   0.0000000   0.0000000   0.0000000  )
         3           C   tau(   3) = (   1.7661229   0.7745019   0.5047110  )
         4           C   tau(   4) = (   0.5887076   0.2581673   0.1682370  )
         5           O   tau(   5) = (   1.6862080   0.8480956   0.6714225  )
         6           O   tau(   6) = (   1.7661229   0.8831409   0.3379996  )
         7           O   tau(   7) = (   0.5087928   0.4403999   0.1682370  )
         8           O   tau(   8) = (   0.6686225   0.1845737   0.0015256  )
         9           O   tau(   9) = (   0.5887076   0.1495284   0.3349484  )
        10           O   tau(  10) = (   1.8460378   0.5922693   0.5047110  )

   Crystallographic axes

     site n.     atom                  positions (cryst. coord.)
         1           Na  tau(   1) = (  0.5000000  0.5000000  0.5000000  )
         2           Na  tau(   2) = (  0.0000000  0.0000000  0.0000000  )
         3           C   tau(   3) = (  0.7500000  0.7500000  0.7500000  )
         4           C   tau(   4) = (  0.2500000  0.2500000  0.2500000  )
         5           O   tau(   5) = (  0.5022670  0.7500000  0.9977330  )
         6           O   tau(   6) = (  0.7500000  0.9977330  0.5022670  )
         7           O   tau(   7) = (  0.0022670  0.4977330  0.2500000  )
         8           O   tau(   8) = (  0.4977330  0.2500000  0.0022670  )
         9           O   tau(   9) = (  0.2500000  0.0022670  0.4977330  )
        10           O   tau(  10) = (  0.9977330  0.5022670  0.7500000  )

     number of k points=    14
                       cart. coord. in units 2pi/alat
        k(    1) = (   0.0000000   0.0000000   0.0000000), wk =   0.0740741
        k(    2) = (   0.0000000   0.0000000   0.4953329), wk =   0.1481481
        k(    3) = (   0.0000000   0.4531443  -0.2000376), wk =   0.1481481
        k(    4) = (   0.0000000   0.4531443   0.2952954), wk =   0.1481481
        k(    5) = (   0.0000000   0.4531443  -0.6953705), wk =   0.1481481
        k(    6) = (   0.3333333  -0.3069669  -0.2000376), wk =   0.1481481
        k(    7) = (   0.3333333  -0.3069669   0.2952954), wk =   0.1481481
        k(    8) = (   0.3333333  -0.3069669  -0.6953705), wk =   0.1481481
        k(    9) = (   0.3333333   0.1461774  -0.4000751), wk =   0.1481481
        k(   10) = (   0.3333333   0.1461774   0.0952578), wk =   0.1481481
        k(   11) = (   0.3333333   0.1461774  -0.8954081), wk =   0.1481481
        k(   12) = (   0.3333333  -0.7601112   0.0000000), wk =   0.1481481
        k(   13) = (   0.3333333  -0.7601112   0.4953329), wk =   0.1481481
        k(   14) = (   0.3333333  -0.7601112  -0.4953329), wk =   0.1481481

                       cryst. coord.
        k(    1) = (   0.0000000   0.0000000   0.0000000), wk =   0.0740741
        k(    2) = (   0.0000000   0.0000000   0.3333333), wk =   0.1481481
        k(    3) = (   0.0000000   0.3333333   0.0000000), wk =   0.1481481
        k(    4) = (   0.0000000   0.3333333   0.3333333), wk =   0.1481481
        k(    5) = (   0.0000000   0.3333333  -0.3333333), wk =   0.1481481
        k(    6) = (   0.3333333  -0.0000000   0.0000000), wk =   0.1481481
        k(    7) = (   0.3333333  -0.0000000   0.3333333), wk =   0.1481481
        k(    8) = (   0.3333333  -0.0000000  -0.3333333), wk =   0.1481481
        k(    9) = (   0.3333333   0.3333333   0.0000000), wk =   0.1481481
        k(   10) = (   0.3333333   0.3333333   0.3333333), wk =   0.1481481
        k(   11) = (   0.3333333   0.3333333  -0.3333333), wk =   0.1481481
        k(   12) = (   0.3333333  -0.3333333  -0.0000000), wk =   0.1481481
        k(   13) = (   0.3333333  -0.3333333   0.3333333), wk =   0.1481481
        k(   14) = (   0.3333333  -0.3333333  -0.3333333), wk =   0.1481481

     Dense  grid:    55829 G-vectors     FFT dimensions: (  60,  60,  60)

     Smooth grid:    19675 G-vectors     FFT dimensions: (  45,  45,  45)

     Dynamical RAM for                 wfc:       0.60 MB

     Dynamical RAM for     wfc (w. buffer):       4.83 MB

     Dynamical RAM for           str. fact:       0.64 MB

     Dynamical RAM for           local pot:       0.00 MB

     Dynamical RAM for          nlocal pot:       0.85 MB

     Dynamical RAM for                qrad:       2.67 MB

     Dynamical RAM for          rho,v,vnew:       1.87 MB

     Dynamical RAM for               rhoin:       0.62 MB

     Dynamical RAM for            rho*nmix:       3.41 MB

     Dynamical RAM for           G-vectors:       0.84 MB

     Dynamical RAM for          h,s,v(r/c):       0.19 MB

     Dynamical RAM for          <psi|beta>:       0.09 MB

     Dynamical RAM for                 psi:       1.21 MB

     Dynamical RAM for                hpsi:       1.21 MB

     Dynamical RAM for                spsi:       1.21 MB

     Dynamical RAM for      wfcinit/wfcrot:       1.30 MB

     Dynamical RAM for           addusdens:      12.03 MB

     Estimated static dynamical RAM per process >      15.23 MB

     Estimated max dynamical RAM per process >      30.67 MB

     Estimated total dynamical RAM >     231.74 MB

     Check: negative core charge=   -0.000020

     Initial potential from superposition of free atoms

     starting charge      61.9873, renormalised to      62.0000
     Starting wfcs are   42 randomized atomic wfcs +   22 random wfcs
     Checking if some PAW data can be deallocated... 
       PAW data deallocated on    7 nodes for type:  2
       PAW data deallocated on    2 nodes for type:  3

     total cpu time spent up to now is        2.4 secs

     Self-consistent Calculation

     iteration #  1     ecut=    30.00 Ry     beta= 0.70
     Davidson diagonalization with overlap

---- Real-time Memory Report at c_bands before calling an iterative solver
           202 MiB given to the printing process from OS
             0 MiB allocation reported by mallinfo(arena+hblkhd)
        144767 MiB available memory on the node where the printing process lives
------------------
     ethr =  1.00E-02,  avg # of iterations =  6.1

     total cpu time spent up to now is        3.8 secs

     total energy              =    -477.01725718 Ry
     estimated scf accuracy    <       0.77285253 Ry

     iteration #  2     ecut=    30.00 Ry     beta= 0.70
     Davidson diagonalization with overlap

---- Real-time Memory Report at c_bands before calling an iterative solver
           227 MiB given to the printing process from OS
             0 MiB allocation reported by mallinfo(arena+hblkhd)
        144664 MiB available memory on the node where the printing process lives
------------------
     ethr =  1.25E-03,  avg # of iterations =  2.0

     total cpu time spent up to now is        4.6 secs

     total energy              =    -477.17846569 Ry
     estimated scf accuracy    <       0.47237365 Ry

     iteration #  3     ecut=    30.00 Ry     beta= 0.70
     Davidson diagonalization with overlap

---- Real-time Memory Report at c_bands before calling an iterative solver
           234 MiB given to the printing process from OS
             0 MiB allocation reported by mallinfo(arena+hblkhd)
        144617 MiB available memory on the node where the printing process lives
------------------
     ethr =  7.62E-04,  avg # of iterations =  2.0

     total cpu time spent up to now is        5.3 secs

     total energy              =    -477.28571059 Ry
     estimated scf accuracy    <       0.01814891 Ry

     iteration #  4     ecut=    30.00 Ry     beta= 0.70
     Davidson diagonalization with overlap

---- Real-time Memory Report at c_bands before calling an iterative solver
           234 MiB given to the printing process from OS
             0 MiB allocation reported by mallinfo(arena+hblkhd)
        144618 MiB available memory on the node where the printing process lives
------------------
     ethr =  2.93E-05,  avg # of iterations =  8.7

     total cpu time spent up to now is        6.4 secs

     total energy              =    -477.28200556 Ry
     estimated scf accuracy    <       0.05704531 Ry

     iteration #  5     ecut=    30.00 Ry     beta= 0.70
     Davidson diagonalization with overlap

---- Real-time Memory Report at c_bands before calling an iterative solver
           235 MiB given to the printing process from OS
             0 MiB allocation reported by mallinfo(arena+hblkhd)
        144609 MiB available memory on the node where the printing process lives
------------------
     ethr =  2.93E-05,  avg # of iterations =  1.0

     total cpu time spent up to now is        7.1 secs

     total energy              =    -477.29044433 Ry
     estimated scf accuracy    <       0.00548937 Ry

     iteration #  6     ecut=    30.00 Ry     beta= 0.70
     Davidson diagonalization with overlap

---- Real-time Memory Report at c_bands before calling an iterative solver
           235 MiB given to the printing process from OS
             0 MiB allocation reported by mallinfo(arena+hblkhd)
        144611 MiB available memory on the node where the printing process lives
------------------
     ethr =  8.85E-06,  avg # of iterations =  1.4

     total cpu time spent up to now is        7.8 secs

     total energy              =    -477.29095879 Ry
     estimated scf accuracy    <       0.00165141 Ry

     iteration #  7     ecut=    30.00 Ry     beta= 0.70
     Davidson diagonalization with overlap

---- Real-time Memory Report at c_bands before calling an iterative solver
           235 MiB given to the printing process from OS
             0 MiB allocation reported by mallinfo(arena+hblkhd)
        144614 MiB available memory on the node where the printing process lives
------------------
     ethr =  2.66E-06,  avg # of iterations =  2.3

     total cpu time spent up to now is        8.6 secs

     total energy              =    -477.29119271 Ry
     estimated scf accuracy    <       0.00007156 Ry

     iteration #  8     ecut=    30.00 Ry     beta= 0.70
     Davidson diagonalization with overlap

---- Real-time Memory Report at c_bands before calling an iterative solver
           235 MiB given to the printing process from OS
             0 MiB allocation reported by mallinfo(arena+hblkhd)
        144613 MiB available memory on the node where the printing process lives
------------------
     ethr =  1.15E-07,  avg # of iterations =  1.0

     total cpu time spent up to now is        9.3 secs

     End of self-consistent calculation

          k = 0.0000 0.0000 0.0000 (  2467 PWs)   bands (ev):

   -47.8002 -47.7991 -20.8077 -20.7242 -19.7410 -19.7410 -19.7135 -19.7135
   -19.7080 -19.6655 -17.5724 -17.5722 -17.4738 -17.4736  -6.3123  -6.1897
    -4.7171  -4.5746  -4.5745  -4.5049  -4.5048  -3.6608  -0.5125  -0.5124
    -0.4033  -0.4032  -0.2634  -0.2633   0.2831   0.2834   0.5949   0.8329
     6.9057   7.3684   7.3954  11.0297  12.2777  13.1996  13.1997  13.3691
    13.7448  13.7449  13.9660  14.4319  14.4319  14.6342  14.9455  14.9913
    14.9914  16.5535  17.8784  17.8786  18.2012  18.2014  18.6026  19.5009
    20.2764  21.7652  21.7652  23.3429  23.3429  23.8895  23.8895  24.5296

     occupation numbers 
     1.0000   1.0000   1.0000   1.0000   1.0000   1.0000   1.0000   1.0000
     1.0000   1.0000   1.0000   1.0000   1.0000   1.0000   1.0000   1.0000
     1.0000   1.0000   1.0000   1.0000   1.0000   1.0000   1.0000   1.0000
     1.0000   1.0000   1.0000   1.0000   1.0000   1.0000   1.0000   0.0000
     0.0000   0.0000   0.0000   0.0000   0.0000   0.0000   0.0000   0.0000
     0.0000   0.0000   0.0000   0.0000   0.0000   0.0000   0.0000   0.0000
     0.0000   0.0000   0.0000   0.0000   0.0000   0.0000   0.0000   0.0000
     0.0000   0.0000   0.0000   0.0000   0.0000   0.0000   0.0000   0.0000

          k = 0.0000 0.0000 0.4953 (  2488 PWs)   bands (ev):

   -47.8001 -47.7998 -20.7842 -20.7185 -19.7398 -19.7292 -19.7290 -19.7177
   -19.6912 -19.6858 -17.5617 -17.5578 -17.5428 -17.5087  -6.0821  -6.0411
    -4.6828  -4.5801  -4.4901  -4.4401  -4.3460  -3.8813  -0.9132  -0.9041
    -0.6806  -0.6588  -0.1969  -0.1371   0.0713   0.1003   0.9175   0.9965
     7.4660   7.5328   8.1340  10.5667  11.5758  12.1313  12.2579  12.5801
    13.0018  13.1460  13.7600  14.8425  15.0437  15.6087  15.9068  16.6837
    16.8807  17.5914  17.7804  18.0990  18.4778  18.5982  19.4544  20.1720
    20.4959  20.8447  20.9536  21.5940  21.7409  22.6470  23.0323  23.4330

     occupation numbers 
     1.0000   1.0000   1.0000   1.0000   1.0000   1.0000   1.0000   1.0000
     1.0000   1.0000   1.0000   1.0000   1.0000   1.0000   1.0000   1.0000
     1.0000   1.0000   1.0000   1.0000   1.0000   1.0000   1.0000   1.0000
     1.0000   1.0000   1.0000   1.0000   1.0000   1.0000   1.0000   0.0000
     0.0000   0.0000   0.0000   0.0000   0.0000   0.0000   0.0000   0.0000
     0.0000   0.0000   0.0000   0.0000   0.0000   0.0000   0.0000   0.0000
     0.0000   0.0000   0.0000   0.0000   0.0000   0.0000   0.0000   0.0000
     0.0000   0.0000   0.0000   0.0000   0.0000   0.0000   0.0000   0.0000

          k = 0.0000 0.4531-0.2000 (  2488 PWs)   bands (ev):

   -47.8001 -47.7998 -20.7842 -20.7185 -19.7398 -19.7292 -19.7290 -19.7177
   -19.6912 -19.6858 -17.5617 -17.5578 -17.5428 -17.5087  -6.0821  -6.0411
    -4.6828  -4.5800  -4.4901  -4.4401  -4.3460  -3.8813  -0.9132  -0.9040
    -0.6806  -0.6589  -0.1969  -0.1371   0.0714   0.1003   0.9175   0.9966
     7.4661   7.5328   8.1340  10.5667  11.5758  12.1313  12.2579  12.5801
    13.0017  13.1460  13.7601  14.8425  15.0437  15.6087  15.9067  16.6837
    16.8807  17.5913  17.7803  18.0989  18.4779  18.5982  19.4545  20.1721
    20.4959  20.8447  20.9535  21.5940  21.7409  22.6471  23.0324  23.4330

     occupation numbers 
     1.0000   1.0000   1.0000   1.0000   1.0000   1.0000   1.0000   1.0000
     1.0000   1.0000   1.0000   1.0000   1.0000   1.0000   1.0000   1.0000
     1.0000   1.0000   1.0000   1.0000   1.0000   1.0000   1.0000   1.0000
     1.0000   1.0000   1.0000   1.0000   1.0000   1.0000   1.0000   0.0000
     0.0000   0.0000   0.0000   0.0000   0.0000   0.0000   0.0000   0.0000
     0.0000   0.0000   0.0000   0.0000   0.0000   0.0000   0.0000   0.0000
     0.0000   0.0000   0.0000   0.0000   0.0000   0.0000   0.0000   0.0000
     0.0000   0.0000   0.0000   0.0000   0.0000   0.0000   0.0000   0.0000

          k = 0.0000 0.4531 0.2953 (  2470 PWs)   bands (ev):

   -47.8000 -47.7994 -20.7956 -20.7048 -19.7430 -19.7373 -19.7129 -19.7103
   -19.7068 -19.6773 -17.5825 -17.5541 -17.5350 -17.4991  -6.0691  -6.0521
    -4.6690  -4.5163  -4.5133  -4.4794  -4.3237  -3.8876  -0.9175  -0.8146
    -0.6514  -0.5793  -0.3765  -0.1649  -0.0427   0.2387   0.9427   0.9908
     7.4427   7.5789   8.3411  11.0008  11.2264  11.4208  11.7646  12.1012
    13.2702  14.2471  14.3148  14.9422  15.0556  15.9802  16.0008  16.2449
    16.6392  16.8761  17.9105  18.0311  18.5554  18.7997  19.5917  20.1510
    20.2783  20.3038  21.2288  21.5204  22.2917  22.5513  23.1111  23.5118

     occupation numbers 
     1.0000   1.0000   1.0000   1.0000   1.0000   1.0000   1.0000   1.0000
     1.0000   1.0000   1.0000   1.0000   1.0000   1.0000   1.0000   1.0000
     1.0000   1.0000   1.0000   1.0000   1.0000   1.0000   1.0000   1.0000
     1.0000   1.0000   1.0000   1.0000   1.0000   1.0000   1.0000   0.0000
     0.0000   0.0000   0.0000   0.0000   0.0000   0.0000   0.0000   0.0000
     0.0000   0.0000   0.0000   0.0000   0.0000   0.0000   0.0000   0.0000
     0.0000   0.0000   0.0000   0.0000   0.0000   0.0000   0.0000   0.0000
     0.0000   0.0000   0.0000   0.0000   0.0000   0.0000   0.0000   0.0000

          k = 0.0000 0.4531-0.6954 (  2464 PWs)   bands (ev):

   -47.7997 -47.7996 -20.7448 -20.7441 -19.7387 -19.7331 -19.7204 -19.7094
   -19.6930 -19.6885 -17.5866 -17.5857 -17.5193 -17.5177  -5.9426  -5.9375
    -4.6447  -4.5721  -4.5395  -4.4485  -4.0835  -4.0734  -0.9912  -0.9815
    -0.7990  -0.7753  -0.3273  -0.2755   0.0849   0.1193   1.0844   1.0912
     7.6260   7.6312   9.5895   9.8548  10.4979  11.4257  11.7722  12.5064
    12.7929  13.2264  14.5028  15.5395  15.5969  15.7350  16.2623  16.6261
    17.2858  17.4933  17.6855  17.8417  19.4483  19.6882  19.6975  19.9235
    20.1638  20.7938  21.1042  21.2544  21.6971  21.9895  22.6542  23.1733

     occupation numbers 
     1.0000   1.0000   1.0000   1.0000   1.0000   1.0000   1.0000   1.0000
     1.0000   1.0000   1.0000   1.0000   1.0000   1.0000   1.0000   1.0000
     1.0000   1.0000   1.0000   1.0000   1.0000   1.0000   1.0000   1.0000
     1.0000   1.0000   1.0000   1.0000   1.0000   1.0000   1.0000   0.0000
     0.0000   0.0000   0.0000   0.0000   0.0000   0.0000   0.0000   0.0000
     0.0000   0.0000   0.0000   0.0000   0.0000   0.0000   0.0000   0.0000
     0.0000   0.0000   0.0000   0.0000   0.0000   0.0000   0.0000   0.0000
     0.0000   0.0000   0.0000   0.0000   0.0000   0.0000   0.0000   0.0000

          k = 0.3333-0.3070-0.2000 (  2488 PWs)   bands (ev):

   -47.8001 -47.7998 -20.7842 -20.7185 -19.7398 -19.7292 -19.7290 -19.7177
   -19.6912 -19.6858 -17.5618 -17.5577 -17.5429 -17.5085  -6.0820  -6.0411
    -4.6828  -4.5801  -4.4901  -4.4401  -4.3460  -3.8813  -0.9132  -0.9040
    -0.6806  -0.6588  -0.1970  -0.1370   0.0712   0.1005   0.9175   0.9965
     7.4660   7.5328   8.1340  10.5667  11.5758  12.1313  12.2579  12.5801
    13.0018  13.1461  13.7600  14.8425  15.0437  15.6087  15.9068  16.6837
    16.8807  17.5914  17.7804  18.0990  18.4778  18.5982  19.4544  20.1720
    20.4959  20.8447  20.9536  21.5940  21.7409  22.6470  23.0323  23.4331

     occupation numbers 
     1.0000   1.0000   1.0000   1.0000   1.0000   1.0000   1.0000   1.0000
     1.0000   1.0000   1.0000   1.0000   1.0000   1.0000   1.0000   1.0000
     1.0000   1.0000   1.0000   1.0000   1.0000   1.0000   1.0000   1.0000
     1.0000   1.0000   1.0000   1.0000   1.0000   1.0000   1.0000   0.0000
     0.0000   0.0000   0.0000   0.0000   0.0000   0.0000   0.0000   0.0000
     0.0000   0.0000   0.0000   0.0000   0.0000   0.0000   0.0000   0.0000
     0.0000   0.0000   0.0000   0.0000   0.0000   0.0000   0.0000   0.0000
     0.0000   0.0000   0.0000   0.0000   0.0000   0.0000   0.0000   0.0000

          k = 0.3333-0.3070 0.2953 (  2470 PWs)   bands (ev):

   -47.8000 -47.7994 -20.7956 -20.7048 -19.7430 -19.7373 -19.7129 -19.7103
   -19.7068 -19.6773 -17.5824 -17.5542 -17.5349 -17.4993  -6.0692  -6.0521
    -4.6690  -4.5162  -4.5133  -4.4793  -4.3238  -3.8876  -0.9175  -0.8146
    -0.6514  -0.5793  -0.3766  -0.1647  -0.0425   0.2385   0.9427   0.9908
     7.4427   7.5789   8.3412  11.0008  11.2264  11.4209  11.7646  12.1012
    13.2702  14.2471  14.3148  14.9422  15.0556  15.9802  16.0008  16.2449
    16.6392  16.8760  17.9104  18.0310  18.5555  18.7998  19.5918  20.1511
    20.2783  20.3038  21.2288  21.5204  22.2916  22.5514  23.1110  23.5120

     occupation numbers 
     1.0000   1.0000   1.0000   1.0000   1.0000   1.0000   1.0000   1.0000
     1.0000   1.0000   1.0000   1.0000   1.0000   1.0000   1.0000   1.0000
     1.0000   1.0000   1.0000   1.0000   1.0000   1.0000   1.0000   1.0000
     1.0000   1.0000   1.0000   1.0000   1.0000   1.0000   1.0000   0.0000
     0.0000   0.0000   0.0000   0.0000   0.0000   0.0000   0.0000   0.0000
     0.0000   0.0000   0.0000   0.0000   0.0000   0.0000   0.0000   0.0000
     0.0000   0.0000   0.0000   0.0000   0.0000   0.0000   0.0000   0.0000
     0.0000   0.0000   0.0000   0.0000   0.0000   0.0000   0.0000   0.0000

          k = 0.3333-0.3070-0.6954 (  2464 PWs)   bands (ev):

   -47.7997 -47.7996 -20.7448 -20.7441 -19.7387 -19.7331 -19.7204 -19.7094
   -19.6930 -19.6885 -17.5864 -17.5858 -17.5191 -17.5179  -5.9426  -5.9375
    -4.6447  -4.5721  -4.5395  -4.4485  -4.0835  -4.0734  -0.9912  -0.9816
    -0.7989  -0.7754  -0.3271  -0.2757   0.0851   0.1191   1.0844   1.0912
     7.6260   7.6312   9.5895   9.8548  10.4979  11.4258  11.7721  12.5063
    12.7929  13.2264  14.5028  15.5395  15.5968  15.7351  16.2624  16.6259
    17.2857  17.4934  17.6855  17.8416  19.4483  19.6881  19.6975  19.9236
    20.1638  20.7938  21.1043  21.2544  21.6971  21.9895  22.6542  23.1734

     occupation numbers 
     1.0000   1.0000   1.0000   1.0000   1.0000   1.0000   1.0000   1.0000
     1.0000   1.0000   1.0000   1.0000   1.0000   1.0000   1.0000   1.0000
     1.0000   1.0000   1.0000   1.0000   1.0000   1.0000   1.0000   1.0000
     1.0000   1.0000   1.0000   1.0000   1.0000   1.0000   1.0000   0.0000
     0.0000   0.0000   0.0000   0.0000   0.0000   0.0000   0.0000   0.0000
     0.0000   0.0000   0.0000   0.0000   0.0000   0.0000   0.0000   0.0000
     0.0000   0.0000   0.0000   0.0000   0.0000   0.0000   0.0000   0.0000
     0.0000   0.0000   0.0000   0.0000   0.0000   0.0000   0.0000   0.0000

          k = 0.3333 0.1462-0.4001 (  2470 PWs)   bands (ev):

   -47.8000 -47.7994 -20.7956 -20.7048 -19.7430 -19.7373 -19.7129 -19.7103
   -19.7068 -19.6773 -17.5824 -17.5542 -17.5349 -17.4993  -6.0692  -6.0521
    -4.6691  -4.5162  -4.5133  -4.4793  -4.3237  -3.8876  -0.9176  -0.8147
    -0.6513  -0.5792  -0.3766  -0.1648  -0.0425   0.2385   0.9427   0.9908
     7.4427   7.5789   8.3411  11.0008  11.2264  11.4209  11.7646  12.1012
    13.2702  14.2471  14.3148  14.9422  15.0556  15.9802  16.0008  16.2449
    16.6392  16.8761  17.9106  18.0311  18.5554  18.7997  19.5917  20.1510
    20.2783  20.3038  21.2288  21.5204  22.2916  22.5513  23.1111  23.5122

     occupation numbers 
     1.0000   1.0000   1.0000   1.0000   1.0000   1.0000   1.0000   1.0000
     1.0000   1.0000   1.0000   1.0000   1.0000   1.0000   1.0000   1.0000
     1.0000   1.0000   1.0000   1.0000   1.0000   1.0000   1.0000   1.0000
     1.0000   1.0000   1.0000   1.0000   1.0000   1.0000   1.0000   0.0000
     0.0000   0.0000   0.0000   0.0000   0.0000   0.0000   0.0000   0.0000
     0.0000   0.0000   0.0000   0.0000   0.0000   0.0000   0.0000   0.0000
     0.0000   0.0000   0.0000   0.0000   0.0000   0.0000   0.0000   0.0000
     0.0000   0.0000   0.0000   0.0000   0.0000   0.0000   0.0000   0.0000

          k = 0.3333 0.1462 0.0953 (  2470 PWs)   bands (ev):

   -47.7998 -47.7995 -20.7863 -20.7455 -19.7346 -19.7346 -19.7205 -19.7205
   -19.6951 -19.6778 -17.5489 -17.5487 -17.4987 -17.4985  -6.3025  -6.2559
    -4.5595  -4.5594  -4.5177  -4.5176  -4.4050  -3.9085  -0.4934  -0.4933
    -0.4309  -0.4309  -0.1480  -0.1478   0.1224   0.1227   0.6533   0.7521
     6.9872   7.2436   8.0409   9.7182  12.2221  13.0307  13.0307  13.1346
    13.3402  13.3402  14.3627  15.0135  15.0136  15.1352  15.6227  15.6228
    15.7227  16.3639  17.7223  17.7225  17.9949  17.9951  18.3383  19.1045
    21.6170  21.6171  22.2256  22.2256  22.7755  22.8120  23.6976  24.5472

     occupation numbers 
     1.0000   1.0000   1.0000   1.0000   1.0000   1.0000   1.0000   1.0000
     1.0000   1.0000   1.0000   1.0000   1.0000   1.0000   1.0000   1.0000
     1.0000   1.0000   1.0000   1.0000   1.0000   1.0000   1.0000   1.0000
     1.0000   1.0000   1.0000   1.0000   1.0000   1.0000   1.0000   0.0000
     0.0000   0.0000   0.0000   0.0000   0.0000   0.0000   0.0000   0.0000
     0.0000   0.0000   0.0000   0.0000   0.0000   0.0000   0.0000   0.0000
     0.0000   0.0000   0.0000   0.0000   0.0000   0.0000   0.0000   0.0000
     0.0000   0.0000   0.0000   0.0000   0.0000   0.0000   0.0000   0.0000

          k = 0.3333 0.1462-0.8954 (  2474 PWs)   bands (ev):

   -47.7998 -47.7997 -20.7641 -20.7390 -19.7446 -19.7284 -19.7194 -19.7111
   -19.7042 -19.6781 -17.5844 -17.5376 -17.5289 -17.5207  -6.0842  -6.0631
    -4.6309  -4.5382  -4.4965  -4.4780  -4.1110  -4.1096  -0.9044  -0.7660
    -0.6611  -0.6189  -0.3684  -0.1830   0.0465   0.1315   0.9405   0.9758
     7.4601   7.4945   9.2647   9.6522  10.5273  11.4586  12.1345  13.1088
    13.4195  13.5913  14.7881  14.8478  15.2720  15.6279  16.1652  16.4078
    16.5002  17.2874  17.7585  17.9064  18.5633  18.7100  19.9037  19.9516
    20.0883  20.7072  21.1835  21.2497  21.9767  22.7039  22.7518  23.5937

     occupation numbers 
     1.0000   1.0000   1.0000   1.0000   1.0000   1.0000   1.0000   1.0000
     1.0000   1.0000   1.0000   1.0000   1.0000   1.0000   1.0000   1.0000
     1.0000   1.0000   1.0000   1.0000   1.0000   1.0000   1.0000   1.0000
     1.0000   1.0000   1.0000   1.0000   1.0000   1.0000   1.0000   0.0000
     0.0000   0.0000   0.0000   0.0000   0.0000   0.0000   0.0000   0.0000
     0.0000   0.0000   0.0000   0.0000   0.0000   0.0000   0.0000   0.0000
     0.0000   0.0000   0.0000   0.0000   0.0000   0.0000   0.0000   0.0000
     0.0000   0.0000   0.0000   0.0000   0.0000   0.0000   0.0000   0.0000

          k = 0.3333-0.7601 0.0000 (  2464 PWs)   bands (ev):

   -47.7997 -47.7996 -20.7448 -20.7441 -19.7387 -19.7331 -19.7204 -19.7094
   -19.6930 -19.6885 -17.5864 -17.5858 -17.5191 -17.5179  -5.9426  -5.9375
    -4.6446  -4.5722  -4.5394  -4.4486  -4.0835  -4.0734  -0.9911  -0.9816
    -0.7989  -0.7754  -0.3271  -0.2757   0.0851   0.1191   1.0844   1.0912
     7.6260   7.6312   9.5895   9.8548  10.4979  11.4258  11.7722  12.5063
    12.7929  13.2264  14.5028  15.5395  15.5969  15.7351  16.2623  16.6260
    17.2858  17.4933  17.6855  17.8417  19.4483  19.6882  19.6975  19.9235
    20.1638  20.7938  21.1043  21.2544  21.6971  21.9895  22.6546  23.1766

     occupation numbers 
     1.0000   1.0000   1.0000   1.0000   1.0000   1.0000   1.0000   1.0000
     1.0000   1.0000   1.0000   1.0000   1.0000   1.0000   1.0000   1.0000
     1.0000   1.0000   1.0000   1.0000   1.0000   1.0000   1.0000   1.0000
     1.0000   1.0000   1.0000   1.0000   1.0000   1.0000   1.0000   0.0000
     0.0000   0.0000   0.0000   0.0000   0.0000   0.0000   0.0000   0.0000
     0.0000   0.0000   0.0000   0.0000   0.0000   0.0000   0.0000   0.0000
     0.0000   0.0000   0.0000   0.0000   0.0000   0.0000   0.0000   0.0000
     0.0000   0.0000   0.0000   0.0000   0.0000   0.0000   0.0000   0.0000

          k = 0.3333-0.7601 0.4953 (  2474 PWs)   bands (ev):

   -47.7998 -47.7997 -20.7641 -20.7390 -19.7446 -19.7284 -19.7194 -19.7111
   -19.7042 -19.6781 -17.5844 -17.5376 -17.5289 -17.5207  -6.0842  -6.0631
    -4.6309  -4.5381  -4.4965  -4.4780  -4.1110  -4.1096  -0.9044  -0.7659
    -0.6611  -0.6190  -0.3684  -0.1830   0.0465   0.1314   0.9405   0.9758
     7.4601   7.4945   9.2647   9.6522  10.5273  11.4586  12.1345  13.1087
    13.4196  13.5913  14.7881  14.8479  15.2720  15.6280  16.1652  16.4078
    16.5002  17.2874  17.7584  17.9062  18.5633  18.7101  19.9037  19.9517
    20.0883  20.7073  21.1834  21.2497  21.9767  22.7038  22.7518  23.5935

     occupation numbers 
     1.0000   1.0000   1.0000   1.0000   1.0000   1.0000   1.0000   1.0000
     1.0000   1.0000   1.0000   1.0000   1.0000   1.0000   1.0000   1.0000
     1.0000   1.0000   1.0000   1.0000   1.0000   1.0000   1.0000   1.0000
     1.0000   1.0000   1.0000   1.0000   1.0000   1.0000   1.0000   0.0000
     0.0000   0.0000   0.0000   0.0000   0.0000   0.0000   0.0000   0.0000
     0.0000   0.0000   0.0000   0.0000   0.0000   0.0000   0.0000   0.0000
     0.0000   0.0000   0.0000   0.0000   0.0000   0.0000   0.0000   0.0000
     0.0000   0.0000   0.0000   0.0000   0.0000   0.0000   0.0000   0.0000

          k = 0.3333-0.7601-0.4953 (  2474 PWs)   bands (ev):

   -47.7998 -47.7997 -20.7641 -20.7390 -19.7446 -19.7284 -19.7194 -19.7111
   -19.7042 -19.6781 -17.5846 -17.5375 -17.5289 -17.5207  -6.0842  -6.0631
    -4.6309  -4.5381  -4.4965  -4.4780  -4.1110  -4.1095  -0.9043  -0.7659
    -0.6611  -0.6189  -0.3685  -0.1829   0.0463   0.1316   0.9405   0.9758
     7.4601   7.4945   9.2648   9.6522  10.5273  11.4586  12.1345  13.1088
    13.4195  13.5914  14.7881  14.8478  15.2720  15.6279  16.1652  16.4078
    16.5002  17.2874  17.7585  17.9064  18.5633  18.7100  19.9036  19.9517
    20.0883  20.7072  21.1835  21.2497  21.9767  22.7039  22.7518  23.5934

     occupation numbers 
     1.0000   1.0000   1.0000   1.0000   1.0000   1.0000   1.0000   1.0000
     1.0000   1.0000   1.0000   1.0000   1.0000   1.0000   1.0000   1.0000
     1.0000   1.0000   1.0000   1.0000   1.0000   1.0000   1.0000   1.0000
     1.0000   1.0000   1.0000   1.0000   1.0000   1.0000   1.0000   0.0000
     0.0000   0.0000   0.0000   0.0000   0.0000   0.0000   0.0000   0.0000
     0.0000   0.0000   0.0000   0.0000   0.0000   0.0000   0.0000   0.0000
     0.0000   0.0000   0.0000   0.0000   0.0000   0.0000   0.0000   0.0000
     0.0000   0.0000   0.0000   0.0000   0.0000   0.0000   0.0000   0.0000

     highest occupied, lowest unoccupied level (ev):     1.0844    0.7521

!    total energy              =    -477.29120119 Ry
     estimated scf accuracy    <       0.00000022 Ry

     The total energy is the sum of the following terms:
     one-electron contribution =    -258.07518558 Ry
     hartree contribution      =     153.65555221 Ry
     xc contribution           =     -82.30739159 Ry
     ewald contribution        =    -221.07125597 Ry
     one-center paw contrib.   =     -69.49292026 Ry
      -> PAW hartree energy AE =       0.00000000 Ry
      -> PAW hartree energy PS =       0.00000000 Ry
      -> PAW xc energy AE      =       0.00000000 Ry
      -> PAW xc energy PS      =       0.00000000 Ry
      -> total E_H with PAW    =     153.65555221 Ry
      -> total E_XC with PAW   =     -82.30739159 Ry

     convergence has been achieved in   8 iterations

     Writing all to output data dir calculations_bands_val/myprefix.save/
 
     init_run     :      6.59s CPU      2.22s WALL (       1 calls)
     electrons    :     26.33s CPU      6.92s WALL (       1 calls)

     Called by init_run:
     wfcinit      :      2.01s CPU      0.52s WALL (       1 calls)
     wfcinit:atom :      0.00s CPU      0.00s WALL (       7 calls)
     wfcinit:wfcr :      1.98s CPU      0.52s WALL (       7 calls)
     potinit      :      1.28s CPU      0.34s WALL (       1 calls)
     hinit0       :      2.43s CPU      1.11s WALL (       1 calls)

     Called by electrons:
     c_bands      :     20.36s CPU      5.32s WALL (       8 calls)
     sum_band     :      3.77s CPU      1.01s WALL (       8 calls)
     v_of_rho     :      0.56s CPU      0.15s WALL (       9 calls)
     v_h          :      0.04s CPU      0.01s WALL (       9 calls)
     v_xc         :      0.52s CPU      0.14s WALL (       9 calls)
     newd         :      0.52s CPU      0.14s WALL (       9 calls)
     PAW_pot      :      1.12s CPU      0.29s WALL (       9 calls)
     mix_rho      :      0.11s CPU      0.03s WALL (       8 calls)

     Called by c_bands:
     init_us_2    :      0.09s CPU      0.02s WALL (     119 calls)
     init_us_2:cp :      0.09s CPU      0.02s WALL (     119 calls)
     cegterg      :     19.46s CPU      5.08s WALL (      56 calls)

     Called by sum_band:
     sum_band:wei :      0.00s CPU      0.00s WALL (       8 calls)
     sum_band:loo :      3.22s CPU      0.83s WALL (       8 calls)
     sum_band:buf :      0.04s CPU      0.01s WALL (      56 calls)
     sum_band:ini :      0.04s CPU      0.01s WALL (      56 calls)
     sum_band:cal :      0.10s CPU      0.02s WALL (      56 calls)
     sum_band:bec :      0.02s CPU      0.01s WALL (      56 calls)
     addusdens    :      0.35s CPU      0.13s WALL (       8 calls)
     addusd:skk   :      0.01s CPU      0.00s WALL (      24 calls)
     addusd:dgemm :      0.05s CPU      0.05s WALL (      24 calls)
     addusd:qvan2 :      0.24s CPU      0.06s WALL (      24 calls)

     Called by *egterg:
     cdiaghg      :      3.88s CPU      1.02s WALL (     233 calls)
     cegterg:over :      0.52s CPU      0.14s WALL (     177 calls)
     cegterg:upda :      0.26s CPU      0.07s WALL (     177 calls)
     cegterg:last :      0.43s CPU      0.11s WALL (     105 calls)
     cdiaghg:chol :      0.30s CPU      0.08s WALL (     233 calls)
     cdiaghg:inve :      0.06s CPU      0.01s WALL (     233 calls)
     cdiaghg:para :      0.61s CPU      0.16s WALL (     466 calls)
     h_psi        :     15.71s CPU      4.09s WALL (     240 calls)
     s_psi        :      0.14s CPU      0.04s WALL (     240 calls)
     g_psi        :      0.02s CPU      0.00s WALL (     177 calls)

     Called by h_psi:
     h_psi:calbec :      0.34s CPU      0.09s WALL (     240 calls)
     vloc_psi     :     15.13s CPU      3.94s WALL (     240 calls)
     add_vuspsi   :      0.19s CPU      0.05s WALL (     240 calls)

     General routines
     calbec       :      0.43s CPU      0.11s WALL (     296 calls)
     fft          :      1.37s CPU      0.50s WALL (     115 calls)
     ffts         :      0.44s CPU      0.12s WALL (      17 calls)
     fftw         :     16.11s CPU      4.19s WALL (   21330 calls)
     interpolate  :      0.46s CPU      0.12s WALL (       9 calls)
 
     Parallel routines

     PAW routines
     PAW_pot      :      1.12s CPU      0.29s WALL (       9 calls)
     PAW_symme    :      0.23s CPU      0.06s WALL (      17 calls)
 
     PWSCF        :     34.87s CPU      9.95s WALL

 
   This run was terminated on:  10:47:18   4Jun2023            

=------------------------------------------------------------------------------=
   JOB DONE.
=------------------------------------------------------------------------------=
