
     Program PWSCF v.7.0 starts on  4Jun2023 at 13:31:36 

     This program is part of the open-source Quantum ESPRESSO suite
     for quantum simulation of materials; please cite
         "P. Giannozzi et al., J. Phys.:Condens. Matter 21 395502 (2009);
         "P. Giannozzi et al., J. Phys.:Condens. Matter 29 465901 (2017);
         "P. Giannozzi et al., J. Chem. Phys. 152 154105 (2020);
          URL http://www.quantum-espresso.org", 
     in publications or presentations arising from this work. More details at
     http://www.quantum-espresso.org/quote

     Parallel version (MPI & OpenMP), running on      32 processor cores
     Number of MPI processes:                 8
     Threads/MPI process:                     4

     MPI processes distributed on     1 nodes
     K-points division:     npool     =       2
     R & G space division:  proc/nbgrp/npool/nimage =       4
     142280 MiB available memory on the printing compute node when the environment starts
 
     Reading input from espresso_607.pwi
Warning: card &CELL ignored
Warning: card / ignored

     Current dimensions of program PWSCF are:
     Max number of different atomic species (ntypx) = 10
     Max number of k-points (npk) =  40000
     Max angular momentum in pseudopotentials (lmaxx) =  4
     Message from routine setup:
     using ibrav=0 with symmetry is DISCOURAGED, use correct ibrav instead

     Subspace diagonalization in iterative solution of the eigenvalue problem:
     one sub-group per band group will be used
     scalapack distributed-memory algorithm (size of sub-group:  2*  2 procs)

 
     Parallelization info
     --------------------
     sticks:   dense  smooth     PW     G-vecs:    dense   smooth      PW
     Min         645     322    107                 8944     3184     596
     Max         647     323    108                 8945     3185     597
     Sum        2583    1291    429                35779    12737    2385
 
     Using Slab Decomposition
 


     bravais-lattice index     =            0
     lattice parameter (alat)  =      16.6436  a.u.
     unit-cell volume          =     569.0856 (a.u.)^3
     number of atoms/cell      =            8
     number of atomic types    =            2
     number of electrons       =        68.00
     number of Kohn-Sham states=           64
     kinetic-energy cutoff     =      30.0000  Ry
     charge density cutoff     =     240.0000  Ry
     scf convergence threshold =      1.0E-06
     mixing beta               =       0.7000
     number of iterations used =            8  plain     mixing
     Exchange-correlation= SLA  PW   PBE  PBE
                           (   1   4   3   4   0   0   0)

     celldm(1)=  16.643551  celldm(2)=   0.000000  celldm(3)=   0.000000
     celldm(4)=   0.000000  celldm(5)=   0.000000  celldm(6)=   0.000000

     crystal axes: (cart. coord. in units of alat)
               a(1) = (   1.000000   0.000000   0.000000 )  
               a(2) = (   0.872429   0.488741   0.000000 )  
               a(3) = (  -0.936215  -0.244370   0.252558 )  

     reciprocal axes: (cart. coord. in units 2 pi/alat)
               b(1) = (  1.000000 -1.785054  1.979744 )  
               b(2) = (  0.000000  2.046074  1.979744 )  
               b(3) = (  0.000000  0.000000  3.959488 )  


     PseudoPot. # 1 for B  read from file:
     /home/pragov/projects/rrg-bengioy-ad/pragov/crystal_structure_design/SSSP/b_pbe_v1.4.uspp.F.UPF
     MD5 check sum: cc6de2960df11db49a60e589f9ebb39b
     Pseudo is Ultrasoft + core correction, Zval =  3.0
     Generated by new atomic code, or converted to UPF format
     Using radial grid of  781 points,  4 beta functions with: 
                l(1) =   0
                l(2) =   0
                l(3) =   1
                l(4) =   1
     Q(r) pseudized with  8 coefficients,  rinner =    1.100   1.100   1.100


     PseudoPot. # 2 for W  read from file:
     /home/pragov/projects/rrg-bengioy-ad/pragov/crystal_structure_design/SSSP/W_pbe_v1.2.uspp.F.UPF
     MD5 check sum: 9c083fa34c2a2ea0f02f1f893e16e1c8
     Pseudo is Ultrasoft + core correction, Zval = 14.0
     Generated by new atomic code, or converted to UPF format
     Using radial grid of  923 points,  8 beta functions with: 
                l(1) =   0
                l(2) =   0
                l(3) =   0
                l(4) =   1
                l(5) =   1
                l(6) =   2
                l(7) =   2
                l(8) =   3
     Q(r) pseudized with  6 coefficients,  rinner =    1.350   1.350   1.350
                                                       1.350   1.350   1.350
                                                       1.350

     atomic species   valence    mass     pseudopotential
        B              3.00    10.81000     B ( 1.00)
        W             14.00   183.84000     W ( 1.00)

      4 Sym. Ops., with inversion, found ( 2 have fractional translation)


                                    s                        frac. trans.

      isym =  1     identity                                     

 cryst.   s( 1) = (     1          0          0      )
                  (     0          1          0      )
                  (     0          0          1      )

 cart.    s( 1) = (  1.0000000 -0.0000000 -0.0000000 )
                  (  0.0000000  1.0000000 -0.0000000 )
                  (  0.0000000  0.0000000  1.0000000 )


      isym =  2     180 deg rotation - cart. axis [0,0,1]        

 cryst.   s( 2) = (    -1          0          0      )
                  (     0         -1          0      )
                  (     1          1          1      )

 cart.    s( 2) = ( -1.0000000  0.0000000  0.0000000 )
                  (  0.0000000 -1.0000000  0.0000000 )
                  (  0.0000000  0.0000000  1.0000000 )


      isym =  3     inversion                                    

 cryst.   s( 3) = (    -1          0          0      )    f =(  0.2500000 )
                  (     0         -1          0      )       ( -0.2500000 )
                  (     0          0         -1      )       (  0.5000000 )

 cart.    s( 3) = ( -1.0000000  0.0000000  0.0000000 )    f =( -0.4362145 )
                  (  0.0000000 -1.0000000  0.0000000 )       ( -0.2443704 )
                  (  0.0000000  0.0000000 -1.0000000 )       (  0.1262790 )


      isym =  4     inv. 180 deg rotation - cart. axis [0,0,1]   

 cryst.   s( 4) = (     1          0          0      )    f =(  0.2500000 )
                  (     0          1          0      )       ( -0.2500000 )
                  (    -1         -1         -1      )       (  0.5000000 )

 cart.    s( 4) = (  1.0000000 -0.0000000 -0.0000000 )    f =( -0.4362145 )
                  (  0.0000000  1.0000000 -0.0000000 )       ( -0.2443704 )
                  (  0.0000000  0.0000000 -1.0000000 )       (  0.1262790 )


   Cartesian axes

     site n.     atom                  positions (alat units)
         1           B   tau(   1) = (   0.7924753   0.0763418   0.1262790  )
         2           B   tau(   2) = (   0.2924753   0.0763418   0.0000000  )
         3           B   tau(   3) = (   1.5799537   0.4123991   0.0000000  )
         4           B   tau(   4) = (   0.2075247  -0.0763418   0.1262790  )
         5           W   tau(   5) = (   0.0676063   0.1481564   0.1262790  )
         6           W   tau(   6) = (   0.5676063   0.1481564   0.0000000  )
         7           W   tau(   7) = (   1.3048227   0.3405845   0.0000000  )
         8           W   tau(   8) = (   0.8048227   0.3405845   0.1262790  )

   Crystallographic axes

     site n.     atom                  positions (cryst. coord.)
         1           B   tau(   1) = (  0.9062010  0.4062010  0.5000000  )
         2           B   tau(   2) = (  0.1562010  0.1562010  0.0000000  )
         3           B   tau(   3) = (  0.8437990  0.8437990  0.0000000  )
         4           B   tau(   4) = (  0.5937990  0.0937990  0.5000000  )
         5           W   tau(   5) = (  0.0531390  0.5531390  0.5000000  )
         6           W   tau(   6) = (  0.3031390  0.3031390  0.0000000  )
         7           W   tau(   7) = (  0.6968610  0.6968610  0.0000000  )
         8           W   tau(   8) = (  0.4468610  0.9468610  0.5000000  )

     number of k points=    10
                       cart. coord. in units 2pi/alat
        k(    1) = (   0.0000000   0.0000000   0.0000000), wk =   0.0740741
        k(    2) = (   0.0000000   0.0000000   1.3198293), wk =   0.1481481
        k(    3) = (   0.0000000   0.6820247   0.6599146), wk =   0.2962963
        k(    4) = (   0.0000000   0.6820247   1.9797439), wk =   0.1481481
        k(    5) = (   0.3333333  -0.5950181   0.6599146), wk =   0.2962963
        k(    6) = (   0.3333333  -0.5950181   1.9797439), wk =   0.1481481
        k(    7) = (   0.3333333   0.0870066   1.3198293), wk =   0.2962963
        k(    8) = (   0.3333333   0.0870066  -0.0000000), wk =   0.1481481
        k(    9) = (   0.3333333  -1.2770428  -0.0000000), wk =   0.1481481
        k(   10) = (   0.3333333  -1.2770428   1.3198293), wk =   0.2962963

                       cryst. coord.
        k(    1) = (   0.0000000   0.0000000   0.0000000), wk =   0.0740741
        k(    2) = (   0.0000000   0.0000000   0.3333333), wk =   0.1481481
        k(    3) = (   0.0000000   0.3333333  -0.0000000), wk =   0.2962963
        k(    4) = (   0.0000000   0.3333333   0.3333333), wk =   0.1481481
        k(    5) = (   0.3333333   0.0000000   0.0000000), wk =   0.2962963
        k(    6) = (   0.3333333   0.0000000   0.3333333), wk =   0.1481481
        k(    7) = (   0.3333333   0.3333333   0.0000000), wk =   0.2962963
        k(    8) = (   0.3333333   0.3333333  -0.3333333), wk =   0.1481481
        k(    9) = (   0.3333333  -0.3333333  -0.0000000), wk =   0.1481481
        k(   10) = (   0.3333333  -0.3333333   0.3333333), wk =   0.2962963

     Dense  grid:    35779 G-vectors     FFT dimensions: (  96,  96,  90)

     Smooth grid:    12737 G-vectors     FFT dimensions: (  60,  60,  60)

     Dynamical RAM for                 wfc:       0.38 MB

     Dynamical RAM for     wfc (w. buffer):       2.31 MB

     Dynamical RAM for           str. fact:       0.27 MB

     Dynamical RAM for           local pot:       0.00 MB

     Dynamical RAM for          nlocal pot:       0.82 MB

     Dynamical RAM for                qrad:       5.97 MB

     Dynamical RAM for          rho,v,vnew:       5.26 MB

     Dynamical RAM for               rhoin:       1.75 MB

     Dynamical RAM for            rho*nmix:       2.18 MB

     Dynamical RAM for           G-vectors:       0.54 MB

     Dynamical RAM for          h,s,v(r/c):       0.19 MB

     Dynamical RAM for          <psi|beta>:       0.13 MB

     Dynamical RAM for                 psi:       0.77 MB

     Dynamical RAM for                hpsi:       0.77 MB

     Dynamical RAM for                spsi:       0.77 MB

     Dynamical RAM for      wfcinit/wfcrot:       0.92 MB

     Dynamical RAM for           addusdens:      26.13 MB

     Estimated static dynamical RAM per process >      25.42 MB

     Estimated max dynamical RAM per process >      53.74 MB

     Estimated total dynamical RAM >     421.15 MB

     Initial potential from superposition of free atoms

     starting charge      67.5975, renormalised to      68.0000

     negative rho (up, down):  2.509E-01 0.000E+00
     Starting wfcs are   68 randomized atomic wfcs

     total cpu time spent up to now is        2.3 secs

     Self-consistent Calculation

     iteration #  1     ecut=    30.00 Ry     beta= 0.70
     Davidson diagonalization with overlap

---- Real-time Memory Report at c_bands before calling an iterative solver
           213 MiB given to the printing process from OS
             0 MiB allocation reported by mallinfo(arena+hblkhd)
        141639 MiB available memory on the node where the printing process lives
------------------
     ethr =  1.00E-02,  avg # of iterations =  5.0

     negative rho (up, down):  2.475E-01 0.000E+00

     total cpu time spent up to now is        3.9 secs

     total energy              =    -661.69856144 Ry
     estimated scf accuracy    <       0.99520005 Ry

     iteration #  2     ecut=    30.00 Ry     beta= 0.70
     Davidson diagonalization with overlap

---- Real-time Memory Report at c_bands before calling an iterative solver
           238 MiB given to the printing process from OS
             0 MiB allocation reported by mallinfo(arena+hblkhd)
        141411 MiB available memory on the node where the printing process lives
------------------
     ethr =  1.46E-03,  avg # of iterations =  2.6

     negative rho (up, down):  2.512E-01 0.000E+00

     total cpu time spent up to now is        5.0 secs

     total energy              =    -661.86843375 Ry
     estimated scf accuracy    <       1.72820200 Ry

     iteration #  3     ecut=    30.00 Ry     beta= 0.70
     Davidson diagonalization with overlap

---- Real-time Memory Report at c_bands before calling an iterative solver
           252 MiB given to the printing process from OS
             0 MiB allocation reported by mallinfo(arena+hblkhd)
        141310 MiB available memory on the node where the printing process lives
------------------
     ethr =  1.46E-03,  avg # of iterations =  2.1

     negative rho (up, down):  2.514E-01 0.000E+00

     total cpu time spent up to now is        5.9 secs

     total energy              =    -662.20812720 Ry
     estimated scf accuracy    <       0.01573516 Ry

     iteration #  4     ecut=    30.00 Ry     beta= 0.70
     Davidson diagonalization with overlap

---- Real-time Memory Report at c_bands before calling an iterative solver
           252 MiB given to the printing process from OS
             0 MiB allocation reported by mallinfo(arena+hblkhd)
        141310 MiB available memory on the node where the printing process lives
------------------
     ethr =  2.31E-05,  avg # of iterations =  2.5

     negative rho (up, down):  2.511E-01 0.000E+00

     total cpu time spent up to now is        7.0 secs

     total energy              =    -662.21171048 Ry
     estimated scf accuracy    <       0.00058655 Ry

     iteration #  5     ecut=    30.00 Ry     beta= 0.70
     Davidson diagonalization with overlap

---- Real-time Memory Report at c_bands before calling an iterative solver
           252 MiB given to the printing process from OS
             0 MiB allocation reported by mallinfo(arena+hblkhd)
        141311 MiB available memory on the node where the printing process lives
------------------
     ethr =  8.63E-07,  avg # of iterations =  3.6

     negative rho (up, down):  2.512E-01 0.000E+00

     total cpu time spent up to now is        7.9 secs

     total energy              =    -662.21176942 Ry
     estimated scf accuracy    <       0.00002719 Ry

     iteration #  6     ecut=    30.00 Ry     beta= 0.70
     Davidson diagonalization with overlap

---- Real-time Memory Report at c_bands before calling an iterative solver
           252 MiB given to the printing process from OS
             0 MiB allocation reported by mallinfo(arena+hblkhd)
        141314 MiB available memory on the node where the printing process lives
------------------
     ethr =  4.00E-08,  avg # of iterations =  2.0

     negative rho (up, down):  2.513E-01 0.000E+00

     total cpu time spent up to now is        8.9 secs

     End of self-consistent calculation

          k = 0.0000 0.0000 0.0000 (  1617 PWs)   bands (ev):

   -53.1613 -53.1323 -53.0947 -53.0654 -17.7802 -17.4579 -17.4578 -17.4436
   -17.4435 -17.4150 -17.4119 -17.1891 -17.1891 -17.1480 -17.1480 -17.0192
     7.3501   8.6274  11.3058  12.5005  15.6356  15.9275  15.9925  16.7427
    16.7427  16.9596  16.9596  17.4018  18.0491  18.3538  20.4220  20.4221
    20.8032  21.4624  21.5745  21.5746  21.6178  22.0785  22.5369  23.4867
    24.2709  24.2710  25.1095  25.1095  25.2538  25.2538  26.6134  27.0732
    27.6196  27.7276  28.7872  29.0024  29.0025  29.2728  30.2878  31.5517
    31.7982  35.7721  35.7722  38.2746  39.2653  39.3102  39.3105  39.4752

     occupation numbers 
     1.0000   1.0000   1.0000   1.0000   1.0000   1.0000   1.0000   1.0000
     1.0000   1.0000   1.0000   1.0000   1.0000   1.0000   1.0000   1.0000
     1.0000   1.0000   1.0000   1.0000   1.0000   1.0000   1.0000   1.0000
     1.0000   1.0000   1.0000   1.0000   1.0000   1.0000   1.0000   1.0000
     1.0000   1.0000   0.0000   0.0000   0.0000   0.0000   0.0000   0.0000
     0.0000   0.0000   0.0000   0.0000   0.0000   0.0000   0.0000   0.0000
     0.0000   0.0000   0.0000   0.0000   0.0000   0.0000   0.0000   0.0000
     0.0000   0.0000   0.0000   0.0000   0.0000   0.0000   0.0000   0.0000

          k = 0.0000 0.0000 1.3198 (  1575 PWs)   bands (ev):

   -53.1137 -53.0992 -53.0969 -53.0825 -17.7454 -17.7212 -17.6542 -17.6271
   -17.5721 -17.4652 -17.4075 -17.3472 -17.3417 -17.1862 -17.1575 -17.1097
     9.9785  10.4563  12.4208  12.8684  14.2933  14.6369  14.7782  15.6002
    16.5245  16.5877  16.5902  17.0539  17.6102  17.7901  17.9459  18.0228
    20.5738  22.3596  22.8186  23.1558  23.3491  23.6753  23.9936  24.3048
    25.3866  25.4308  26.4899  26.9677  27.2204  27.5714  27.7686  27.8655
    28.1177  28.2735  29.4947  30.5870  30.6036  31.7103  32.0253  32.2278
    32.7765  33.1967  34.5053  35.0695  35.3809  35.6384  35.7970  36.2496

     occupation numbers 
     1.0000   1.0000   1.0000   1.0000   1.0000   1.0000   1.0000   1.0000
     1.0000   1.0000   1.0000   1.0000   1.0000   1.0000   1.0000   1.0000
     1.0000   1.0000   1.0000   1.0000   1.0000   1.0000   1.0000   1.0000
     1.0000   1.0000   1.0000   1.0000   1.0000   1.0000   1.0000   1.0000
     1.0000   1.0000   0.0000   0.0000   0.0000   0.0000   0.0000   0.0000
     0.0000   0.0000   0.0000   0.0000   0.0000   0.0000   0.0000   0.0000
     0.0000   0.0000   0.0000   0.0000   0.0000   0.0000   0.0000   0.0000
     0.0000   0.0000   0.0000   0.0000   0.0000   0.0000   0.0000   0.0000

          k = 0.0000 0.6820 0.6599 (  1578 PWs)   bands (ev):

   -53.1328 -53.1147 -53.0966 -53.0784 -17.7770 -17.7397 -17.6300 -17.6146
   -17.3837 -17.3772 -17.3475 -17.2462 -17.2356 -17.1785 -17.1253 -17.0708
     9.0621   9.5156  12.4392  13.2422  13.7935  14.2233  15.8521  16.4093
    16.6777  16.8398  17.1287  17.6452  17.7685  18.3478  19.1883  19.3008
    20.0130  20.2336  21.4208  21.8742  22.1492  22.4520  22.6716  22.8994
    23.7835  24.3827  24.8370  25.8572  25.9402  26.4413  27.8827  28.2617
    28.7105  29.0332  29.8485  31.1374  31.6819  31.7850  32.3308  32.9913
    33.2966  34.0323  34.8086  35.8146  35.9591  36.4881  37.8600  38.0628

     occupation numbers 
     1.0000   1.0000   1.0000   1.0000   1.0000   1.0000   1.0000   1.0000
     1.0000   1.0000   1.0000   1.0000   1.0000   1.0000   1.0000   1.0000
     1.0000   1.0000   1.0000   1.0000   1.0000   1.0000   1.0000   1.0000
     1.0000   1.0000   1.0000   1.0000   1.0000   1.0000   1.0000   1.0000
     1.0000   1.0000   0.0000   0.0000   0.0000   0.0000   0.0000   0.0000
     0.0000   0.0000   0.0000   0.0000   0.0000   0.0000   0.0000   0.0000
     0.0000   0.0000   0.0000   0.0000   0.0000   0.0000   0.0000   0.0000
     0.0000   0.0000   0.0000   0.0000   0.0000   0.0000   0.0000   0.0000

          k = 0.0000 0.6820 1.9797 (  1578 PWs)   bands (ev):

   -53.1116 -53.1059 -53.0902 -53.0846 -17.7122 -17.7082 -17.6762 -17.6277
   -17.5982 -17.5347 -17.3728 -17.3458 -17.2661 -17.1951 -17.1599 -17.1386
    10.0849  10.3223  12.4918  12.6889  14.4670  14.6186  15.0518  15.9001
    16.0470  16.4157  16.7437  16.9419  17.6707  17.7043  17.7856  17.8970
    21.2575  22.2687  22.7980  22.9538  23.3249  23.5992  23.9309  24.2036
    25.6682  25.6908  26.4388  26.6350  26.9249  27.5968  27.9031  28.0161
    28.1862  28.9753  29.1756  29.6915  31.0750  31.6183  32.0754  32.2981
    32.7253  33.5789  33.8714  34.3524  34.6992  35.4101  37.0314  37.2175

     occupation numbers 
     1.0000   1.0000   1.0000   1.0000   1.0000   1.0000   1.0000   1.0000
     1.0000   1.0000   1.0000   1.0000   1.0000   1.0000   1.0000   1.0000
     1.0000   1.0000   1.0000   1.0000   1.0000   1.0000   1.0000   1.0000
     1.0000   1.0000   1.0000   1.0000   1.0000   1.0000   1.0000   1.0000
     1.0000   1.0000   0.0000   0.0000   0.0000   0.0000   0.0000   0.0000
     0.0000   0.0000   0.0000   0.0000   0.0000   0.0000   0.0000   0.0000
     0.0000   0.0000   0.0000   0.0000   0.0000   0.0000   0.0000   0.0000
     0.0000   0.0000   0.0000   0.0000   0.0000   0.0000   0.0000   0.0000

          k = 0.3333-0.5950 0.6599 (  1578 PWs)   bands (ev):

   -53.1328 -53.1147 -53.0966 -53.0784 -17.7770 -17.7397 -17.6300 -17.6146
   -17.3837 -17.3772 -17.3475 -17.2462 -17.2356 -17.1785 -17.1253 -17.0708
     9.0621   9.5156  12.4392  13.2422  13.7935  14.2233  15.8521  16.4093
    16.6777  16.8398  17.1287  17.6452  17.7685  18.3478  19.1883  19.3008
    20.0130  20.2336  21.4208  21.8742  22.1492  22.4520  22.6716  22.8994
    23.7835  24.3827  24.8370  25.8572  25.9402  26.4413  27.8827  28.2617
    28.7105  29.0332  29.8485  31.1374  31.6819  31.7850  32.3308  32.9913
    33.2966  34.0323  34.8086  35.8146  35.9591  36.4881  37.8600  38.0627

     occupation numbers 
     1.0000   1.0000   1.0000   1.0000   1.0000   1.0000   1.0000   1.0000
     1.0000   1.0000   1.0000   1.0000   1.0000   1.0000   1.0000   1.0000
     1.0000   1.0000   1.0000   1.0000   1.0000   1.0000   1.0000   1.0000
     1.0000   1.0000   1.0000   1.0000   1.0000   1.0000   1.0000   1.0000
     1.0000   1.0000   0.0000   0.0000   0.0000   0.0000   0.0000   0.0000
     0.0000   0.0000   0.0000   0.0000   0.0000   0.0000   0.0000   0.0000
     0.0000   0.0000   0.0000   0.0000   0.0000   0.0000   0.0000   0.0000
     0.0000   0.0000   0.0000   0.0000   0.0000   0.0000   0.0000   0.0000

          k = 0.3333-0.5950 1.9797 (  1578 PWs)   bands (ev):

   -53.1116 -53.1059 -53.0902 -53.0846 -17.7122 -17.7082 -17.6762 -17.6277
   -17.5982 -17.5347 -17.3728 -17.3458 -17.2661 -17.1951 -17.1599 -17.1386
    10.0849  10.3223  12.4918  12.6889  14.4670  14.6186  15.0518  15.9001
    16.0470  16.4157  16.7437  16.9419  17.6707  17.7043  17.7856  17.8970
    21.2575  22.2687  22.7980  22.9538  23.3249  23.5992  23.9309  24.2036
    25.6682  25.6908  26.4388  26.6350  26.9249  27.5968  27.9031  28.0161
    28.1862  28.9753  29.1756  29.6915  31.0750  31.6183  32.0754  32.2981
    32.7253  33.5789  33.8714  34.3524  34.6992  35.4101  37.0314  37.2175

     occupation numbers 
     1.0000   1.0000   1.0000   1.0000   1.0000   1.0000   1.0000   1.0000
     1.0000   1.0000   1.0000   1.0000   1.0000   1.0000   1.0000   1.0000
     1.0000   1.0000   1.0000   1.0000   1.0000   1.0000   1.0000   1.0000
     1.0000   1.0000   1.0000   1.0000   1.0000   1.0000   1.0000   1.0000
     1.0000   1.0000   0.0000   0.0000   0.0000   0.0000   0.0000   0.0000
     0.0000   0.0000   0.0000   0.0000   0.0000   0.0000   0.0000   0.0000
     0.0000   0.0000   0.0000   0.0000   0.0000   0.0000   0.0000   0.0000
     0.0000   0.0000   0.0000   0.0000   0.0000   0.0000   0.0000   0.0000

          k = 0.3333 0.0870 1.3198 (  1578 PWs)   bands (ev):

   -53.1116 -53.1059 -53.0902 -53.0846 -17.7122 -17.7082 -17.6762 -17.6277
   -17.5982 -17.5347 -17.3728 -17.3459 -17.2662 -17.1951 -17.1599 -17.1386
    10.0849  10.3223  12.4918  12.6889  14.4670  14.6186  15.0518  15.9001
    16.0470  16.4157  16.7437  16.9419  17.6707  17.7044  17.7856  17.8969
    21.2575  22.2687  22.7980  22.9538  23.3249  23.5992  23.9309  24.2036
    25.6682  25.6908  26.4388  26.6350  26.9249  27.5968  27.9031  28.0161
    28.1862  28.9752  29.1756  29.6915  31.0750  31.6183  32.0754  32.2981
    32.7253  33.5789  33.8714  34.3524  34.6992  35.4101  37.0315  37.2175

     occupation numbers 
     1.0000   1.0000   1.0000   1.0000   1.0000   1.0000   1.0000   1.0000
     1.0000   1.0000   1.0000   1.0000   1.0000   1.0000   1.0000   1.0000
     1.0000   1.0000   1.0000   1.0000   1.0000   1.0000   1.0000   1.0000
     1.0000   1.0000   1.0000   1.0000   1.0000   1.0000   1.0000   1.0000
     1.0000   1.0000   0.0000   0.0000   0.0000   0.0000   0.0000   0.0000
     0.0000   0.0000   0.0000   0.0000   0.0000   0.0000   0.0000   0.0000
     0.0000   0.0000   0.0000   0.0000   0.0000   0.0000   0.0000   0.0000
     0.0000   0.0000   0.0000   0.0000   0.0000   0.0000   0.0000   0.0000

          k = 0.3333 0.0870-0.0000 (  1580 PWs)   bands (ev):

   -53.1558 -53.1424 -53.0842 -53.0706 -17.7323 -17.5998 -17.4828 -17.4828
   -17.4078 -17.4078 -17.2198 -17.2170 -17.2170 -17.1301 -17.1301 -17.0735
     7.5940   8.2030  11.7341  12.2969  15.9050  15.9303  16.2340  16.6172
    16.7375  16.7375  16.9622  16.9622  18.1070  18.2284  20.5767  20.5767
    20.9205  21.2264  21.3994  21.3995  22.1772  22.2869  22.8431  23.2943
    23.6996  23.6996  25.3220  25.3220  26.0945  26.1232  26.2601  26.2601
    27.2661  27.8562  28.1399  28.1399  29.1646  29.7567  31.1218  31.8066
    32.4580  35.2338  37.0545  37.0546  37.6421  37.6421  39.0451  39.0802

     occupation numbers 
     1.0000   1.0000   1.0000   1.0000   1.0000   1.0000   1.0000   1.0000
     1.0000   1.0000   1.0000   1.0000   1.0000   1.0000   1.0000   1.0000
     1.0000   1.0000   1.0000   1.0000   1.0000   1.0000   1.0000   1.0000
     1.0000   1.0000   1.0000   1.0000   1.0000   1.0000   1.0000   1.0000
     1.0000   1.0000   0.0000   0.0000   0.0000   0.0000   0.0000   0.0000
     0.0000   0.0000   0.0000   0.0000   0.0000   0.0000   0.0000   0.0000
     0.0000   0.0000   0.0000   0.0000   0.0000   0.0000   0.0000   0.0000
     0.0000   0.0000   0.0000   0.0000   0.0000   0.0000   0.0000   0.0000

          k = 0.3333-1.2770-0.0000 (  1575 PWs)   bands (ev):

   -53.1137 -53.0992 -53.0969 -53.0825 -17.7455 -17.7212 -17.6541 -17.6271
   -17.5722 -17.4652 -17.4076 -17.3472 -17.3416 -17.1863 -17.1575 -17.1097
     9.9785  10.4563  12.4208  12.8684  14.2933  14.6369  14.7782  15.6002
    16.5245  16.5877  16.5902  17.0539  17.6103  17.7901  17.9458  18.0228
    20.5737  22.3596  22.8186  23.1558  23.3491  23.6753  23.9936  24.3048
    25.3866  25.4308  26.4899  26.9677  27.2204  27.5715  27.7687  27.8655
    28.1177  28.2735  29.4948  30.5870  30.6036  31.7103  32.0253  32.2278
    32.7765  33.1967  34.5053  35.0695  35.3809  35.6383  35.7970  36.2496

     occupation numbers 
     1.0000   1.0000   1.0000   1.0000   1.0000   1.0000   1.0000   1.0000
     1.0000   1.0000   1.0000   1.0000   1.0000   1.0000   1.0000   1.0000
     1.0000   1.0000   1.0000   1.0000   1.0000   1.0000   1.0000   1.0000
     1.0000   1.0000   1.0000   1.0000   1.0000   1.0000   1.0000   1.0000
     1.0000   1.0000   0.0000   0.0000   0.0000   0.0000   0.0000   0.0000
     0.0000   0.0000   0.0000   0.0000   0.0000   0.0000   0.0000   0.0000
     0.0000   0.0000   0.0000   0.0000   0.0000   0.0000   0.0000   0.0000
     0.0000   0.0000   0.0000   0.0000   0.0000   0.0000   0.0000   0.0000

          k = 0.3333-1.2770 1.3198 (  1569 PWs)   bands (ev):

   -53.1290 -53.1221 -53.0894 -53.0820 -17.7841 -17.7456 -17.6707 -17.5272
   -17.3925 -17.3539 -17.3290 -17.3167 -17.2604 -17.1737 -17.1363 -17.0353
     9.2135   9.3437  12.4534  13.0715  13.7356  14.6535  15.7473  16.3699
    17.0136  17.0573  17.1018  17.1607  17.8041  18.2285  19.0839  19.1337
    19.6192  20.2942  21.8838  22.1608  22.4413  22.4792  23.1136  23.3362
    23.5541  23.5608  24.4527  25.3336  25.5115  26.6661  28.4844  28.8383
    29.0353  29.4247  29.6027  30.8916  30.9667  31.8384  31.9630  33.1173
    34.1177  34.5050  34.8019  35.4854  35.5979  36.0881  36.5558  38.1330

     occupation numbers 
     1.0000   1.0000   1.0000   1.0000   1.0000   1.0000   1.0000   1.0000
     1.0000   1.0000   1.0000   1.0000   1.0000   1.0000   1.0000   1.0000
     1.0000   1.0000   1.0000   1.0000   1.0000   1.0000   1.0000   1.0000
     1.0000   1.0000   1.0000   1.0000   1.0000   1.0000   1.0000   1.0000
     1.0000   1.0000   0.0000   0.0000   0.0000   0.0000   0.0000   0.0000
     0.0000   0.0000   0.0000   0.0000   0.0000   0.0000   0.0000   0.0000
     0.0000   0.0000   0.0000   0.0000   0.0000   0.0000   0.0000   0.0000
     0.0000   0.0000   0.0000   0.0000   0.0000   0.0000   0.0000   0.0000

     highest occupied, lowest unoccupied level (ev):    22.3596   21.3994

!    total energy              =    -662.21177546 Ry
     estimated scf accuracy    <       0.00000066 Ry

     The total energy is the sum of the following terms:
     one-electron contribution =     -55.53051760 Ry
     hartree contribution      =      70.01398662 Ry
     xc contribution           =    -177.39439942 Ry
     ewald contribution        =    -499.30084506 Ry

     convergence has been achieved in   6 iterations

     Writing all to output data dir calculations_bands_val/myprefix.save/
 
     init_run     :      5.53s CPU      1.86s WALL (       1 calls)
     electrons    :     25.35s CPU      6.64s WALL (       1 calls)

     Called by init_run:
     wfcinit      :      1.13s CPU      0.29s WALL (       1 calls)
     wfcinit:atom :      0.00s CPU      0.00s WALL (       5 calls)
     wfcinit:wfcr :      1.10s CPU      0.28s WALL (       5 calls)
     potinit      :      1.70s CPU      0.51s WALL (       1 calls)
     hinit0       :      2.34s CPU      0.90s WALL (       1 calls)

     Called by electrons:
     c_bands      :     19.15s CPU      4.97s WALL (       6 calls)
     sum_band     :      3.85s CPU      1.03s WALL (       6 calls)
     v_of_rho     :      1.49s CPU      0.40s WALL (       7 calls)
     v_h          :      0.08s CPU      0.02s WALL (       7 calls)
     v_xc         :      1.41s CPU      0.38s WALL (       7 calls)
     newd         :      0.82s CPU      0.22s WALL (       7 calls)
     mix_rho      :      0.15s CPU      0.04s WALL (       6 calls)

     Called by c_bands:
     init_us_2    :      0.07s CPU      0.02s WALL (      65 calls)
     init_us_2:cp :      0.07s CPU      0.02s WALL (      65 calls)
     cegterg      :     18.64s CPU      4.83s WALL (      30 calls)

     Called by sum_band:
     sum_band:wei :      0.02s CPU      0.00s WALL (       6 calls)
     sum_band:loo :      3.08s CPU      0.80s WALL (       6 calls)
     sum_band:buf :      0.01s CPU      0.00s WALL (      30 calls)
     sum_band:ini :      0.03s CPU      0.01s WALL (      30 calls)
     sum_band:cal :      0.07s CPU      0.02s WALL (      30 calls)
     sum_band:bec :      0.02s CPU      0.01s WALL (      30 calls)
     addusdens    :      0.49s CPU      0.15s WALL (       6 calls)
     addusd:skk   :      0.00s CPU      0.00s WALL (      12 calls)
     addusd:dgemm :      0.10s CPU      0.06s WALL (      12 calls)
     addusd:qvan2 :      0.34s CPU      0.09s WALL (      12 calls)

     Called by *egterg:
     cdiaghg      :      2.14s CPU      0.56s WALL (     118 calls)
     cegterg:over :      0.49s CPU      0.13s WALL (      88 calls)
     cegterg:upda :      0.14s CPU      0.04s WALL (      88 calls)
     cegterg:last :      0.21s CPU      0.05s WALL (      60 calls)
     cdiaghg:chol :      0.14s CPU      0.04s WALL (     118 calls)
     cdiaghg:inve :      0.03s CPU      0.01s WALL (     118 calls)
     cdiaghg:para :      0.33s CPU      0.09s WALL (     236 calls)
     h_psi        :     16.43s CPU      4.25s WALL (     123 calls)
     s_psi        :      0.08s CPU      0.02s WALL (     123 calls)
     g_psi        :      0.01s CPU      0.00s WALL (      88 calls)

     Called by h_psi:
     h_psi:calbec :      0.26s CPU      0.07s WALL (     123 calls)
     vloc_psi     :     16.04s CPU      4.15s WALL (     123 calls)
     add_vuspsi   :      0.12s CPU      0.03s WALL (     123 calls)

     General routines
     calbec       :      0.32s CPU      0.08s WALL (     153 calls)
     fft          :      2.24s CPU      0.80s WALL (      89 calls)
     ffts         :      1.30s CPU      0.40s WALL (      13 calls)
     fftw         :     17.02s CPU      4.41s WALL (   11778 calls)
     interpolate  :      1.35s CPU      0.42s WALL (       7 calls)
 
     Parallel routines
 
     PWSCF        :     32.50s CPU      9.28s WALL

 
   This run was terminated on:  13:31:45   4Jun2023            

=------------------------------------------------------------------------------=
   JOB DONE.
=------------------------------------------------------------------------------=
