
     Program PWSCF v.7.0 starts on  4Jun2023 at 15:51:22 

     This program is part of the open-source Quantum ESPRESSO suite
     for quantum simulation of materials; please cite
         "P. Giannozzi et al., J. Phys.:Condens. Matter 21 395502 (2009);
         "P. Giannozzi et al., J. Phys.:Condens. Matter 29 465901 (2017);
         "P. Giannozzi et al., J. Chem. Phys. 152 154105 (2020);
          URL http://www.quantum-espresso.org", 
     in publications or presentations arising from this work. More details at
     http://www.quantum-espresso.org/quote

     Parallel version (MPI & OpenMP), running on      32 processor cores
     Number of MPI processes:                 8
     Threads/MPI process:                     4

     MPI processes distributed on     1 nodes
     K-points division:     npool     =       2
     R & G space division:  proc/nbgrp/npool/nimage =       4
     142000 MiB available memory on the printing compute node when the environment starts
 
     Reading input from espresso_990.pwi
Warning: card &CELL ignored
Warning: card / ignored

     Current dimensions of program PWSCF are:
     Max number of different atomic species (ntypx) = 10
     Max number of k-points (npk) =  40000
     Max angular momentum in pseudopotentials (lmaxx) =  4
     file Al.pbe-n-kjpaw_psl.1.0.0.UPF: wavefunction(s)  3S 3P renormalized
     file C.pbe-n-kjpaw_psl.1.0.0.UPF: wavefunction(s)  2S 2P renormalized
     file O.pbe-n-kjpaw_psl.0.1.UPF: wavefunction(s)  2P renormalized
     Message from routine setup:
     using ibrav=0 with symmetry is DISCOURAGED, use correct ibrav instead

     Subspace diagonalization in iterative solution of the eigenvalue problem:
     one sub-group per band group will be used
     scalapack distributed-memory algorithm (size of sub-group:  2*  2 procs)

 
     Parallelization info
     --------------------
     sticks:   dense  smooth     PW     G-vecs:    dense   smooth      PW
     Min         159      78     24                10023     3544     620
     Max         160      79     25                10030     3555     623
     Sum         637     313     97                40103    14191    2485
 
     Using Slab Decomposition
 


     bravais-lattice index     =            0
     lattice parameter (alat)  =       6.1665  a.u.
     unit-cell volume          =     637.0305 (a.u.)^3
     number of atoms/cell      =            8
     number of atomic types    =            4
     number of electrons       =        48.00
     number of Kohn-Sham states=           64
     kinetic-energy cutoff     =      30.0000  Ry
     charge density cutoff     =     240.0000  Ry
     scf convergence threshold =      1.0E-06
     mixing beta               =       0.7000
     number of iterations used =            8  plain     mixing
     Exchange-correlation= SLA  PW   PBX  PBC
                           (   1   4   3   4   0   0   0)

     celldm(1)=   6.166543  celldm(2)=   0.000000  celldm(3)=   0.000000
     celldm(4)=   0.000000  celldm(5)=   0.000000  celldm(6)=   0.000000

     crystal axes: (cart. coord. in units of alat)
               a(1) = (   1.000000   0.000000   0.000000 )  
               a(2) = (  -0.500000   0.866025   0.000000 )  
               a(3) = (   0.000000   0.000000   3.136926 )  

     reciprocal axes: (cart. coord. in units 2 pi/alat)
               b(1) = (  1.000000  0.577350  0.000000 )  
               b(2) = (  0.000000  1.154701  0.000000 )  
               b(3) = (  0.000000  0.000000  0.318783 )  


     PseudoPot. # 1 for Sc read from file:
     /home/pragov/projects/rrg-bengioy-ad/pragov/crystal_structure_design/SSSP/Sc_ONCV_PBE-1.0.oncvpsp.upf
     MD5 check sum: e21af8023abb52e52cb7cd3133e4a229
     Pseudo is Norm-conserving, Zval = 11.0
     Generated using ONCVPSP code by D. R. Hamann
     Using radial grid of 1662 points,  6 beta functions with: 
                l(1) =   0
                l(2) =   0
                l(3) =   1
                l(4) =   1
                l(5) =   2
                l(6) =   2

     PseudoPot. # 2 for Al read from file:
     /home/pragov/projects/rrg-bengioy-ad/pragov/crystal_structure_design/SSSP/Al.pbe-n-kjpaw_psl.1.0.0.UPF
     MD5 check sum: cfc449ca30b5f3223ec38ddd88ac046d
     Pseudo is Projector augmented-wave + core cor, Zval =  3.0
     Generated using "atomic" code by A. Dal Corso  v.5.1
     Shape of augmentation charge: PSQ
     Using radial grid of 1135 points,  6 beta functions with: 
                l(1) =   0
                l(2) =   0
                l(3) =   1
                l(4) =   1
                l(5) =   2
                l(6) =   2
     Q(r) pseudized with 0 coefficients 


     PseudoPot. # 3 for C  read from file:
     /home/pragov/projects/rrg-bengioy-ad/pragov/crystal_structure_design/SSSP/C.pbe-n-kjpaw_psl.1.0.0.UPF
     MD5 check sum: 5d2aebdfa2cae82b50a7e79e9516da0f
     Pseudo is Projector augmented-wave + core cor, Zval =  4.0
     Generated using "atomic" code by A. Dal Corso  v.5.1
     Shape of augmentation charge: PSQ
     Using radial grid of 1073 points,  4 beta functions with: 
                l(1) =   0
                l(2) =   0
                l(3) =   1
                l(4) =   1
     Q(r) pseudized with 0 coefficients 


     PseudoPot. # 4 for O  read from file:
     /home/pragov/projects/rrg-bengioy-ad/pragov/crystal_structure_design/SSSP/O.pbe-n-kjpaw_psl.0.1.UPF
     MD5 check sum: 0234752ac141de4415c5fc33072bef88
     Pseudo is Projector augmented-wave + core cor, Zval =  6.0
     Generated using "atomic" code by A. Dal Corso  v.5.0.99 svn rev. 10869
     Shape of augmentation charge: BESSEL
     Using radial grid of 1095 points,  4 beta functions with: 
                l(1) =   0
                l(2) =   0
                l(3) =   1
                l(4) =   1
     Q(r) pseudized with 0 coefficients 


     atomic species   valence    mass     pseudopotential
        Sc            11.00    44.95591     Sc( 1.00)
        Al             3.00    26.98154     Al( 1.00)
        C              4.00    12.01100     C ( 1.00)
        O              6.00    15.99900     O ( 1.00)

     12 Sym. Ops. (no inversion) found ( 6 have fractional translation)


                                    s                        frac. trans.

      isym =  1     identity                                     

 cryst.   s( 1) = (     1          0          0      )
                  (     0          1          0      )
                  (     0          0          1      )

 cart.    s( 1) = (  1.0000000  0.0000000  0.0000000 )
                  (  0.0000000  1.0000000  0.0000000 )
                  (  0.0000000  0.0000000  1.0000000 )


      isym =  2     180 deg rotation - cart. axis [0,0,1]        

 cryst.   s( 2) = (    -1          0          0      )    f =(  0.0000000 )
                  (     0         -1          0      )       (  0.0000000 )
                  (     0          0          1      )       (  0.5000000 )

 cart.    s( 2) = ( -1.0000000 -0.0000000  0.0000000 )    f =( -0.0000000 )
                  (  0.0000000 -1.0000000  0.0000000 )       (  0.0000000 )
                  (  0.0000000  0.0000000  1.0000000 )       (  1.5684629 )


      isym =  3      60 deg rotation - cryst. axis [0,0,1]       

 cryst.   s( 3) = (     1          1          0      )    f =( -0.0000010 )
                  (    -1          0          0      )       ( -0.0000000 )
                  (     0          0          1      )       (  0.5000000 )

 cart.    s( 3) = (  0.5000000 -0.8660254  0.0000000 )    f =( -0.0000010 )
                  (  0.8660254  0.5000000  0.0000000 )       ( -0.0000000 )
                  (  0.0000000  0.0000000  1.0000000 )       (  1.5684629 )


      isym =  4      60 deg rotation - cryst. axis [0,0,-1]      

 cryst.   s( 4) = (     0         -1          0      )    f =( -0.0000000 )
                  (     1          1          0      )       (  0.0000010 )
                  (     0          0          1      )       (  0.5000000 )

 cart.    s( 4) = (  0.5000000  0.8660254  0.0000000 )    f =( -0.0000005 )
                  ( -0.8660254  0.5000000  0.0000000 )       (  0.0000009 )
                  (  0.0000000  0.0000000  1.0000000 )       (  1.5684629 )


      isym =  5     120 deg rotation - cryst. axis [0,0,1]       

 cryst.   s( 5) = (     0          1          0      )
                  (    -1         -1          0      )
                  (     0          0          1      )

 cart.    s( 5) = ( -0.5000000 -0.8660254  0.0000000 )
                  (  0.8660254 -0.5000000  0.0000000 )
                  (  0.0000000  0.0000000  1.0000000 )


      isym =  6     120 deg rotation - cryst. axis [0,0,-1]      

 cryst.   s( 6) = (    -1         -1          0      )
                  (     1          0          0      )
                  (     0          0          1      )

 cart.    s( 6) = ( -0.5000000  0.8660254  0.0000000 )
                  ( -0.8660254 -0.5000000  0.0000000 )
                  (  0.0000000  0.0000000  1.0000000 )


      isym =  7     inv. 180 deg rotation - cart. axis [0,1,0]   

 cryst.   s( 7) = (     1          0          0      )    f =( -0.0000010 )
                  (    -1         -1          0      )       (  0.0000000 )
                  (     0          0          1      )       (  0.5000000 )

 cart.    s( 7) = (  1.0000000  0.0000001  0.0000000 )    f =( -0.0000010 )
                  (  0.0000000 -1.0000000  0.0000000 )       (  0.0000000 )
                  (  0.0000000  0.0000000  1.0000000 )       (  1.5684629 )


      isym =  8     inv. 180 deg rotation - cart. axis [1,0,0]   

 cryst.   s( 8) = (    -1          0          0      )
                  (     1          1          0      )
                  (     0          0          1      )

 cart.    s( 8) = ( -1.0000000 -0.0000001  0.0000000 )
                  (  0.0000000  1.0000000  0.0000000 )
                  (  0.0000000  0.0000000  1.0000000 )


      isym =  9     inv. 180 deg rotation - cryst. axis [1,-1,0] 

 cryst.   s( 9) = (     0          1          0      )    f =( -0.0000000 )
                  (     1          0          0      )       ( -0.0000000 )
                  (     0          0          1      )       (  0.5000000 )

 cart.    s( 9) = ( -0.5000000  0.8660254  0.0000000 )    f =( -0.0000000 )
                  (  0.8660254  0.5000000  0.0000000 )       ( -0.0000000 )
                  (  0.0000000  0.0000000  1.0000000 )       (  1.5684629 )


      isym = 10     inv. 180 deg rotation - cryst. axis [2,1,0]  

 cryst.   s(10) = (    -1         -1          0      )    f =(  0.0000000 )
                  (     0          1          0      )       (  0.0000010 )
                  (     0          0          1      )       (  0.5000000 )

 cart.    s(10) = ( -0.5000000 -0.8660254  0.0000000 )    f =( -0.0000005 )
                  ( -0.8660254  0.5000000  0.0000000 )       (  0.0000009 )
                  (  0.0000000  0.0000000  1.0000000 )       (  1.5684629 )


      isym = 11     inv. 180 deg rotation - cryst. axis [0,1,0]  

 cryst.   s(11) = (     1          1          0      )
                  (     0         -1          0      )
                  (     0          0          1      )

 cart.    s(11) = (  0.5000000  0.8660254  0.0000000 )
                  (  0.8660254 -0.5000000  0.0000000 )
                  (  0.0000000  0.0000000  1.0000000 )


      isym = 12     inv. 180 deg rotation - cryst. axis [1,1,0]  

 cryst.   s(12) = (     0         -1          0      )
                  (    -1          0          0      )
                  (     0          0          1      )

 cart.    s(12) = (  0.5000000 -0.8660254  0.0000000 )
                  ( -0.8660254 -0.5000000  0.0000000 )
                  (  0.0000000  0.0000000  1.0000000 )


   Cartesian axes

     site n.     atom                  positions (alat units)
         1           Sc  tau(   1) = (   0.5000005   0.2886748   2.5225244  )
         2           Sc  tau(   2) = (  -0.0000005   0.5773505   0.9540615  )
         3           Al  tau(   3) = (   0.0000000   0.0000000   1.6312391  )
         4           Al  tau(   4) = (   0.0000000   0.0000000   0.0627762  )
         5           C   tau(   5) = (  -0.0000005   0.5773505   2.9547144  )
         6           C   tau(   6) = (   0.5000005   0.2886748   1.3862515  )
         7           O   tau(   7) = (   0.0000000   0.0000000   2.1872341  )
         8           O   tau(   8) = (   0.0000000   0.0000000   0.6187712  )

   Crystallographic axes

     site n.     atom                  positions (cryst. coord.)
         1           Sc  tau(   1) = (  0.6666670  0.3333330  0.8041390  )
         2           Sc  tau(   2) = (  0.3333330  0.6666670  0.3041390  )
         3           Al  tau(   3) = (  0.0000000  0.0000000  0.5200120  )
         4           Al  tau(   4) = (  0.0000000  0.0000000  0.0200120  )
         5           C   tau(   5) = (  0.3333330  0.6666670  0.9419140  )
         6           C   tau(   6) = (  0.6666670  0.3333330  0.4419140  )
         7           O   tau(   7) = (  0.0000000  0.0000000  0.6972540  )
         8           O   tau(   8) = (  0.0000000  0.0000000  0.1972540  )

     number of k points=     6
                       cart. coord. in units 2pi/alat
        k(    1) = (   0.0000000   0.0000000   0.0000000), wk =   0.0740741
        k(    2) = (   0.0000000   0.0000000   0.1062611), wk =   0.1481481
        k(    3) = (   0.0000000   0.3849002   0.0000000), wk =   0.4444444
        k(    4) = (   0.0000000   0.3849002   0.1062611), wk =   0.8888889
        k(    5) = (   0.3333333   0.5773503   0.0000000), wk =   0.1481481
        k(    6) = (   0.3333333   0.5773503   0.1062611), wk =   0.2962963

                       cryst. coord.
        k(    1) = (   0.0000000   0.0000000   0.0000000), wk =   0.0740741
        k(    2) = (   0.0000000   0.0000000   0.3333333), wk =   0.1481481
        k(    3) = (   0.0000000   0.3333333   0.0000000), wk =   0.4444444
        k(    4) = (   0.0000000   0.3333333   0.3333333), wk =   0.8888889
        k(    5) = (   0.3333333   0.3333333   0.0000000), wk =   0.1481481
        k(    6) = (   0.3333333   0.3333333   0.3333333), wk =   0.2962963

     Dense  grid:    40103 G-vectors     FFT dimensions: (  32,  32,  96)

     Smooth grid:    14191 G-vectors     FFT dimensions: (  24,  24,  72)

     Dynamical RAM for                 wfc:       0.43 MB

     Dynamical RAM for     wfc (w. buffer):       1.73 MB

     Dynamical RAM for           str. fact:       0.61 MB

     Dynamical RAM for           local pot:       0.00 MB

     Dynamical RAM for          nlocal pot:       0.70 MB

     Dynamical RAM for                qrad:       4.98 MB

     Dynamical RAM for          rho,v,vnew:       1.02 MB

     Dynamical RAM for               rhoin:       0.34 MB

     Dynamical RAM for            rho*nmix:       2.45 MB

     Dynamical RAM for           G-vectors:       0.60 MB

     Dynamical RAM for          h,s,v(r/c):       0.19 MB

     Dynamical RAM for          <psi|beta>:       0.10 MB

     Dynamical RAM for                 psi:       0.86 MB

     Dynamical RAM for                hpsi:       0.86 MB

     Dynamical RAM for                spsi:       0.86 MB

     Dynamical RAM for      wfcinit/wfcrot:       0.96 MB

     Dynamical RAM for           addusdens:      14.45 MB

     Estimated static dynamical RAM per process >      11.68 MB

     Estimated max dynamical RAM per process >      28.58 MB

     Estimated total dynamical RAM >     218.87 MB

     Check: negative core charge=   -0.000014

     Initial potential from superposition of free atoms

     starting charge      47.9901, renormalised to      48.0000
     Starting wfcs are   44 randomized atomic wfcs +   20 random wfcs
     Checking if some PAW data can be deallocated... 
       PAW data deallocated on    6 nodes for type:  2
       PAW data deallocated on    6 nodes for type:  3
       PAW data deallocated on    6 nodes for type:  4

     total cpu time spent up to now is        1.7 secs

     Self-consistent Calculation

     iteration #  1     ecut=    30.00 Ry     beta= 0.70
     Davidson diagonalization with overlap

---- Real-time Memory Report at c_bands before calling an iterative solver
           169 MiB given to the printing process from OS
             0 MiB allocation reported by mallinfo(arena+hblkhd)
        141425 MiB available memory on the node where the printing process lives
------------------
     ethr =  1.00E-02,  avg # of iterations =  6.2

     total cpu time spent up to now is        2.2 secs

     total energy              =    -382.43871888 Ry
     estimated scf accuracy    <       2.27096609 Ry

     iteration #  2     ecut=    30.00 Ry     beta= 0.70
     Davidson diagonalization with overlap

---- Real-time Memory Report at c_bands before calling an iterative solver
           196 MiB given to the printing process from OS
             0 MiB allocation reported by mallinfo(arena+hblkhd)
        141332 MiB available memory on the node where the printing process lives
------------------
     ethr =  4.73E-03,  avg # of iterations =  2.0

     total cpu time spent up to now is        2.5 secs

     total energy              =    -381.87266764 Ry
     estimated scf accuracy    <       6.63977761 Ry

     iteration #  3     ecut=    30.00 Ry     beta= 0.70
     Davidson diagonalization with overlap

---- Real-time Memory Report at c_bands before calling an iterative solver
           197 MiB given to the printing process from OS
             0 MiB allocation reported by mallinfo(arena+hblkhd)
        141304 MiB available memory on the node where the printing process lives
------------------
     ethr =  4.73E-03,  avg # of iterations =  1.7

     total cpu time spent up to now is        2.8 secs

     total energy              =    -383.45075986 Ry
     estimated scf accuracy    <       0.66876742 Ry

     iteration #  4     ecut=    30.00 Ry     beta= 0.70
     Davidson diagonalization with overlap

---- Real-time Memory Report at c_bands before calling an iterative solver
           197 MiB given to the printing process from OS
             0 MiB allocation reported by mallinfo(arena+hblkhd)
        141309 MiB available memory on the node where the printing process lives
------------------
     ethr =  1.39E-03,  avg # of iterations =  1.0

     total cpu time spent up to now is        3.1 secs

     total energy              =    -383.48638456 Ry
     estimated scf accuracy    <       0.10518064 Ry

     iteration #  5     ecut=    30.00 Ry     beta= 0.70
     Davidson diagonalization with overlap

---- Real-time Memory Report at c_bands before calling an iterative solver
           197 MiB given to the printing process from OS
             0 MiB allocation reported by mallinfo(arena+hblkhd)
        141308 MiB available memory on the node where the printing process lives
------------------
     ethr =  2.19E-04,  avg # of iterations =  1.5

     total cpu time spent up to now is        3.4 secs

     total energy              =    -383.48469917 Ry
     estimated scf accuracy    <       0.02091129 Ry

     iteration #  6     ecut=    30.00 Ry     beta= 0.70
     Davidson diagonalization with overlap

---- Real-time Memory Report at c_bands before calling an iterative solver
           197 MiB given to the printing process from OS
             0 MiB allocation reported by mallinfo(arena+hblkhd)
        141308 MiB available memory on the node where the printing process lives
------------------
     ethr =  4.36E-05,  avg # of iterations =  5.0

     total cpu time spent up to now is        3.8 secs

     total energy              =    -383.48808351 Ry
     estimated scf accuracy    <       0.00347056 Ry

     iteration #  7     ecut=    30.00 Ry     beta= 0.70
     Davidson diagonalization with overlap

---- Real-time Memory Report at c_bands before calling an iterative solver
           197 MiB given to the printing process from OS
             0 MiB allocation reported by mallinfo(arena+hblkhd)
        141305 MiB available memory on the node where the printing process lives
------------------
     ethr =  7.23E-06,  avg # of iterations =  2.5

     total cpu time spent up to now is        4.1 secs

     total energy              =    -383.48867606 Ry
     estimated scf accuracy    <       0.00024514 Ry

     iteration #  8     ecut=    30.00 Ry     beta= 0.70
     Davidson diagonalization with overlap

---- Real-time Memory Report at c_bands before calling an iterative solver
           197 MiB given to the printing process from OS
             0 MiB allocation reported by mallinfo(arena+hblkhd)
        141306 MiB available memory on the node where the printing process lives
------------------
     ethr =  5.11E-07,  avg # of iterations =  2.3

     total cpu time spent up to now is        4.4 secs

     total energy              =    -383.48871884 Ry
     estimated scf accuracy    <       0.00000284 Ry

     iteration #  9     ecut=    30.00 Ry     beta= 0.70
     Davidson diagonalization with overlap

---- Real-time Memory Report at c_bands before calling an iterative solver
           197 MiB given to the printing process from OS
             0 MiB allocation reported by mallinfo(arena+hblkhd)
        141305 MiB available memory on the node where the printing process lives
------------------
     ethr =  5.91E-09,  avg # of iterations =  2.0

     total cpu time spent up to now is        4.7 secs

     End of self-consistent calculation

          k = 0.0000 0.0000 0.0000 (  1761 PWs)   bands (ev):

   -39.2140 -39.2139 -17.9702 -17.9654 -17.6410 -17.6410 -17.6403 -17.6403
    -9.0778  -9.0334  -1.5748  -1.2678   3.2695   4.6163   5.9831   5.9831
     6.0378   6.0378   6.8574   8.9663   9.7833   9.7833   9.9756   9.9756
    12.6334  12.6775  12.6775  12.7296  12.7454  12.7454  13.8352  14.9225
    14.9225  15.2131  15.2131  15.7863  16.1881  17.0630  18.4637  19.4514
    19.4514  20.0895  20.0895  20.6197  23.3169  24.1013  24.1013  24.1187
    24.1485  24.1486  25.5820  25.5820  25.6316  26.6568  27.9840  27.9840
    28.5949  29.2498  29.2499  29.2882  30.9929  32.4217  32.4218  33.3864

     occupation numbers 
     1.0000   1.0000   1.0000   1.0000   1.0000   1.0000   1.0000   1.0000
     1.0000   1.0000   1.0000   1.0000   1.0000   1.0000   1.0000   1.0000
     1.0000   1.0000   1.0000   1.0000   1.0000   1.0000   1.0000   1.0000
     0.0000   0.0000   0.0000   0.0000   0.0000   0.0000   0.0000   0.0000
     0.0000   0.0000   0.0000   0.0000   0.0000   0.0000   0.0000   0.0000
     0.0000   0.0000   0.0000   0.0000   0.0000   0.0000   0.0000   0.0000
     0.0000   0.0000   0.0000   0.0000   0.0000   0.0000   0.0000   0.0000
     0.0000   0.0000   0.0000   0.0000   0.0000   0.0000   0.0000   0.0000

          k = 0.0000 0.0000 0.1063 (  1804 PWs)   bands (ev):

   -39.2140 -39.2140 -17.9696 -17.9666 -17.6412 -17.6412 -17.6411 -17.6411
    -9.0671  -9.0450  -1.5035  -1.3505   3.5222   4.1688   5.9771   5.9771
     6.0051   6.0051   7.4428   8.4432   9.8222   9.8222   9.9164   9.9164
    12.6294  12.6677  12.6678  12.7001  12.7001  12.7289  14.3171  14.9671
    14.9671  15.1152  15.1152  15.2853  16.3143  16.6524  19.2371  19.5769
    19.5769  19.8900  19.8900  20.2294  23.4688  23.8891  24.1518  24.1518
    24.1932  24.1932  25.6632  25.9326  25.9326  26.1768  26.9799  26.9799
    29.1798  29.8134  30.2362  30.2363  31.1177  31.5487  31.5488  32.7027

     occupation numbers 
     1.0000   1.0000   1.0000   1.0000   1.0000   1.0000   1.0000   1.0000
     1.0000   1.0000   1.0000   1.0000   1.0000   1.0000   1.0000   1.0000
     1.0000   1.0000   1.0000   1.0000   1.0000   1.0000   1.0000   1.0000
     0.0000   0.0000   0.0000   0.0000   0.0000   0.0000   0.0000   0.0000
     0.0000   0.0000   0.0000   0.0000   0.0000   0.0000   0.0000   0.0000
     0.0000   0.0000   0.0000   0.0000   0.0000   0.0000   0.0000   0.0000
     0.0000   0.0000   0.0000   0.0000   0.0000   0.0000   0.0000   0.0000
     0.0000   0.0000   0.0000   0.0000   0.0000   0.0000   0.0000   0.0000

          k = 0.0000 0.3849 0.0000 (  1767 PWs)   bands (ev):

   -39.1791 -39.1791 -17.9779 -17.9773 -17.8744 -17.8725 -17.7044 -17.7041
    -8.8299  -8.8220  -0.2359  -0.1841   4.0486   4.2750   4.7545   5.2546
     5.9078   5.9386   6.0292   6.5615   8.3521   8.6894   8.7713   8.9598
    11.4745  11.7238  13.3579  13.7131  13.8550  13.9632  14.3439  15.0771
    15.2430  15.4491  15.5895  16.1137  17.1716  18.0264  18.7739  20.0878
    20.2060  20.7432  20.8201  21.2629  21.4423  22.3729  23.1517  24.2433
    24.4424  24.9134  25.4866  26.3593  27.1130  27.5072  28.3629  29.1519
    30.3658  30.8869  31.4894  31.7725  31.8514  32.4211  32.6903  33.4994

     occupation numbers 
     1.0000   1.0000   1.0000   1.0000   1.0000   1.0000   1.0000   1.0000
     1.0000   1.0000   1.0000   1.0000   1.0000   1.0000   1.0000   1.0000
     1.0000   1.0000   1.0000   1.0000   1.0000   1.0000   1.0000   1.0000
     0.0000   0.0000   0.0000   0.0000   0.0000   0.0000   0.0000   0.0000
     0.0000   0.0000   0.0000   0.0000   0.0000   0.0000   0.0000   0.0000
     0.0000   0.0000   0.0000   0.0000   0.0000   0.0000   0.0000   0.0000
     0.0000   0.0000   0.0000   0.0000   0.0000   0.0000   0.0000   0.0000
     0.0000   0.0000   0.0000   0.0000   0.0000   0.0000   0.0000   0.0000

          k = 0.0000 0.3849 0.1063 (  1756 PWs)   bands (ev):

   -39.1791 -39.1791 -17.9778 -17.9775 -17.8738 -17.8728 -17.7042 -17.7039
    -8.8279  -8.8240  -0.2229  -0.1970   4.0786   4.1828   4.9114   5.1632
     5.9616   6.0125   6.0492   6.3843   8.4635   8.6417   8.8220   8.9154
    11.5342  11.6561  13.4176  13.6095  13.8851  13.9371  14.5099  14.8839
    15.1874  15.3696  15.8661  16.0950  17.4644  17.8852  18.8559  19.5077
    20.4480  20.6297  20.8748  21.1343  21.8356  22.2184  23.3847  23.9360
    24.5519  24.7874  25.6419  26.3364  27.6986  27.7042  28.1318  28.8509
    30.2339  30.7801  31.1634  31.5984  32.0107  32.1020  33.0524  34.0951

     occupation numbers 
     1.0000   1.0000   1.0000   1.0000   1.0000   1.0000   1.0000   1.0000
     1.0000   1.0000   1.0000   1.0000   1.0000   1.0000   1.0000   1.0000
     1.0000   1.0000   1.0000   1.0000   1.0000   1.0000   1.0000   1.0000
     0.0000   0.0000   0.0000   0.0000   0.0000   0.0000   0.0000   0.0000
     0.0000   0.0000   0.0000   0.0000   0.0000   0.0000   0.0000   0.0000
     0.0000   0.0000   0.0000   0.0000   0.0000   0.0000   0.0000   0.0000
     0.0000   0.0000   0.0000   0.0000   0.0000   0.0000   0.0000   0.0000
     0.0000   0.0000   0.0000   0.0000   0.0000   0.0000   0.0000   0.0000

          k = 0.3333 0.5774 0.0000 (  1776 PWs)   bands (ev):

   -39.1616 -39.1616 -17.9773 -17.9762 -17.8893 -17.8893 -17.8401 -17.8400
    -8.7216  -8.7192   0.8246   0.8246   3.9127   4.5319   4.7712   4.7713
     5.3829   5.4140   5.4140   6.2984   6.7148   6.7148   8.6519   8.6519
    13.0694  13.0694  13.1453  13.5151  13.5151  13.6475  14.4281  15.1052
    15.3078  15.3078  16.5340  16.5340  17.4653  19.2405  19.4163  19.4164
    20.3077  20.6724  21.6584  21.6584  22.0107  22.0107  23.1613  23.1613
    24.0443  24.5754  24.5754  26.5356  27.6673  27.6674  29.5156  29.5156
    29.7249  30.4423  32.1426  32.1427  32.6117  33.2186  33.2187  33.7950

     occupation numbers 
     1.0000   1.0000   1.0000   1.0000   1.0000   1.0000   1.0000   1.0000
     1.0000   1.0000   1.0000   1.0000   1.0000   1.0000   1.0000   1.0000
     1.0000   1.0000   1.0000   1.0000   1.0000   1.0000   1.0000   1.0000
     0.0000   0.0000   0.0000   0.0000   0.0000   0.0000   0.0000   0.0000
     0.0000   0.0000   0.0000   0.0000   0.0000   0.0000   0.0000   0.0000
     0.0000   0.0000   0.0000   0.0000   0.0000   0.0000   0.0000   0.0000
     0.0000   0.0000   0.0000   0.0000   0.0000   0.0000   0.0000   0.0000
     0.0000   0.0000   0.0000   0.0000   0.0000   0.0000   0.0000   0.0000

          k = 0.3333 0.5774 0.1063 (  1761 PWs)   bands (ev):

   -39.1616 -39.1616 -17.9770 -17.9762 -17.8891 -17.8891 -17.8400 -17.8400
    -8.7208  -8.7197   0.8246   0.8246   4.0230   4.3002   4.7798   4.7798
     5.4156   5.4156   5.6817   6.1226   6.7164   6.7164   8.6570   8.6571
    13.0867  13.0867  13.2574  13.4950  13.5097  13.5097  14.6250  14.9602
    15.2949  15.2949  16.5960  16.5960  17.8424  18.6731  19.3556  19.3556
    20.4930  20.6349  21.6047  21.6047  21.8651  21.8651  23.4532  23.4532
    24.6430  24.8069  24.8069  25.8551  27.1182  27.1183  29.7084  29.7084
    29.9754  30.3025  32.0851  32.0852  33.1232  33.2146  33.2147  34.1447

     occupation numbers 
     1.0000   1.0000   1.0000   1.0000   1.0000   1.0000   1.0000   1.0000
     1.0000   1.0000   1.0000   1.0000   1.0000   1.0000   1.0000   1.0000
     1.0000   1.0000   1.0000   1.0000   1.0000   1.0000   1.0000   1.0000
     0.0000   0.0000   0.0000   0.0000   0.0000   0.0000   0.0000   0.0000
     0.0000   0.0000   0.0000   0.0000   0.0000   0.0000   0.0000   0.0000
     0.0000   0.0000   0.0000   0.0000   0.0000   0.0000   0.0000   0.0000
     0.0000   0.0000   0.0000   0.0000   0.0000   0.0000   0.0000   0.0000
     0.0000   0.0000   0.0000   0.0000   0.0000   0.0000   0.0000   0.0000

     highest occupied, lowest unoccupied level (ev):     9.9756   11.4745

!    total energy              =    -383.48871925 Ry
     estimated scf accuracy    <       0.00000028 Ry

     The total energy is the sum of the following terms:
     one-electron contribution =     -98.82506605 Ry
     hartree contribution      =      72.57062754 Ry
     xc contribution           =     -53.59167835 Ry
     ewald contribution        =    -202.91075129 Ry
     one-center paw contrib.   =    -100.73185110 Ry
      -> PAW hartree energy AE =       0.00000000 Ry
      -> PAW hartree energy PS =       0.00000000 Ry
      -> PAW xc energy AE      =       0.00000000 Ry
      -> PAW xc energy PS      =       0.00000000 Ry
      -> total E_H with PAW    =      72.57062754 Ry
      -> total E_XC with PAW   =     -53.59167835 Ry

     convergence has been achieved in   9 iterations

     Writing all to output data dir calculations_bands_val/myprefix.save/
 
     init_run     :      5.12s CPU      1.47s WALL (       1 calls)
     electrons    :     11.32s CPU      2.99s WALL (       1 calls)

     Called by init_run:
     wfcinit      :      0.29s CPU      0.08s WALL (       1 calls)
     wfcinit:atom :      0.00s CPU      0.00s WALL (       3 calls)
     wfcinit:wfcr :      0.27s CPU      0.08s WALL (       3 calls)
     potinit      :      1.70s CPU      0.44s WALL (       1 calls)
     hinit0       :      2.60s CPU      0.80s WALL (       1 calls)

     Called by electrons:
     c_bands      :      6.30s CPU      1.64s WALL (       9 calls)
     sum_band     :      1.46s CPU      0.41s WALL (       9 calls)
     v_of_rho     :      0.26s CPU      0.07s WALL (      10 calls)
     v_h          :      0.02s CPU      0.01s WALL (      10 calls)
     v_xc         :      0.24s CPU      0.06s WALL (      10 calls)
     newd         :      0.48s CPU      0.13s WALL (      10 calls)
     PAW_pot      :      3.03s CPU      0.79s WALL (      10 calls)
     mix_rho      :      0.07s CPU      0.02s WALL (       9 calls)

     Called by c_bands:
     init_us_2    :      0.05s CPU      0.02s WALL (      57 calls)
     init_us_2:cp :      0.05s CPU      0.01s WALL (      57 calls)
     cegterg      :      5.80s CPU      1.51s WALL (      27 calls)

     Called by sum_band:
     sum_band:wei :      0.00s CPU      0.00s WALL (       9 calls)
     sum_band:loo :      0.89s CPU      0.23s WALL (       9 calls)
     sum_band:buf :      0.01s CPU      0.00s WALL (      27 calls)
     sum_band:ini :      0.02s CPU      0.01s WALL (      27 calls)
     sum_band:cal :      0.04s CPU      0.01s WALL (      27 calls)
     sum_band:bec :      0.01s CPU      0.00s WALL (      27 calls)
     addusdens    :      0.44s CPU      0.14s WALL (       9 calls)
     addusd:skk   :      0.00s CPU      0.00s WALL (      27 calls)
     addusd:dgemm :      0.08s CPU      0.05s WALL (      27 calls)
     addusd:qvan2 :      0.32s CPU      0.08s WALL (      27 calls)

     Called by *egterg:
     cdiaghg      :      1.48s CPU      0.38s WALL (      91 calls)
     cegterg:over :      0.19s CPU      0.05s WALL (      64 calls)
     cegterg:upda :      0.10s CPU      0.03s WALL (      64 calls)
     cegterg:last :      0.18s CPU      0.05s WALL (      52 calls)
     cdiaghg:chol :      0.11s CPU      0.03s WALL (      91 calls)
     cdiaghg:inve :      0.02s CPU      0.01s WALL (      91 calls)
     cdiaghg:para :      0.26s CPU      0.07s WALL (     182 calls)
     h_psi        :      3.94s CPU      1.03s WALL (      94 calls)
     s_psi        :      0.06s CPU      0.01s WALL (      94 calls)
     g_psi        :      0.01s CPU      0.00s WALL (      64 calls)

     Called by h_psi:
     h_psi:calbec :      0.12s CPU      0.03s WALL (      94 calls)
     vloc_psi     :      3.73s CPU      0.97s WALL (      94 calls)
     add_vuspsi   :      0.08s CPU      0.02s WALL (      94 calls)

     General routines
     calbec       :      0.16s CPU      0.04s WALL (     121 calls)
     fft          :      1.24s CPU      0.32s WALL (     128 calls)
     ffts         :      1.10s CPU      0.28s WALL (      19 calls)
     fftw         :      3.80s CPU      0.99s WALL (    9886 calls)
     interpolate  :      1.11s CPU      0.29s WALL (      10 calls)
 
     Parallel routines

     PAW routines
     PAW_pot      :      3.03s CPU      0.79s WALL (      10 calls)
     PAW_symme    :      0.07s CPU      0.02s WALL (      19 calls)
 
     PWSCF        :     17.27s CPU      4.91s WALL

 
   This run was terminated on:  15:51:27   4Jun2023            

=------------------------------------------------------------------------------=
   JOB DONE.
=------------------------------------------------------------------------------=
