
     Program PWSCF v.7.0 starts on  4Jun2023 at 11: 3:59 

     This program is part of the open-source Quantum ESPRESSO suite
     for quantum simulation of materials; please cite
         "P. Giannozzi et al., J. Phys.:Condens. Matter 21 395502 (2009);
         "P. Giannozzi et al., J. Phys.:Condens. Matter 29 465901 (2017);
         "P. Giannozzi et al., J. Chem. Phys. 152 154105 (2020);
          URL http://www.quantum-espresso.org", 
     in publications or presentations arising from this work. More details at
     http://www.quantum-espresso.org/quote

     Parallel version (MPI & OpenMP), running on      32 processor cores
     Number of MPI processes:                 8
     Threads/MPI process:                     4

     MPI processes distributed on     1 nodes
     K-points division:     npool     =       2
     R & G space division:  proc/nbgrp/npool/nimage =       4
     143799 MiB available memory on the printing compute node when the environment starts
 
     Reading input from espresso_150.pwi
Warning: card &CELL ignored
Warning: card / ignored

     Current dimensions of program PWSCF are:
     Max number of different atomic species (ntypx) = 10
     Max number of k-points (npk) =  40000
     Max angular momentum in pseudopotentials (lmaxx) =  4
     file O.pbe-n-kjpaw_psl.0.1.UPF: wavefunction(s)  2P renormalized
     Message from routine setup:
     using ibrav=0 with symmetry is DISCOURAGED, use correct ibrav instead

     Subspace diagonalization in iterative solution of the eigenvalue problem:
     one sub-group per band group will be used
     scalapack distributed-memory algorithm (size of sub-group:  2*  2 procs)

 
     Parallelization info
     --------------------
     sticks:   dense  smooth     PW     G-vecs:    dense   smooth      PW
     Min        1080     539    150                53870    19035    2790
     Max        1081     540    151                53871    19036    2791
     Sum        4323    2159    601               215483    76141   11161
 
     Using Slab Decomposition
 


     bravais-lattice index     =            0
     lattice parameter (alat)  =      15.1440  a.u.
     unit-cell volume          =    3431.1736 (a.u.)^3
     number of atoms/cell      =           20
     number of atomic types    =            4
     number of electrons       =       128.00
     number of Kohn-Sham states=           64
     kinetic-energy cutoff     =      30.0000  Ry
     charge density cutoff     =     240.0000  Ry
     scf convergence threshold =      1.0E-06
     mixing beta               =       0.7000
     number of iterations used =            8  plain     mixing
     Exchange-correlation= SLA  PW   PBX  PBC
                           (   1   4   3   4   0   0   0)

     celldm(1)=  15.144046  celldm(2)=   0.000000  celldm(3)=   0.000000
     celldm(4)=   0.000000  celldm(5)=   0.000000  celldm(6)=   0.000000

     crystal axes: (cart. coord. in units of alat)
               a(1) = (   1.000000   0.000000   0.000000 )  
               a(2) = (   0.273584   0.984597   0.000000 )  
               a(3) = (   0.459030   0.003771   1.003364 )  

     reciprocal axes: (cart. coord. in units 2 pi/alat)
               b(1) = (  1.000000 -0.277864 -0.456447 )  
               b(2) = (  0.000000  1.015644 -0.003817 )  
               b(3) = (  0.000000  0.000000  0.996648 )  


     PseudoPot. # 1 for Cs read from file:
     /home/pragov/projects/rrg-bengioy-ad/pragov/crystal_structure_design/SSSP/Cs_pbe_v1.uspp.F.UPF
     MD5 check sum: 3476d69cb178dfad3ffaa59df4e07ca4
     Pseudo is Ultrasoft + core correction, Zval =  9.0
     Generated by new atomic code, or converted to UPF format
     Using radial grid of  905 points,  6 beta functions with: 
                l(1) =   0
                l(2) =   0
                l(3) =   1
                l(4) =   1
                l(5) =   2
                l(6) =   2
     Q(r) pseudized with  6 coefficients,  rinner =    1.500   1.500   1.500
                                                       1.500   1.500

     PseudoPot. # 2 for P  read from file:
     /home/pragov/projects/rrg-bengioy-ad/pragov/crystal_structure_design/SSSP/P.pbe-n-rrkjus_psl.1.0.0.UPF
     MD5 check sum: 8b930f418f0a4573dca56cd030ffe088
     Pseudo is Ultrasoft + core correction, Zval =  5.0
     Generated using "atomic" code by A. Dal Corso  v.5.1
     Using radial grid of 1147 points,  6 beta functions with: 
                l(1) =   0
                l(2) =   0
                l(3) =   1
                l(4) =   1
                l(5) =   2
                l(6) =   2
     Q(r) pseudized with 0 coefficients 


     PseudoPot. # 3 for S  read from file:
     /home/pragov/projects/rrg-bengioy-ad/pragov/crystal_structure_design/SSSP/s_pbe_v1.4.uspp.F.UPF
     MD5 check sum: 88d86576ff6df21479756cfb9bdac1df
     Pseudo is Ultrasoft + core correction, Zval =  6.0
     Generated by new atomic code, or converted to UPF format
     Using radial grid of  907 points,  6 beta functions with: 
                l(1) =   0
                l(2) =   0
                l(3) =   1
                l(4) =   1
                l(5) =   2
                l(6) =   2
     Q(r) pseudized with  8 coefficients,  rinner =    1.300   1.300   1.300
                                                       1.300   1.300

     PseudoPot. # 4 for O  read from file:
     /home/pragov/projects/rrg-bengioy-ad/pragov/crystal_structure_design/SSSP/O.pbe-n-kjpaw_psl.0.1.UPF
     MD5 check sum: 0234752ac141de4415c5fc33072bef88
     Pseudo is Projector augmented-wave + core cor, Zval =  6.0
     Generated using "atomic" code by A. Dal Corso  v.5.0.99 svn rev. 10869
     Shape of augmentation charge: BESSEL
     Using radial grid of 1095 points,  4 beta functions with: 
                l(1) =   0
                l(2) =   0
                l(3) =   1
                l(4) =   1
     Q(r) pseudized with 0 coefficients 


     atomic species   valence    mass     pseudopotential
        Cs             9.00   132.90545     Cs( 1.00)
        P              5.00    30.97376     P ( 1.00)
        S              6.00    32.06000     S ( 1.00)
        O              6.00    15.99900     O ( 1.00)

      2 Sym. Ops., with inversion, found


                                    s                        frac. trans.

      isym =  1     identity                                     

 cryst.   s( 1) = (     1          0          0      )
                  (     0          1          0      )
                  (     0          0          1      )

 cart.    s( 1) = (  1.0000000  0.0000000  0.0000000 )
                  (  0.0000000  1.0000000  0.0000000 )
                  (  0.0000000  0.0000000  1.0000000 )


      isym =  2     inversion                                    

 cryst.   s( 2) = (    -1          0          0      )
                  (     0         -1          0      )
                  (     0          0         -1      )

 cart.    s( 2) = ( -1.0000000 -0.0000000 -0.0000000 )
                  (  0.0000000 -1.0000000 -0.0000000 )
                  (  0.0000000  0.0000000 -1.0000000 )


   Cartesian axes

     site n.     atom                  positions (alat units)
         1           Cs  tau(   1) = (   0.9007969   0.6395090   0.8427092  )
         2           Cs  tau(   2) = (   0.8318177   0.3488586   0.1606546  )
         3           Cs  tau(   3) = (   1.2537086   0.8231334   0.3635147  )
         4           Cs  tau(   4) = (   0.4789060   0.1652343   0.6398491  )
         5           P   tau(   5) = (   1.4217302   0.7952329   0.9208020  )
         6           P   tau(   6) = (   0.3108843   0.1931347   0.0825618  )
         7           P   tau(   7) = (   0.9506162   0.0929033   0.7712366  )
         8           P   tau(   8) = (   0.7819983   0.8954643   0.2321272  )
         9           S   tau(   9) = (   1.3683502   0.6096478   0.7682114  )
        10           S   tau(  10) = (   0.3642643   0.3787198   0.2351523  )
        11           S   tau(  11) = (   1.0214498   0.2543377   0.5996082  )
        12           S   tau(  12) = (   0.7111647   0.7340299   0.4037556  )
        13           O   tau(  13) = (   1.5910166   0.8047252   0.9993583  )
        14           O   tau(  14) = (   0.1415979   0.1836424   0.0040054  )
        15           O   tau(  15) = (   0.6482238   0.0297404   0.2681911  )
        16           O   tau(  16) = (   1.0843907   0.9586272   0.7351727  )
        17           O   tau(  17) = (   0.3394557   0.0110611   0.1740053  )
        18           O   tau(  18) = (   1.3931588   0.9773065   0.8293584  )
        19           O   tau(  19) = (   0.9174866   0.1997703   0.9436044  )
        20           O   tau(  20) = (   0.8151280   0.7885973   0.0597593  )

   Crystallographic axes

     site n.     atom                  positions (cryst. coord.)
         1           Cs  tau(   1) = (  0.3384480  0.6462970  0.8398840  )
         2           Cs  tau(   2) = (  0.6615520  0.3537030  0.1601160  )
         3           Cs  tau(   3) = (  0.8590640  0.8346230  0.3622960  )
         4           Cs  tau(   4) = (  0.1409360  0.1653770  0.6377040  )
         5           P   tau(   5) = (  0.7804660  0.8041590  0.9177150  )
         6           P   tau(   6) = (  0.2195340  0.1958410  0.0822850  )
         7           P   tau(   7) = (  0.5727730  0.0914130  0.7686510  )
         8           P   tau(   8) = (  0.4272270  0.9085870  0.2313490  )
         9           S   tau(   9) = (  0.8483030  0.6162530  0.7656360  )
        10           S   tau(  10) = (  0.1516970  0.3837470  0.2343640  )
        11           S   tau(  11) = (  0.6770890  0.2560280  0.5975980  )
        12           S   tau(  12) = (  0.3229110  0.7439720  0.4024020  )
        13           O   tau(  13) = (  0.9112580  0.8135000  0.9960080  )
        14           O   tau(  14) = (  0.0887420  0.1865000  0.0039920  )
        15           O   tau(  15) = (  0.5175450  0.0291820  0.2672920  )
        16           O   tau(  16) = (  0.4824550  0.9708180  0.7327080  )
        17           O   tau(  17) = (  0.2569580  0.0105700  0.1734220  )
        18           O   tau(  18) = (  0.7430420  0.9894300  0.8265780  )
        19           O   tau(  19) = (  0.4312720  0.1992940  0.9404410  )
        20           O   tau(  20) = (  0.5687280  0.8007060  0.0595590  )

     number of k points=    14
                       cart. coord. in units 2pi/alat
        k(    1) = (   0.0000000   0.0000000   0.0000000), wk =   0.0740741
        k(    2) = (   0.0000000   0.0000000   0.3322158), wk =   0.1481481
        k(    3) = (   0.0000000   0.3385480  -0.0012723), wk =   0.1481481
        k(    4) = (   0.0000000   0.3385480   0.3309436), wk =   0.1481481
        k(    5) = (   0.0000000   0.3385480  -0.3334881), wk =   0.1481481
        k(    6) = (   0.3333333  -0.0926214  -0.1521490), wk =   0.1481481
        k(    7) = (   0.3333333  -0.0926214   0.1800668), wk =   0.1481481
        k(    8) = (   0.3333333  -0.0926214  -0.4843649), wk =   0.1481481
        k(    9) = (   0.3333333   0.2459266  -0.1534213), wk =   0.1481481
        k(   10) = (   0.3333333   0.2459266   0.1787945), wk =   0.1481481
        k(   11) = (   0.3333333   0.2459266  -0.4856371), wk =   0.1481481
        k(   12) = (   0.3333333  -0.4311694  -0.1508768), wk =   0.1481481
        k(   13) = (   0.3333333  -0.4311694   0.1813391), wk =   0.1481481
        k(   14) = (   0.3333333  -0.4311694  -0.4830926), wk =   0.1481481

                       cryst. coord.
        k(    1) = (   0.0000000   0.0000000   0.0000000), wk =   0.0740741
        k(    2) = (   0.0000000   0.0000000   0.3333333), wk =   0.1481481
        k(    3) = (   0.0000000   0.3333333  -0.0000000), wk =   0.1481481
        k(    4) = (   0.0000000   0.3333333   0.3333333), wk =   0.1481481
        k(    5) = (   0.0000000   0.3333333  -0.3333333), wk =   0.1481481
        k(    6) = (   0.3333333   0.0000000   0.0000000), wk =   0.1481481
        k(    7) = (   0.3333333   0.0000000   0.3333333), wk =   0.1481481
        k(    8) = (   0.3333333   0.0000000  -0.3333333), wk =   0.1481481
        k(    9) = (   0.3333333   0.3333333   0.0000000), wk =   0.1481481
        k(   10) = (   0.3333333   0.3333333   0.3333333), wk =   0.1481481
        k(   11) = (   0.3333333   0.3333333  -0.3333333), wk =   0.1481481
        k(   12) = (   0.3333333  -0.3333333   0.0000000), wk =   0.1481481
        k(   13) = (   0.3333333  -0.3333333   0.3333333), wk =   0.1481481
        k(   14) = (   0.3333333  -0.3333333  -0.3333333), wk =   0.1481481

     Dense  grid:   215483 G-vectors     FFT dimensions: (  75,  80,  90)

     Smooth grid:    76141 G-vectors     FFT dimensions: (  54,  54,  60)

     Dynamical RAM for                 wfc:       2.32 MB

     Dynamical RAM for     wfc (w. buffer):      18.59 MB

     Dynamical RAM for           str. fact:       3.29 MB

     Dynamical RAM for           local pot:       0.00 MB

     Dynamical RAM for          nlocal pot:      10.17 MB

     Dynamical RAM for                qrad:       4.98 MB

     Dynamical RAM for          rho,v,vnew:       5.62 MB

     Dynamical RAM for               rhoin:       1.87 MB

     Dynamical RAM for            rho*nmix:      13.15 MB

     Dynamical RAM for           G-vectors:       3.23 MB

     Dynamical RAM for          h,s,v(r/c):       0.19 MB

     Dynamical RAM for          <psi|beta>:       0.27 MB

     Dynamical RAM for                 psi:       4.65 MB

     Dynamical RAM for                hpsi:       4.65 MB

     Dynamical RAM for                spsi:       4.65 MB

     Dynamical RAM for      wfcinit/wfcrot:       8.73 MB

     Dynamical RAM for           addusdens:      80.14 MB

     Estimated static dynamical RAM per process >      57.13 MB

     Estimated max dynamical RAM per process >     150.42 MB

     Estimated total dynamical RAM >       1.12 GB

     Check: negative core charge=   -0.000005

     Initial potential from superposition of free atoms

     starting charge     127.8417, renormalised to     128.0000
     Starting wfcs are  116 randomized atomic wfcs
     Checking if some PAW data can be deallocated... 
       PAW data deallocated on    4 nodes for type:  4

     total cpu time spent up to now is        6.6 secs

     Self-consistent Calculation

     iteration #  1     ecut=    30.00 Ry     beta= 0.70
     Davidson diagonalization with overlap

---- Real-time Memory Report at c_bands before calling an iterative solver
           261 MiB given to the printing process from OS
             0 MiB allocation reported by mallinfo(arena+hblkhd)
        142597 MiB available memory on the node where the printing process lives
------------------
     ethr =  1.00E-02,  avg # of iterations =  2.0

     total cpu time spent up to now is        8.9 secs

     total energy              =    -737.68076934 Ry
     estimated scf accuracy    <       2.97071952 Ry

     iteration #  2     ecut=    30.00 Ry     beta= 0.70
     Davidson diagonalization with overlap

---- Real-time Memory Report at c_bands before calling an iterative solver
           342 MiB given to the printing process from OS
             0 MiB allocation reported by mallinfo(arena+hblkhd)
        142362 MiB available memory on the node where the printing process lives
------------------
     ethr =  2.32E-03,  avg # of iterations =  3.0

     total cpu time spent up to now is       11.4 secs

     total energy              =    -738.39702326 Ry
     estimated scf accuracy    <       3.26182849 Ry

     iteration #  3     ecut=    30.00 Ry     beta= 0.70
     Davidson diagonalization with overlap

---- Real-time Memory Report at c_bands before calling an iterative solver
           367 MiB given to the printing process from OS
             0 MiB allocation reported by mallinfo(arena+hblkhd)
        142282 MiB available memory on the node where the printing process lives
------------------
     ethr =  2.32E-03,  avg # of iterations =  3.0

     total cpu time spent up to now is       13.5 secs

     total energy              =    -738.98306270 Ry
     estimated scf accuracy    <       0.10105563 Ry

     iteration #  4     ecut=    30.00 Ry     beta= 0.70
     Davidson diagonalization with overlap

---- Real-time Memory Report at c_bands before calling an iterative solver
           369 MiB given to the printing process from OS
             0 MiB allocation reported by mallinfo(arena+hblkhd)
        142472 MiB available memory on the node where the printing process lives
------------------
     ethr =  7.89E-05,  avg # of iterations =  3.0

     total cpu time spent up to now is       16.0 secs

     total energy              =    -739.03411236 Ry
     estimated scf accuracy    <       0.02087141 Ry

     iteration #  5     ecut=    30.00 Ry     beta= 0.70
     Davidson diagonalization with overlap

---- Real-time Memory Report at c_bands before calling an iterative solver
           369 MiB given to the printing process from OS
             0 MiB allocation reported by mallinfo(arena+hblkhd)
        142470 MiB available memory on the node where the printing process lives
------------------
     ethr =  1.63E-05,  avg # of iterations =  2.0

     total cpu time spent up to now is       18.2 secs

     total energy              =    -739.03587428 Ry
     estimated scf accuracy    <       0.00341797 Ry

     iteration #  6     ecut=    30.00 Ry     beta= 0.70
     Davidson diagonalization with overlap

---- Real-time Memory Report at c_bands before calling an iterative solver
           373 MiB given to the printing process from OS
             0 MiB allocation reported by mallinfo(arena+hblkhd)
        142433 MiB available memory on the node where the printing process lives
------------------
     ethr =  2.67E-06,  avg # of iterations =  2.7

     total cpu time spent up to now is       20.4 secs

     total energy              =    -739.03666858 Ry
     estimated scf accuracy    <       0.00008656 Ry

     iteration #  7     ecut=    30.00 Ry     beta= 0.70
     Davidson diagonalization with overlap

---- Real-time Memory Report at c_bands before calling an iterative solver
           373 MiB given to the printing process from OS
             0 MiB allocation reported by mallinfo(arena+hblkhd)
        142422 MiB available memory on the node where the printing process lives
------------------
     ethr =  6.76E-08,  avg # of iterations =  5.0

     total cpu time spent up to now is       23.4 secs

     total energy              =    -739.03672920 Ry
     estimated scf accuracy    <       0.00008391 Ry

     iteration #  8     ecut=    30.00 Ry     beta= 0.70
     Davidson diagonalization with overlap

---- Real-time Memory Report at c_bands before calling an iterative solver
           373 MiB given to the printing process from OS
             0 MiB allocation reported by mallinfo(arena+hblkhd)
        142422 MiB available memory on the node where the printing process lives
------------------
     ethr =  6.56E-08,  avg # of iterations =  3.0

     total cpu time spent up to now is       25.5 secs

     total energy              =    -739.03673971 Ry
     estimated scf accuracy    <       0.00000758 Ry

     iteration #  9     ecut=    30.00 Ry     beta= 0.70
     Davidson diagonalization with overlap

---- Real-time Memory Report at c_bands before calling an iterative solver
           377 MiB given to the printing process from OS
             0 MiB allocation reported by mallinfo(arena+hblkhd)
        142409 MiB available memory on the node where the printing process lives
------------------
     ethr =  5.92E-09,  avg # of iterations =  4.4

     total cpu time spent up to now is       28.2 secs

     total energy              =    -739.03674314 Ry
     estimated scf accuracy    <       0.00000215 Ry

     iteration # 10     ecut=    30.00 Ry     beta= 0.70
     Davidson diagonalization with overlap

---- Real-time Memory Report at c_bands before calling an iterative solver
           380 MiB given to the printing process from OS
             0 MiB allocation reported by mallinfo(arena+hblkhd)
        142485 MiB available memory on the node where the printing process lives
------------------
     ethr =  1.68E-09,  avg # of iterations =  5.2

     total cpu time spent up to now is       30.6 secs

     End of self-consistent calculation

          k = 0.0000 0.0000 0.0000 (  9527 PWs)   bands (ev):

   -19.3813 -18.5079 -18.4915 -17.3131 -17.2951 -17.2771 -17.2447 -17.2229
   -16.4240 -16.0924 -15.8839 -15.8627 -10.5700  -9.8182  -9.6187  -9.3074
    -7.5029  -7.1092  -6.7686  -5.5303  -4.3495  -4.3078  -4.2998  -4.2497
    -4.2257  -4.1879  -4.1511  -4.1130  -4.0835  -4.0385  -4.0332  -4.0137
    -3.6388  -3.2579  -3.2050  -2.6025  -2.5086  -2.3668  -2.2424  -2.1998
    -1.7435  -1.3336  -0.8440  -0.7649  -0.5281  -0.4385  -0.2325   0.0094
     0.3813   0.4291   0.6382   0.8845   0.9682   0.9896   0.9995   1.1661
     2.0751   2.1204   2.2230   2.2931   2.3565   2.3810   2.5406   2.6222

     occupation numbers 
     1.0000   1.0000   1.0000   1.0000   1.0000   1.0000   1.0000   1.0000
     1.0000   1.0000   1.0000   1.0000   1.0000   1.0000   1.0000   1.0000
     1.0000   1.0000   1.0000   1.0000   1.0000   1.0000   1.0000   1.0000
     1.0000   1.0000   1.0000   1.0000   1.0000   1.0000   1.0000   1.0000
     1.0000   1.0000   1.0000   1.0000   1.0000   1.0000   1.0000   1.0000
     1.0000   1.0000   1.0000   1.0000   1.0000   1.0000   1.0000   1.0000
     1.0000   1.0000   1.0000   1.0000   1.0000   1.0000   1.0000   1.0000
     1.0000   1.0000   1.0000   1.0000   1.0000   1.0000   1.0000   1.0000

          k = 0.0000 0.0000 0.3322 (  9520 PWs)   bands (ev):

   -19.3803 -18.5100 -18.4915 -17.3129 -17.2958 -17.2648 -17.2473 -17.2321
   -16.4212 -16.0888 -15.8854 -15.8661 -10.5765  -9.8231  -9.6114  -9.2845
    -7.5081  -7.1309  -6.7784  -5.5347  -4.3803  -4.3099  -4.2852  -4.2705
    -4.2074  -4.1626  -4.1518  -4.1089  -4.0839  -4.0722  -4.0690  -4.0144
    -3.5821  -3.2614  -3.1979  -2.6155  -2.5077  -2.3612  -2.2013  -2.1463
    -1.7273  -1.3305  -0.8034  -0.7258  -0.5664  -0.4311  -0.2832  -0.0022
     0.4056   0.4386   0.6594   0.8545   0.9180   0.9794   0.9903   1.1432
     2.0576   2.1324   2.2192   2.2611   2.3160   2.4404   2.5025   2.5720

     occupation numbers 
     1.0000   1.0000   1.0000   1.0000   1.0000   1.0000   1.0000   1.0000
     1.0000   1.0000   1.0000   1.0000   1.0000   1.0000   1.0000   1.0000
     1.0000   1.0000   1.0000   1.0000   1.0000   1.0000   1.0000   1.0000
     1.0000   1.0000   1.0000   1.0000   1.0000   1.0000   1.0000   1.0000
     1.0000   1.0000   1.0000   1.0000   1.0000   1.0000   1.0000   1.0000
     1.0000   1.0000   1.0000   1.0000   1.0000   1.0000   1.0000   1.0000
     1.0000   1.0000   1.0000   1.0000   1.0000   1.0000   1.0000   1.0000
     1.0000   1.0000   1.0000   1.0000   1.0000   1.0000   1.0000   1.0000

          k = 0.0000 0.3385-0.0013 (  9521 PWs)   bands (ev):

   -19.3805 -18.5078 -18.4927 -17.3074 -17.3046 -17.2671 -17.2450 -17.2298
   -16.4232 -16.0914 -15.8845 -15.8617 -10.5769  -9.8147  -9.6249  -9.2887
    -7.5013  -7.1133  -6.7785  -5.5301  -4.4201  -4.3659  -4.2766  -4.2727
    -4.2127  -4.1955  -4.1343  -4.1146  -4.0562  -4.0540  -4.0256  -4.0056
    -3.4987  -3.2911  -3.2249  -2.5688  -2.4916  -2.3913  -2.2667  -2.2260
    -1.6907  -1.3368  -0.8146  -0.7455  -0.5278  -0.4572  -0.2320  -0.0523
     0.3999   0.4331   0.6526   0.8947   0.9703   0.9759   1.0080   1.0970
     1.9778   2.1625   2.2404   2.3322   2.3629   2.4039   2.5645   2.5752

     occupation numbers 
     1.0000   1.0000   1.0000   1.0000   1.0000   1.0000   1.0000   1.0000
     1.0000   1.0000   1.0000   1.0000   1.0000   1.0000   1.0000   1.0000
     1.0000   1.0000   1.0000   1.0000   1.0000   1.0000   1.0000   1.0000
     1.0000   1.0000   1.0000   1.0000   1.0000   1.0000   1.0000   1.0000
     1.0000   1.0000   1.0000   1.0000   1.0000   1.0000   1.0000   1.0000
     1.0000   1.0000   1.0000   1.0000   1.0000   1.0000   1.0000   1.0000
     1.0000   1.0000   1.0000   1.0000   1.0000   1.0000   1.0000   1.0000
     1.0000   1.0000   1.0000   1.0000   1.0000   1.0000   1.0000   1.0000

          k = 0.0000 0.3385 0.3309 (  9520 PWs)   bands (ev):

   -19.3797 -18.5099 -18.4927 -17.3072 -17.3003 -17.2624 -17.2465 -17.2375
   -16.4207 -16.0877 -15.8863 -15.8650 -10.5861  -9.8130  -9.6154  -9.2673
    -7.5234  -7.1284  -6.7865  -5.5356  -4.4490  -4.3289  -4.2698  -4.2407
    -4.2036  -4.1642  -4.1353  -4.1167  -4.1074  -4.0706  -4.0443  -4.0355
    -3.4742  -3.2814  -3.2034  -2.5866  -2.4805  -2.3930  -2.2193  -2.1898
    -1.6807  -1.3403  -0.7791  -0.7220  -0.6002  -0.4762  -0.2609  -0.0400
     0.3883   0.4625   0.6669   0.8552   0.9246   0.9938   1.0075   1.0903
     2.0478   2.1327   2.2010   2.2615   2.3915   2.4505   2.5207   2.5497

     occupation numbers 
     1.0000   1.0000   1.0000   1.0000   1.0000   1.0000   1.0000   1.0000
     1.0000   1.0000   1.0000   1.0000   1.0000   1.0000   1.0000   1.0000
     1.0000   1.0000   1.0000   1.0000   1.0000   1.0000   1.0000   1.0000
     1.0000   1.0000   1.0000   1.0000   1.0000   1.0000   1.0000   1.0000
     1.0000   1.0000   1.0000   1.0000   1.0000   1.0000   1.0000   1.0000
     1.0000   1.0000   1.0000   1.0000   1.0000   1.0000   1.0000   1.0000
     1.0000   1.0000   1.0000   1.0000   1.0000   1.0000   1.0000   1.0000
     1.0000   1.0000   1.0000   1.0000   1.0000   1.0000   1.0000   1.0000

          k = 0.0000 0.3385-0.3335 (  9510 PWs)   bands (ev):

   -19.3797 -18.5098 -18.4927 -17.3074 -17.3007 -17.2593 -17.2474 -17.2391
   -16.4206 -16.0876 -15.8863 -15.8651 -10.5859  -9.8159  -9.6108  -9.2677
    -7.5255  -7.1307  -6.7832  -5.5380  -4.4571  -4.3321  -4.2612  -4.2317
    -4.1927  -4.1733  -4.1414  -4.1099  -4.1003  -4.0844  -4.0481  -4.0241
    -3.4748  -3.2835  -3.2038  -2.5856  -2.4770  -2.3843  -2.2171  -2.2024
    -1.6777  -1.3374  -0.7891  -0.7172  -0.6182  -0.4758  -0.2480  -0.0449
     0.3868   0.4507   0.6553   0.8850   0.9255   0.9988   1.0132   1.1025
     2.0129   2.1540   2.1778   2.2938   2.3870   2.4758   2.5073   2.5331

     occupation numbers 
     1.0000   1.0000   1.0000   1.0000   1.0000   1.0000   1.0000   1.0000
     1.0000   1.0000   1.0000   1.0000   1.0000   1.0000   1.0000   1.0000
     1.0000   1.0000   1.0000   1.0000   1.0000   1.0000   1.0000   1.0000
     1.0000   1.0000   1.0000   1.0000   1.0000   1.0000   1.0000   1.0000
     1.0000   1.0000   1.0000   1.0000   1.0000   1.0000   1.0000   1.0000
     1.0000   1.0000   1.0000   1.0000   1.0000   1.0000   1.0000   1.0000
     1.0000   1.0000   1.0000   1.0000   1.0000   1.0000   1.0000   1.0000
     1.0000   1.0000   1.0000   1.0000   1.0000   1.0000   1.0000   1.0000

          k = 0.3333-0.0926-0.1521 (  9529 PWs)   bands (ev):

   -19.3796 -18.5081 -18.4938 -17.3180 -17.2989 -17.2614 -17.2515 -17.2283
   -16.4129 -16.0884 -15.8925 -15.8628 -10.5765  -9.8234  -9.6122  -9.2835
    -7.5146  -7.1291  -6.7815  -5.5326  -4.3637  -4.3251  -4.3019  -4.2494
    -4.2464  -4.1720  -4.1422  -4.1305  -4.0967  -4.0727  -4.0523  -4.0078
    -3.4994  -3.2823  -3.1526  -2.5624  -2.4731  -2.3343  -2.2156  -2.1764
    -1.7626  -1.3119  -0.8601  -0.7862  -0.5255  -0.4873  -0.3418   0.0077
     0.3056   0.4099   0.6639   0.8870   0.9260   0.9486   1.0401   1.1363
     2.0713   2.1046   2.2398   2.2969   2.3117   2.3762   2.5062   2.5759

     occupation numbers 
     1.0000   1.0000   1.0000   1.0000   1.0000   1.0000   1.0000   1.0000
     1.0000   1.0000   1.0000   1.0000   1.0000   1.0000   1.0000   1.0000
     1.0000   1.0000   1.0000   1.0000   1.0000   1.0000   1.0000   1.0000
     1.0000   1.0000   1.0000   1.0000   1.0000   1.0000   1.0000   1.0000
     1.0000   1.0000   1.0000   1.0000   1.0000   1.0000   1.0000   1.0000
     1.0000   1.0000   1.0000   1.0000   1.0000   1.0000   1.0000   1.0000
     1.0000   1.0000   1.0000   1.0000   1.0000   1.0000   1.0000   1.0000
     1.0000   1.0000   1.0000   1.0000   1.0000   1.0000   1.0000   1.0000

          k = 0.3333-0.0926 0.1801 (  9526 PWs)   bands (ev):

   -19.3794 -18.5084 -18.4934 -17.3176 -17.3028 -17.2747 -17.2469 -17.2174
   -16.4114 -16.0835 -15.8938 -15.8668 -10.5708  -9.8168  -9.6159  -9.3049
    -7.4890  -7.1231  -6.7867  -5.5359  -4.3803  -4.3400  -4.3059  -4.2597
    -4.2482  -4.1656  -4.1500  -4.1386  -4.0770  -4.0476  -4.0357  -4.0173
    -3.5347  -3.2610  -3.1390  -2.5851  -2.4527  -2.3791  -2.2045  -2.1339
    -1.7391  -1.3259  -0.8691  -0.7913  -0.5811  -0.4705  -0.3116  -0.0256
     0.3022   0.4317   0.5748   0.9118   0.9186   1.0060   1.0572   1.1426
     2.0193   2.1602   2.2381   2.2860   2.3376   2.3925   2.5039   2.6008

     occupation numbers 
     1.0000   1.0000   1.0000   1.0000   1.0000   1.0000   1.0000   1.0000
     1.0000   1.0000   1.0000   1.0000   1.0000   1.0000   1.0000   1.0000
     1.0000   1.0000   1.0000   1.0000   1.0000   1.0000   1.0000   1.0000
     1.0000   1.0000   1.0000   1.0000   1.0000   1.0000   1.0000   1.0000
     1.0000   1.0000   1.0000   1.0000   1.0000   1.0000   1.0000   1.0000
     1.0000   1.0000   1.0000   1.0000   1.0000   1.0000   1.0000   1.0000
     1.0000   1.0000   1.0000   1.0000   1.0000   1.0000   1.0000   1.0000
     1.0000   1.0000   1.0000   1.0000   1.0000   1.0000   1.0000   1.0000

          k = 0.3333-0.0926-0.4844 (  9535 PWs)   bands (ev):

   -19.3791 -18.5093 -18.4935 -17.3177 -17.3012 -17.2657 -17.2445 -17.2298
   -16.4108 -16.0842 -15.8942 -15.8666 -10.5771  -9.8226  -9.6105  -9.2828
    -7.5047  -7.1372  -6.7893  -5.5340  -4.4084  -4.3243  -4.3072  -4.2662
    -4.2182  -4.1665  -4.1350  -4.1216  -4.0916  -4.0812  -4.0534  -4.0079
    -3.5086  -3.2781  -3.1336  -2.5834  -2.4584  -2.3571  -2.1908  -2.1311
    -1.7418  -1.3177  -0.8271  -0.7903  -0.5772  -0.4749  -0.3491  -0.0171
     0.2972   0.4490   0.6332   0.8382   0.9158   0.9846   1.0305   1.1377
     2.0439   2.1435   2.2130   2.2761   2.3449   2.4032   2.4816   2.5635

     occupation numbers 
     1.0000   1.0000   1.0000   1.0000   1.0000   1.0000   1.0000   1.0000
     1.0000   1.0000   1.0000   1.0000   1.0000   1.0000   1.0000   1.0000
     1.0000   1.0000   1.0000   1.0000   1.0000   1.0000   1.0000   1.0000
     1.0000   1.0000   1.0000   1.0000   1.0000   1.0000   1.0000   1.0000
     1.0000   1.0000   1.0000   1.0000   1.0000   1.0000   1.0000   1.0000
     1.0000   1.0000   1.0000   1.0000   1.0000   1.0000   1.0000   1.0000
     1.0000   1.0000   1.0000   1.0000   1.0000   1.0000   1.0000   1.0000
     1.0000   1.0000   1.0000   1.0000   1.0000   1.0000   1.0000   1.0000

          k = 0.3333 0.2459-0.1534 (  9518 PWs)   bands (ev):

   -19.3794 -18.5081 -18.4931 -17.3115 -17.3003 -17.2685 -17.2511 -17.2305
   -16.4120 -16.0865 -15.8917 -15.8633 -10.5796  -9.8202  -9.6143  -9.2676
    -7.5422  -7.1313  -6.7762  -5.5320  -4.4127  -4.3678  -4.2356  -4.2288
    -4.2139  -4.1862  -4.1406  -4.1105  -4.0974  -4.0740  -4.0307  -4.0209
    -3.4497  -3.2727  -3.1969  -2.5991  -2.4888  -2.3745  -2.2299  -2.1730
    -1.6891  -1.3212  -0.8380  -0.7712  -0.5844  -0.4536  -0.2734  -0.0922
     0.3196   0.3804   0.6566   0.8846   0.9274   0.9552   1.0442   1.1610
     2.0217   2.1310   2.1949   2.2928   2.3640   2.4387   2.5170   2.5604

     occupation numbers 
     1.0000   1.0000   1.0000   1.0000   1.0000   1.0000   1.0000   1.0000
     1.0000   1.0000   1.0000   1.0000   1.0000   1.0000   1.0000   1.0000
     1.0000   1.0000   1.0000   1.0000   1.0000   1.0000   1.0000   1.0000
     1.0000   1.0000   1.0000   1.0000   1.0000   1.0000   1.0000   1.0000
     1.0000   1.0000   1.0000   1.0000   1.0000   1.0000   1.0000   1.0000
     1.0000   1.0000   1.0000   1.0000   1.0000   1.0000   1.0000   1.0000
     1.0000   1.0000   1.0000   1.0000   1.0000   1.0000   1.0000   1.0000
     1.0000   1.0000   1.0000   1.0000   1.0000   1.0000   1.0000   1.0000

          k = 0.3333 0.2459 0.1788 (  9505 PWs)   bands (ev):

   -19.3792 -18.5083 -18.4926 -17.3143 -17.3009 -17.2802 -17.2472 -17.2204
   -16.4104 -16.0816 -15.8929 -15.8672 -10.5744  -9.8082  -9.6258  -9.2885
    -7.5131  -7.1193  -6.7874  -5.5335  -4.4036  -4.3566  -4.2637  -4.2569
    -4.2071  -4.1969  -4.1656  -4.1246  -4.0971  -4.0423  -4.0227  -4.0132
    -3.4720  -3.2484  -3.1884  -2.6033  -2.4867  -2.4214  -2.2166  -2.1160
    -1.6707  -1.3456  -0.8137  -0.7509  -0.6280  -0.4477  -0.2815  -0.1034
     0.3282   0.4167   0.5837   0.8919   0.9118   0.9971   1.0532   1.1402
     2.0591   2.1067   2.2031   2.3030   2.3773   2.4588   2.5310   2.5540

     occupation numbers 
     1.0000   1.0000   1.0000   1.0000   1.0000   1.0000   1.0000   1.0000
     1.0000   1.0000   1.0000   1.0000   1.0000   1.0000   1.0000   1.0000
     1.0000   1.0000   1.0000   1.0000   1.0000   1.0000   1.0000   1.0000
     1.0000   1.0000   1.0000   1.0000   1.0000   1.0000   1.0000   1.0000
     1.0000   1.0000   1.0000   1.0000   1.0000   1.0000   1.0000   1.0000
     1.0000   1.0000   1.0000   1.0000   1.0000   1.0000   1.0000   1.0000
     1.0000   1.0000   1.0000   1.0000   1.0000   1.0000   1.0000   1.0000
     1.0000   1.0000   1.0000   1.0000   1.0000   1.0000   1.0000   1.0000

          k = 0.3333 0.2459-0.4856 (  9519 PWs)   bands (ev):

   -19.3789 -18.5092 -18.4929 -17.3128 -17.2997 -17.2741 -17.2442 -17.2317
   -16.4099 -16.0822 -15.8932 -15.8670 -10.5806  -9.8160  -9.6170  -9.2665
    -7.5303  -7.1354  -6.7868  -5.5349  -4.4340  -4.3503  -4.2616  -4.2417
    -4.2264  -4.1767  -4.1341  -4.1229  -4.0915  -4.0527  -4.0397  -4.0215
    -3.4588  -3.2613  -3.1738  -2.6015  -2.4857  -2.3972  -2.1955  -2.1327
    -1.6705  -1.3315  -0.8133  -0.7598  -0.6182  -0.4447  -0.2984  -0.1171
     0.3128   0.4308   0.6368   0.8423   0.9170   0.9685   1.0352   1.1425
     2.0525   2.1061   2.2323   2.2604   2.3594   2.4626   2.5125   2.5369

     occupation numbers 
     1.0000   1.0000   1.0000   1.0000   1.0000   1.0000   1.0000   1.0000
     1.0000   1.0000   1.0000   1.0000   1.0000   1.0000   1.0000   1.0000
     1.0000   1.0000   1.0000   1.0000   1.0000   1.0000   1.0000   1.0000
     1.0000   1.0000   1.0000   1.0000   1.0000   1.0000   1.0000   1.0000
     1.0000   1.0000   1.0000   1.0000   1.0000   1.0000   1.0000   1.0000
     1.0000   1.0000   1.0000   1.0000   1.0000   1.0000   1.0000   1.0000
     1.0000   1.0000   1.0000   1.0000   1.0000   1.0000   1.0000   1.0000
     1.0000   1.0000   1.0000   1.0000   1.0000   1.0000   1.0000   1.0000

          k = 0.3333-0.4312-0.1509 (  9528 PWs)   bands (ev):

   -19.3792 -18.5080 -18.4940 -17.3139 -17.3003 -17.2643 -17.2486 -17.2334
   -16.4122 -16.0870 -15.8925 -15.8627 -10.5816  -9.8193  -9.6171  -9.2661
    -7.5283  -7.1321  -6.7828  -5.5307  -4.4618  -4.3545  -4.2737  -4.2443
    -4.2044  -4.1746  -4.1469  -4.1047  -4.0855  -4.0669  -4.0354  -4.0044
    -3.4536  -3.2708  -3.1799  -2.5662  -2.4733  -2.3653  -2.2366  -2.2003
    -1.6972  -1.3147  -0.8388  -0.7773  -0.5495  -0.4846  -0.3010  -0.0725
     0.3221   0.3987   0.6682   0.8895   0.9244   0.9364   1.0721   1.0969
     2.0141   2.1220   2.2049   2.3024   2.3572   2.4523   2.5172   2.5503

     occupation numbers 
     1.0000   1.0000   1.0000   1.0000   1.0000   1.0000   1.0000   1.0000
     1.0000   1.0000   1.0000   1.0000   1.0000   1.0000   1.0000   1.0000
     1.0000   1.0000   1.0000   1.0000   1.0000   1.0000   1.0000   1.0000
     1.0000   1.0000   1.0000   1.0000   1.0000   1.0000   1.0000   1.0000
     1.0000   1.0000   1.0000   1.0000   1.0000   1.0000   1.0000   1.0000
     1.0000   1.0000   1.0000   1.0000   1.0000   1.0000   1.0000   1.0000
     1.0000   1.0000   1.0000   1.0000   1.0000   1.0000   1.0000   1.0000
     1.0000   1.0000   1.0000   1.0000   1.0000   1.0000   1.0000   1.0000

          k = 0.3333-0.4312 0.1813 (  9507 PWs)   bands (ev):

   -19.3789 -18.5083 -18.4935 -17.3173 -17.3010 -17.2748 -17.2473 -17.2215
   -16.4106 -16.0820 -15.8938 -15.8665 -10.5760  -9.8105  -9.6241  -9.2872
    -7.5001  -7.1227  -6.7917  -5.5344  -4.4647  -4.3499  -4.2834  -4.2572
    -4.2225  -4.1766  -4.1630  -4.1109  -4.0682  -4.0427  -4.0261  -4.0133
    -3.4721  -3.2505  -3.1701  -2.5788  -2.4611  -2.4099  -2.2220  -2.1463
    -1.6730  -1.3366  -0.8117  -0.7891  -0.5917  -0.4923  -0.2886  -0.0853
     0.3166   0.4402   0.5854   0.8895   0.9163   1.0074   1.0787   1.0962
     2.0013   2.1457   2.2165   2.3063   2.3753   2.4446   2.5362   2.5550

     occupation numbers 
     1.0000   1.0000   1.0000   1.0000   1.0000   1.0000   1.0000   1.0000
     1.0000   1.0000   1.0000   1.0000   1.0000   1.0000   1.0000   1.0000
     1.0000   1.0000   1.0000   1.0000   1.0000   1.0000   1.0000   1.0000
     1.0000   1.0000   1.0000   1.0000   1.0000   1.0000   1.0000   1.0000
     1.0000   1.0000   1.0000   1.0000   1.0000   1.0000   1.0000   1.0000
     1.0000   1.0000   1.0000   1.0000   1.0000   1.0000   1.0000   1.0000
     1.0000   1.0000   1.0000   1.0000   1.0000   1.0000   1.0000   1.0000
     1.0000   1.0000   1.0000   1.0000   1.0000   1.0000   1.0000   1.0000

          k = 0.3333-0.4312-0.4831 (  9527 PWs)   bands (ev):

   -19.3786 -18.5092 -18.4938 -17.3161 -17.2983 -17.2686 -17.2467 -17.2315
   -16.4102 -16.0826 -15.8940 -15.8665 -10.5851  -9.8131  -9.6116  -9.2670
    -7.5356  -7.1323  -6.7892  -5.5401  -4.4749  -4.3329  -4.2546  -4.2281
    -4.1899  -4.1573  -4.1461  -4.1168  -4.1018  -4.0824  -4.0490  -4.0374
    -3.4453  -3.2692  -3.1612  -2.5812  -2.4571  -2.3827  -2.2027  -2.1650
    -1.6781  -1.3336  -0.8121  -0.7554  -0.6660  -0.5011  -0.2973  -0.0567
     0.3069   0.4117   0.6334   0.8791   0.9182   0.9822   1.0812   1.0980
     2.0699   2.0994   2.1720   2.2694   2.4081   2.4731   2.5082   2.5196

     occupation numbers 
     1.0000   1.0000   1.0000   1.0000   1.0000   1.0000   1.0000   1.0000
     1.0000   1.0000   1.0000   1.0000   1.0000   1.0000   1.0000   1.0000
     1.0000   1.0000   1.0000   1.0000   1.0000   1.0000   1.0000   1.0000
     1.0000   1.0000   1.0000   1.0000   1.0000   1.0000   1.0000   1.0000
     1.0000   1.0000   1.0000   1.0000   1.0000   1.0000   1.0000   1.0000
     1.0000   1.0000   1.0000   1.0000   1.0000   1.0000   1.0000   1.0000
     1.0000   1.0000   1.0000   1.0000   1.0000   1.0000   1.0000   1.0000
     1.0000   1.0000   1.0000   1.0000   1.0000   1.0000   1.0000   1.0000

     highest occupied level (ev):     2.6222

!    total energy              =    -739.03674292 Ry
     estimated scf accuracy    <       0.00000083 Ry

     The total energy is the sum of the following terms:
     one-electron contribution =    -375.78606269 Ry
     hartree contribution      =     242.80188161 Ry
     xc contribution           =    -233.07190223 Ry
     ewald contribution        =    -296.81631301 Ry
     one-center paw contrib.   =     -76.16434659 Ry
      -> PAW hartree energy AE =       0.00000000 Ry
      -> PAW hartree energy PS =       0.00000000 Ry
      -> PAW xc energy AE      =       0.00000000 Ry
      -> PAW xc energy PS      =       0.00000000 Ry
      -> total E_H with PAW    =     242.80188161 Ry
      -> total E_XC with PAW   =    -233.07190223 Ry

     convergence has been achieved in  10 iterations

     Writing all to output data dir calculations_bands_val/myprefix.save/
 
     init_run     :     16.85s CPU      6.27s WALL (       1 calls)
     electrons    :     91.43s CPU     24.11s WALL (       1 calls)

     Called by init_run:
     wfcinit      :      4.68s CPU      1.23s WALL (       1 calls)
     wfcinit:atom :      0.06s CPU      0.02s WALL (       7 calls)
     wfcinit:wfcr :      4.25s CPU      1.11s WALL (       7 calls)
     potinit      :      4.07s CPU      1.04s WALL (       1 calls)
     hinit0       :      7.25s CPU      3.73s WALL (       1 calls)

     Called by electrons:
     c_bands      :     67.46s CPU     17.36s WALL (      10 calls)
     sum_band     :     15.02s CPU      4.24s WALL (      10 calls)
     v_of_rho     :      2.08s CPU      0.56s WALL (      11 calls)
     v_h          :      0.15s CPU      0.04s WALL (      11 calls)
     v_xc         :      1.92s CPU      0.52s WALL (      11 calls)
     newd         :      5.22s CPU      1.54s WALL (      11 calls)
     PAW_pot      :      1.70s CPU      0.44s WALL (      11 calls)
     mix_rho      :      0.39s CPU      0.11s WALL (      10 calls)

     Called by c_bands:
     init_us_2    :      0.74s CPU      0.19s WALL (     147 calls)
     init_us_2:cp :      0.73s CPU      0.19s WALL (     147 calls)
     cegterg      :     62.27s CPU     16.02s WALL (      70 calls)

     Called by sum_band:
     sum_band:wei :      0.02s CPU      0.01s WALL (      10 calls)
     sum_band:loo :      8.97s CPU      2.31s WALL (      10 calls)
     sum_band:buf :      0.18s CPU      0.05s WALL (      70 calls)
     sum_band:ini :      0.29s CPU      0.07s WALL (      70 calls)
     sum_band:cal :      1.13s CPU      0.29s WALL (      70 calls)
     sum_band:bec :      0.09s CPU      0.02s WALL (      70 calls)
     addusdens    :      4.93s CPU      1.63s WALL (      10 calls)
     addusd:skk   :      0.04s CPU      0.01s WALL (      40 calls)
     addusd:dgemm :      1.01s CPU      0.62s WALL (      40 calls)
     addusd:qvan2 :      3.35s CPU      0.85s WALL (      40 calls)

     Called by *egterg:
     cdiaghg      :      5.87s CPU      1.53s WALL (     298 calls)
     cegterg:over :      3.81s CPU      0.97s WALL (     228 calls)
     cegterg:upda :      1.40s CPU      0.36s WALL (     228 calls)
     cegterg:last :      2.99s CPU      0.76s WALL (     175 calls)
     cdiaghg:chol :      0.40s CPU      0.11s WALL (     298 calls)
     cdiaghg:inve :      0.08s CPU      0.02s WALL (     298 calls)
     cdiaghg:para :      0.84s CPU      0.22s WALL (     596 calls)
     h_psi        :     48.31s CPU     12.46s WALL (     305 calls)
     s_psi        :      2.51s CPU      0.63s WALL (     305 calls)
     g_psi        :      0.10s CPU      0.03s WALL (     228 calls)

     Called by h_psi:
     h_psi:calbec :      3.61s CPU      0.92s WALL (     305 calls)
     vloc_psi     :     41.92s CPU     10.82s WALL (     305 calls)
     add_vuspsi   :      2.61s CPU      0.67s WALL (     305 calls)

     General routines
     calbec       :      4.73s CPU      1.20s WALL (     375 calls)
     fft          :      2.74s CPU      0.81s WALL (     141 calls)
     ffts         :      1.01s CPU      0.26s WALL (      21 calls)
     fftw         :     42.93s CPU     11.10s WALL (   32500 calls)
     interpolate  :      1.11s CPU      0.29s WALL (      11 calls)
 
     Parallel routines

     PAW routines
     PAW_pot      :      1.70s CPU      0.44s WALL (      11 calls)
     PAW_symme    :      0.01s CPU      0.00s WALL (      21 calls)
 
     PWSCF        :   1m49.76s CPU     31.25s WALL

 
   This run was terminated on:  11: 4:30   4Jun2023            

=------------------------------------------------------------------------------=
   JOB DONE.
=------------------------------------------------------------------------------=
