
     Program PWSCF v.7.0 starts on  4Jun2023 at 12:29:47 

     This program is part of the open-source Quantum ESPRESSO suite
     for quantum simulation of materials; please cite
         "P. Giannozzi et al., J. Phys.:Condens. Matter 21 395502 (2009);
         "P. Giannozzi et al., J. Phys.:Condens. Matter 29 465901 (2017);
         "P. Giannozzi et al., J. Chem. Phys. 152 154105 (2020);
          URL http://www.quantum-espresso.org", 
     in publications or presentations arising from this work. More details at
     http://www.quantum-espresso.org/quote

     Parallel version (MPI & OpenMP), running on      32 processor cores
     Number of MPI processes:                 8
     Threads/MPI process:                     4

     MPI processes distributed on     1 nodes
     K-points division:     npool     =       2
     R & G space division:  proc/nbgrp/npool/nimage =       4
     141944 MiB available memory on the printing compute node when the environment starts
 
     Reading input from espresso_422.pwi
Warning: card &CELL ignored
Warning: card / ignored

     Current dimensions of program PWSCF are:
     Max number of different atomic species (ntypx) = 10
     Max number of k-points (npk) =  40000
     Max angular momentum in pseudopotentials (lmaxx) =  4
     Message from routine setup:
     using ibrav=0 with symmetry is DISCOURAGED, use correct ibrav instead

     Subspace diagonalization in iterative solution of the eigenvalue problem:
     one sub-group per band group will be used
     scalapack distributed-memory algorithm (size of sub-group:  2*  2 procs)

 
     Parallelization info
     --------------------
     sticks:   dense  smooth     PW     G-vecs:    dense   smooth      PW
     Min         162      78     27                38318    13442    2387
     Max         163      79     28                38371    13505    2400
     Sum         649     313    109               153341    53853    9571
 
     Using Slab Decomposition
 


     bravais-lattice index     =            0
     lattice parameter (alat)  =       6.2806  a.u.
     unit-cell volume          =    2441.8171 (a.u.)^3
     number of atoms/cell      =           12
     number of atomic types    =            3
     number of electrons       =       104.00
     number of Kohn-Sham states=           64
     kinetic-energy cutoff     =      30.0000  Ry
     charge density cutoff     =     240.0000  Ry
     scf convergence threshold =      1.0E-06
     mixing beta               =       0.7000
     number of iterations used =            8  plain     mixing
     Exchange-correlation= SLA  PW   PBE  PBE
                           (   1   4   3   4   0   0   0)

     celldm(1)=   6.280591  celldm(2)=   0.000000  celldm(3)=   0.000000
     celldm(4)=   0.000000  celldm(5)=   0.000000  celldm(6)=   0.000000

     crystal axes: (cart. coord. in units of alat)
               a(1) = (   1.000000   0.000000   0.000000 )  
               a(2) = (  -0.500000   0.866025   0.000000 )  
               a(3) = (   0.000000   0.000000  11.381012 )  

     reciprocal axes: (cart. coord. in units 2 pi/alat)
               b(1) = (  1.000000  0.577350  0.000000 )  
               b(2) = (  0.000000  1.154700  0.000000 )  
               b(3) = (  0.000000  0.000000  0.087866 )  


     PseudoPot. # 1 for Mo read from file:
     /home/pragov/projects/rrg-bengioy-ad/pragov/crystal_structure_design/SSSP/Mo_ONCV_PBE-1.0.oncvpsp.upf
     MD5 check sum: 1b5d28e075c9ccadda658a603575cd1f
     Pseudo is Norm-conserving, Zval = 14.0
     Generated using ONCVPSP code by D. R. Hamann
     Using radial grid of 1526 points,  6 beta functions with: 
                l(1) =   0
                l(2) =   0
                l(3) =   1
                l(4) =   1
                l(5) =   2
                l(6) =   2

     PseudoPot. # 2 for W  read from file:
     /home/pragov/projects/rrg-bengioy-ad/pragov/crystal_structure_design/SSSP/W_pbe_v1.2.uspp.F.UPF
     MD5 check sum: 9c083fa34c2a2ea0f02f1f893e16e1c8
     Pseudo is Ultrasoft + core correction, Zval = 14.0
     Generated by new atomic code, or converted to UPF format
     Using radial grid of  923 points,  8 beta functions with: 
                l(1) =   0
                l(2) =   0
                l(3) =   0
                l(4) =   1
                l(5) =   1
                l(6) =   2
                l(7) =   2
                l(8) =   3
     Q(r) pseudized with  6 coefficients,  rinner =    1.350   1.350   1.350
                                                       1.350   1.350   1.350
                                                       1.350

     PseudoPot. # 3 for Se read from file:
     /home/pragov/projects/rrg-bengioy-ad/pragov/crystal_structure_design/SSSP/Se_pbe_v1.uspp.F.UPF
     MD5 check sum: 1b3568f3a8ae88f9a2a0ad0698632c85
     Pseudo is Ultrasoft + core correction, Zval =  6.0
     Generated by new atomic code, or converted to UPF format
     Using radial grid of  877 points,  6 beta functions with: 
                l(1) =   0
                l(2) =   0
                l(3) =   1
                l(4) =   1
                l(5) =   2
                l(6) =   2
     Q(r) pseudized with  8 coefficients,  rinner =    1.300   1.300   1.300
                                                       1.300   1.300

     atomic species   valence    mass     pseudopotential
        Mo            14.00    95.95000     Mo( 1.00)
        W             14.00   183.84000     W ( 1.00)
        Se             6.00    78.97100     Se( 1.00)

      6 Sym. Ops. (no inversion) found


                                    s                        frac. trans.

      isym =  1     identity                                     

 cryst.   s( 1) = (     1          0          0      )
                  (     0          1          0      )
                  (     0          0          1      )

 cart.    s( 1) = (  1.0000000  0.0000000  0.0000000 )
                  (  0.0000000  1.0000000  0.0000000 )
                  (  0.0000000  0.0000000  1.0000000 )


      isym =  2     120 deg rotation - cryst. axis [0,0,1]       

 cryst.   s( 2) = (     0          1          0      )
                  (    -1         -1          0      )
                  (     0          0          1      )

 cart.    s( 2) = ( -0.4999999 -0.8660254  0.0000000 )
                  (  0.8660254 -0.5000001  0.0000000 )
                  (  0.0000000  0.0000000  1.0000000 )


      isym =  3     120 deg rotation - cryst. axis [0,0,-1]      

 cryst.   s( 3) = (    -1         -1          0      )
                  (     1          0          0      )
                  (     0          0          1      )

 cart.    s( 3) = ( -0.5000001  0.8660254  0.0000000 )
                  ( -0.8660254 -0.4999999  0.0000000 )
                  (  0.0000000  0.0000000  1.0000000 )


      isym =  4     inv. 180 deg rotation - cart. axis [1,0,0]   

 cryst.   s( 4) = (    -1          0          0      )
                  (     1          1          0      )
                  (     0          0          1      )

 cart.    s( 4) = ( -1.0000000  0.0000002  0.0000000 )
                  (  0.0000000  1.0000000  0.0000000 )
                  (  0.0000000  0.0000000  1.0000000 )


      isym =  5     inv. 180 deg rotation - cryst. axis [0,1,0]  

 cryst.   s( 5) = (     1          1          0      )
                  (     0         -1          0      )
                  (     0          0          1      )

 cart.    s( 5) = (  0.5000001  0.8660253  0.0000000 )
                  (  0.8660254 -0.5000001  0.0000000 )
                  (  0.0000000  0.0000000  1.0000000 )


      isym =  6     inv. 180 deg rotation - cryst. axis [1,1,0]  

 cryst.   s( 6) = (     0         -1          0      )
                  (    -1          0          0      )
                  (     0          0          1      )

 cart.    s( 6) = (  0.4999999 -0.8660254  0.0000000 )
                  ( -0.8660254 -0.4999999  0.0000000 )
                  (  0.0000000  0.0000000  1.0000000 )


   Cartesian axes

     site n.     atom                  positions (alat units)
         1           Mo  tau(   1) = (   0.0000000   0.0000000   1.0689160  )
         2           Mo  tau(   2) = (  -0.0000005   0.5773506   3.2071692  )
         3           Mo  tau(   3) = (  -0.0000005   0.5773506   7.4834822  )
         4           W   tau(   4) = (   0.0000000   0.0000000   5.3452062  )
         5           Se  tau(   5) = (   0.0000000   0.0000000   3.7114960  )
         6           Se  tau(   6) = (   0.0000000   0.0000000   7.9876610  )
         7           Se  tau(   7) = (  -0.0000005   0.5773506   0.5647600  )
         8           Se  tau(   8) = (  -0.0000005   0.5773506   4.8385008  )
         9           Se  tau(   9) = (  -0.0000005   0.5773506   1.5731973  )
        10           Se  tau(  10) = (  -0.0000005   0.5773506   5.8518547  )
        11           Se  tau(  11) = (   0.0000000   0.0000000   2.7027855  )
        12           Se  tau(  12) = (   0.0000000   0.0000000   6.9790985  )

   Crystallographic axes

     site n.     atom                  positions (cryst. coord.)
         1           Mo  tau(   1) = (  0.0000000  0.0000000  0.0939210  )
         2           Mo  tau(   2) = (  0.3333330  0.6666670  0.2818000  )
         3           Mo  tau(   3) = (  0.3333330  0.6666670  0.6575410  )
         4           W   tau(   4) = (  0.0000000  0.0000000  0.4696600  )
         5           Se  tau(   5) = (  0.0000000  0.0000000  0.3261130  )
         6           Se  tau(   6) = (  0.0000000  0.0000000  0.7018410  )
         7           Se  tau(   7) = (  0.3333330  0.6666670  0.0496230  )
         8           Se  tau(   8) = (  0.3333330  0.6666670  0.4251380  )
         9           Se  tau(   9) = (  0.3333330  0.6666670  0.1382300  )
        10           Se  tau(  10) = (  0.3333330  0.6666670  0.5141770  )
        11           Se  tau(  11) = (  0.0000000  0.0000000  0.2374820  )
        12           Se  tau(  12) = (  0.0000000  0.0000000  0.6132230  )

     number of k points=     7
                       cart. coord. in units 2pi/alat
        k(    1) = (   0.0000000   0.0000000   0.0000000), wk =   0.0740741
        k(    2) = (   0.0000000   0.0000000   0.0292885), wk =   0.1481481
        k(    3) = (   0.0000000   0.3849002   0.0000000), wk =   0.4444444
        k(    4) = (   0.0000000   0.3849002   0.0292885), wk =   0.4444444
        k(    5) = (   0.3333333   0.5773502   0.0000000), wk =   0.1481481
        k(    6) = (   0.3333333   0.5773502   0.0292885), wk =   0.2962963
        k(    7) = (   0.0000000  -0.3849002   0.0292885), wk =   0.4444444

                       cryst. coord.
        k(    1) = (   0.0000000   0.0000000   0.0000000), wk =   0.0740741
        k(    2) = (   0.0000000   0.0000000   0.3333333), wk =   0.1481481
        k(    3) = (   0.0000000   0.3333333   0.0000000), wk =   0.4444444
        k(    4) = (   0.0000000   0.3333333   0.3333333), wk =   0.4444444
        k(    5) = (   0.3333333   0.3333333   0.0000000), wk =   0.1481481
        k(    6) = (   0.3333333   0.3333333   0.3333333), wk =   0.2962963
        k(    7) = (   0.0000000  -0.3333333   0.3333333), wk =   0.4444444

     Dense  grid:   153341 G-vectors     FFT dimensions: (  32,  32, 360)

     Smooth grid:    53853 G-vectors     FFT dimensions: (  24,  24, 250)

     Dynamical RAM for                 wfc:       1.65 MB

     Dynamical RAM for     wfc (w. buffer):       8.27 MB

     Dynamical RAM for           str. fact:       1.76 MB

     Dynamical RAM for           local pot:       0.00 MB

     Dynamical RAM for          nlocal pot:       5.79 MB

     Dynamical RAM for                qrad:       8.96 MB

     Dynamical RAM for          rho,v,vnew:       3.87 MB

     Dynamical RAM for               rhoin:       1.29 MB

     Dynamical RAM for            rho*nmix:       9.37 MB

     Dynamical RAM for           G-vectors:       2.30 MB

     Dynamical RAM for          h,s,v(r/c):       0.19 MB

     Dynamical RAM for          <psi|beta>:       0.22 MB

     Dynamical RAM for                 psi:       3.31 MB

     Dynamical RAM for                hpsi:       3.31 MB

     Dynamical RAM for                spsi:       3.31 MB

     Dynamical RAM for      wfcinit/wfcrot:       4.01 MB

     Dynamical RAM for           addusdens:     113.29 MB

     Estimated static dynamical RAM per process >      38.09 MB

     Estimated max dynamical RAM per process >     160.74 MB

     Estimated total dynamical RAM >       1.22 GB

     Initial potential from superposition of free atoms

     starting charge     103.8961, renormalised to     104.0000

     negative rho (up, down):  6.173E-02 0.000E+00
     Starting wfcs are   75 randomized atomic wfcs

     total cpu time spent up to now is        2.5 secs

     Self-consistent Calculation

     iteration #  1     ecut=    30.00 Ry     beta= 0.70
     Davidson diagonalization with overlap

---- Real-time Memory Report at c_bands before calling an iterative solver
           268 MiB given to the printing process from OS
             0 MiB allocation reported by mallinfo(arena+hblkhd)
        141071 MiB available memory on the node where the printing process lives
------------------
     ethr =  1.00E-02,  avg # of iterations =  2.3

     negative rho (up, down):  6.662E-02 0.000E+00

     total cpu time spent up to now is        3.6 secs

     total energy              =    -754.49689072 Ry
     estimated scf accuracy    <     183.31037215 Ry

     iteration #  2     ecut=    30.00 Ry     beta= 0.70
     Davidson diagonalization with overlap

---- Real-time Memory Report at c_bands before calling an iterative solver
           345 MiB given to the printing process from OS
             0 MiB allocation reported by mallinfo(arena+hblkhd)
        140826 MiB available memory on the node where the printing process lives
------------------
     ethr =  1.00E-02,  avg # of iterations = 30.4

     negative rho (up, down):  6.373E-02 0.000E+00

     total cpu time spent up to now is        9.9 secs

     total energy              =    -802.02498484 Ry
     estimated scf accuracy    <   24185.43734710 Ry

     iteration #  3     ecut=    30.00 Ry     beta= 0.70
     Davidson diagonalization with overlap

---- Real-time Memory Report at c_bands before calling an iterative solver
           365 MiB given to the printing process from OS
             0 MiB allocation reported by mallinfo(arena+hblkhd)
        140679 MiB available memory on the node where the printing process lives
------------------
     c_bands:  1 eigenvalues not converged
     ethr =  1.00E-02,  avg # of iterations = 19.6

     negative rho (up, down):  6.157E-02 0.000E+00

     total cpu time spent up to now is       14.3 secs

     total energy              =    -865.89087077 Ry
     estimated scf accuracy    <    5554.34930165 Ry

     iteration #  4     ecut=    30.00 Ry     beta= 0.70
     Davidson diagonalization with overlap

---- Real-time Memory Report at c_bands before calling an iterative solver
           366 MiB given to the printing process from OS
             0 MiB allocation reported by mallinfo(arena+hblkhd)
        140671 MiB available memory on the node where the printing process lives
------------------
     ethr =  1.00E-02,  avg # of iterations = 16.4

     negative rho (up, down):  5.962E-02 0.000E+00

     total cpu time spent up to now is       17.2 secs

     total energy              =    -780.89637609 Ry
     estimated scf accuracy    <   15060.10616955 Ry

     iteration #  5     ecut=    30.00 Ry     beta= 0.70
     Davidson diagonalization with overlap

---- Real-time Memory Report at c_bands before calling an iterative solver
           367 MiB given to the printing process from OS
             0 MiB allocation reported by mallinfo(arena+hblkhd)
        140669 MiB available memory on the node where the printing process lives
------------------
     ethr =  1.00E-02,  avg # of iterations = 13.0

     negative rho (up, down):  5.803E-02 0.000E+00

     total cpu time spent up to now is       19.7 secs

     total energy              =    -921.14620507 Ry
     estimated scf accuracy    <    2828.88398432 Ry

     iteration #  6     ecut=    30.00 Ry     beta= 0.70
     Davidson diagonalization with overlap

---- Real-time Memory Report at c_bands before calling an iterative solver
           367 MiB given to the printing process from OS
             0 MiB allocation reported by mallinfo(arena+hblkhd)
        140669 MiB available memory on the node where the printing process lives
------------------
     ethr =  1.00E-02,  avg # of iterations =  5.4

     negative rho (up, down):  5.998E-02 0.000E+00

     total cpu time spent up to now is       21.0 secs

     total energy              =    -925.76478842 Ry
     estimated scf accuracy    <    1675.90109627 Ry

     iteration #  7     ecut=    30.00 Ry     beta= 0.70
     Davidson diagonalization with overlap

---- Real-time Memory Report at c_bands before calling an iterative solver
           367 MiB given to the printing process from OS
             0 MiB allocation reported by mallinfo(arena+hblkhd)
        140664 MiB available memory on the node where the printing process lives
------------------
     ethr =  1.00E-02,  avg # of iterations =  4.1

     negative rho (up, down):  6.284E-02 0.000E+00

     total cpu time spent up to now is       22.0 secs

     total energy              =    -920.38296514 Ry
     estimated scf accuracy    <     974.94857645 Ry

     iteration #  8     ecut=    30.00 Ry     beta= 0.70
     Davidson diagonalization with overlap

---- Real-time Memory Report at c_bands before calling an iterative solver
           372 MiB given to the printing process from OS
             0 MiB allocation reported by mallinfo(arena+hblkhd)
        140650 MiB available memory on the node where the printing process lives
------------------
     ethr =  1.00E-02,  avg # of iterations =  5.4

     negative rho (up, down):  6.222E-02 0.000E+00

     total cpu time spent up to now is       23.1 secs

     total energy              =    -921.74497111 Ry
     estimated scf accuracy    <     303.87163371 Ry

     iteration #  9     ecut=    30.00 Ry     beta= 0.70
     Davidson diagonalization with overlap

---- Real-time Memory Report at c_bands before calling an iterative solver
           372 MiB given to the printing process from OS
             0 MiB allocation reported by mallinfo(arena+hblkhd)
        140648 MiB available memory on the node where the printing process lives
------------------
     ethr =  1.00E-02,  avg # of iterations =  1.3

     negative rho (up, down):  6.293E-02 0.000E+00

     total cpu time spent up to now is       24.0 secs

     total energy              =    -918.88051775 Ry
     estimated scf accuracy    <     311.60323955 Ry

     iteration # 10     ecut=    30.00 Ry     beta= 0.70
     Davidson diagonalization with overlap

---- Real-time Memory Report at c_bands before calling an iterative solver
           373 MiB given to the printing process from OS
             0 MiB allocation reported by mallinfo(arena+hblkhd)
        140649 MiB available memory on the node where the printing process lives
------------------
     ethr =  1.00E-02,  avg # of iterations =  3.0

     negative rho (up, down):  2.537E-01 0.000E+00

     total cpu time spent up to now is       24.9 secs

     total energy              =    -913.33555114 Ry
     estimated scf accuracy    <      51.35243891 Ry

     iteration # 11     ecut=    30.00 Ry     beta= 0.70
     Davidson diagonalization with overlap

---- Real-time Memory Report at c_bands before calling an iterative solver
           374 MiB given to the printing process from OS
             0 MiB allocation reported by mallinfo(arena+hblkhd)
        140650 MiB available memory on the node where the printing process lives
------------------
     ethr =  1.00E-02,  avg # of iterations =  9.0

     negative rho (up, down):  7.417E-02 0.000E+00

     total cpu time spent up to now is       26.5 secs

     total energy              =    -908.49112765 Ry
     estimated scf accuracy    <    1449.75286875 Ry

     iteration # 12     ecut=    30.00 Ry     beta= 0.70
     Davidson diagonalization with overlap

---- Real-time Memory Report at c_bands before calling an iterative solver
           375 MiB given to the printing process from OS
             0 MiB allocation reported by mallinfo(arena+hblkhd)
        140640 MiB available memory on the node where the printing process lives
------------------
     ethr =  1.00E-02,  avg # of iterations =  5.4

     negative rho (up, down):  1.059E-01 0.000E+00

     total cpu time spent up to now is       27.6 secs

     total energy              =    -918.42972302 Ry
     estimated scf accuracy    <      95.33798099 Ry

     iteration # 13     ecut=    30.00 Ry     beta= 0.70
     Davidson diagonalization with overlap

---- Real-time Memory Report at c_bands before calling an iterative solver
           375 MiB given to the printing process from OS
             0 MiB allocation reported by mallinfo(arena+hblkhd)
        140638 MiB available memory on the node where the printing process lives
------------------
     ethr =  1.00E-02,  avg # of iterations =  3.7

     negative rho (up, down):  6.204E-02 0.000E+00

     total cpu time spent up to now is       28.6 secs

     total energy              =    -918.50049312 Ry
     estimated scf accuracy    <      80.75762381 Ry

     iteration # 14     ecut=    30.00 Ry     beta= 0.70
     Davidson diagonalization with overlap

---- Real-time Memory Report at c_bands before calling an iterative solver
           375 MiB given to the printing process from OS
             0 MiB allocation reported by mallinfo(arena+hblkhd)
        140640 MiB available memory on the node where the printing process lives
------------------
     ethr =  1.00E-02,  avg # of iterations =  3.0

     negative rho (up, down):  6.226E-02 0.000E+00

     total cpu time spent up to now is       29.5 secs

     total energy              =    -919.30089804 Ry
     estimated scf accuracy    <      28.25092033 Ry

     iteration # 15     ecut=    30.00 Ry     beta= 0.70
     Davidson diagonalization with overlap

---- Real-time Memory Report at c_bands before calling an iterative solver
           375 MiB given to the printing process from OS
             0 MiB allocation reported by mallinfo(arena+hblkhd)
        140624 MiB available memory on the node where the printing process lives
------------------
     ethr =  1.00E-02,  avg # of iterations =  1.1

     negative rho (up, down):  6.206E-02 0.000E+00

     total cpu time spent up to now is       30.4 secs

     total energy              =    -919.28715630 Ry
     estimated scf accuracy    <      22.85918216 Ry

     iteration # 16     ecut=    30.00 Ry     beta= 0.70
     Davidson diagonalization with overlap

---- Real-time Memory Report at c_bands before calling an iterative solver
           375 MiB given to the printing process from OS
             0 MiB allocation reported by mallinfo(arena+hblkhd)
        140625 MiB available memory on the node where the printing process lives
------------------
     ethr =  1.00E-02,  avg # of iterations =  2.3

     negative rho (up, down):  6.208E-02 0.000E+00

     total cpu time spent up to now is       31.2 secs

     total energy              =    -919.42691182 Ry
     estimated scf accuracy    <      12.70736605 Ry

     iteration # 17     ecut=    30.00 Ry     beta= 0.70
     Davidson diagonalization with overlap

---- Real-time Memory Report at c_bands before calling an iterative solver
           375 MiB given to the printing process from OS
             0 MiB allocation reported by mallinfo(arena+hblkhd)
        140627 MiB available memory on the node where the printing process lives
------------------
     ethr =  1.00E-02,  avg # of iterations =  2.1

     negative rho (up, down):  6.169E-02 0.000E+00

     total cpu time spent up to now is       32.1 secs

     total energy              =    -919.48426525 Ry
     estimated scf accuracy    <       9.10513714 Ry

     iteration # 18     ecut=    30.00 Ry     beta= 0.70
     Davidson diagonalization with overlap

---- Real-time Memory Report at c_bands before calling an iterative solver
           375 MiB given to the printing process from OS
             0 MiB allocation reported by mallinfo(arena+hblkhd)
        140627 MiB available memory on the node where the printing process lives
------------------
     ethr =  8.75E-03,  avg # of iterations =  4.6

     negative rho (up, down):  6.138E-02 0.000E+00

     total cpu time spent up to now is       33.1 secs

     total energy              =    -919.23274702 Ry
     estimated scf accuracy    <       2.38973951 Ry

     iteration # 19     ecut=    30.00 Ry     beta= 0.70
     Davidson diagonalization with overlap

---- Real-time Memory Report at c_bands before calling an iterative solver
           377 MiB given to the printing process from OS
             0 MiB allocation reported by mallinfo(arena+hblkhd)
        140623 MiB available memory on the node where the printing process lives
------------------
     ethr =  2.30E-03,  avg # of iterations =  6.4

     negative rho (up, down):  6.165E-02 0.000E+00

     total cpu time spent up to now is       34.4 secs

     total energy              =    -914.59833855 Ry
     estimated scf accuracy    <     412.83361480 Ry

     iteration # 20     ecut=    30.00 Ry     beta= 0.70
     Davidson diagonalization with overlap

---- Real-time Memory Report at c_bands before calling an iterative solver
           377 MiB given to the printing process from OS
             0 MiB allocation reported by mallinfo(arena+hblkhd)
        140626 MiB available memory on the node where the printing process lives
------------------
     ethr =  2.30E-03,  avg # of iterations =  5.6

     negative rho (up, down):  6.161E-02 0.000E+00

     total cpu time spent up to now is       35.6 secs

     total energy              =    -919.75910726 Ry
     estimated scf accuracy    <       2.88582165 Ry

     iteration # 21     ecut=    30.00 Ry     beta= 0.70
     Davidson diagonalization with overlap

---- Real-time Memory Report at c_bands before calling an iterative solver
           377 MiB given to the printing process from OS
             0 MiB allocation reported by mallinfo(arena+hblkhd)
        140625 MiB available memory on the node where the printing process lives
------------------
     ethr =  2.30E-03,  avg # of iterations =  2.0

     negative rho (up, down):  6.144E-02 0.000E+00

     total cpu time spent up to now is       36.5 secs

     total energy              =    -919.94366200 Ry
     estimated scf accuracy    <       0.11888427 Ry

     iteration # 22     ecut=    30.00 Ry     beta= 0.70
     Davidson diagonalization with overlap

---- Real-time Memory Report at c_bands before calling an iterative solver
           377 MiB given to the printing process from OS
             0 MiB allocation reported by mallinfo(arena+hblkhd)
        140625 MiB available memory on the node where the printing process lives
------------------
     ethr =  1.14E-04,  avg # of iterations =  6.4

     negative rho (up, down):  6.154E-02 0.000E+00

     total cpu time spent up to now is       37.6 secs

     total energy              =    -919.93982310 Ry
     estimated scf accuracy    <       1.33001173 Ry

     iteration # 23     ecut=    30.00 Ry     beta= 0.70
     Davidson diagonalization with overlap

---- Real-time Memory Report at c_bands before calling an iterative solver
           377 MiB given to the printing process from OS
             0 MiB allocation reported by mallinfo(arena+hblkhd)
        140628 MiB available memory on the node where the printing process lives
------------------
     ethr =  1.14E-04,  avg # of iterations =  2.0

     negative rho (up, down):  6.147E-02 0.000E+00

     total cpu time spent up to now is       38.5 secs

     total energy              =    -919.95887508 Ry
     estimated scf accuracy    <       0.01920609 Ry

     iteration # 24     ecut=    30.00 Ry     beta= 0.70
     Davidson diagonalization with overlap

---- Real-time Memory Report at c_bands before calling an iterative solver
           377 MiB given to the printing process from OS
             0 MiB allocation reported by mallinfo(arena+hblkhd)
        140628 MiB available memory on the node where the printing process lives
------------------
     ethr =  1.85E-05,  avg # of iterations =  4.3

     negative rho (up, down):  6.149E-02 0.000E+00

     total cpu time spent up to now is       39.5 secs

     total energy              =    -919.95916133 Ry
     estimated scf accuracy    <       0.01976365 Ry

     iteration # 25     ecut=    30.00 Ry     beta= 0.70
     Davidson diagonalization with overlap

---- Real-time Memory Report at c_bands before calling an iterative solver
           377 MiB given to the printing process from OS
             0 MiB allocation reported by mallinfo(arena+hblkhd)
        140626 MiB available memory on the node where the printing process lives
------------------
     ethr =  1.85E-05,  avg # of iterations =  2.3

     negative rho (up, down):  6.150E-02 0.000E+00

     total cpu time spent up to now is       40.4 secs

     total energy              =    -919.95990322 Ry
     estimated scf accuracy    <       0.00785174 Ry

     iteration # 26     ecut=    30.00 Ry     beta= 0.70
     Davidson diagonalization with overlap

---- Real-time Memory Report at c_bands before calling an iterative solver
           377 MiB given to the printing process from OS
             0 MiB allocation reported by mallinfo(arena+hblkhd)
        140630 MiB available memory on the node where the printing process lives
------------------
     ethr =  7.55E-06,  avg # of iterations =  3.9

     negative rho (up, down):  6.163E-02 0.000E+00

     total cpu time spent up to now is       41.3 secs

     total energy              =    -919.95911069 Ry
     estimated scf accuracy    <       0.00483286 Ry

     iteration # 27     ecut=    30.00 Ry     beta= 0.70
     Davidson diagonalization with overlap

---- Real-time Memory Report at c_bands before calling an iterative solver
           377 MiB given to the printing process from OS
             0 MiB allocation reported by mallinfo(arena+hblkhd)
        140620 MiB available memory on the node where the printing process lives
------------------
     ethr =  4.65E-06,  avg # of iterations =  5.1

     negative rho (up, down):  6.156E-02 0.000E+00

     total cpu time spent up to now is       42.4 secs

     total energy              =    -919.95902476 Ry
     estimated scf accuracy    <       0.00450866 Ry

     iteration # 28     ecut=    30.00 Ry     beta= 0.70
     Davidson diagonalization with overlap

---- Real-time Memory Report at c_bands before calling an iterative solver
           377 MiB given to the printing process from OS
             0 MiB allocation reported by mallinfo(arena+hblkhd)
        140618 MiB available memory on the node where the printing process lives
------------------
     ethr =  4.34E-06,  avg # of iterations =  4.1

     negative rho (up, down):  6.156E-02 0.000E+00

     total cpu time spent up to now is       43.4 secs

     total energy              =    -919.95860937 Ry
     estimated scf accuracy    <       0.00971406 Ry

     iteration # 29     ecut=    30.00 Ry     beta= 0.70
     Davidson diagonalization with overlap

---- Real-time Memory Report at c_bands before calling an iterative solver
           378 MiB given to the printing process from OS
             0 MiB allocation reported by mallinfo(arena+hblkhd)
        140618 MiB available memory on the node where the printing process lives
------------------
     ethr =  4.34E-06,  avg # of iterations =  3.7

     negative rho (up, down):  6.155E-02 0.000E+00

     total cpu time spent up to now is       44.4 secs

     total energy              =    -919.95869302 Ry
     estimated scf accuracy    <       0.00318229 Ry

     iteration # 30     ecut=    30.00 Ry     beta= 0.70
     Davidson diagonalization with overlap

---- Real-time Memory Report at c_bands before calling an iterative solver
           378 MiB given to the printing process from OS
             0 MiB allocation reported by mallinfo(arena+hblkhd)
        140617 MiB available memory on the node where the printing process lives
------------------
     ethr =  3.06E-06,  avg # of iterations =  9.9

     negative rho (up, down):  6.156E-02 0.000E+00

     total cpu time spent up to now is       45.8 secs

     total energy              =    -919.95798890 Ry
     estimated scf accuracy    <       0.01220250 Ry

     iteration # 31     ecut=    30.00 Ry     beta= 0.70
     Davidson diagonalization with overlap

---- Real-time Memory Report at c_bands before calling an iterative solver
           378 MiB given to the printing process from OS
             0 MiB allocation reported by mallinfo(arena+hblkhd)
        140615 MiB available memory on the node where the printing process lives
------------------
     ethr =  3.06E-06,  avg # of iterations =  8.0

     negative rho (up, down):  6.156E-02 0.000E+00

     total cpu time spent up to now is       47.0 secs

     total energy              =    -919.95780221 Ry
     estimated scf accuracy    <       0.00562411 Ry

     iteration # 32     ecut=    30.00 Ry     beta= 0.70
     Davidson diagonalization with overlap

---- Real-time Memory Report at c_bands before calling an iterative solver
           379 MiB given to the printing process from OS
             0 MiB allocation reported by mallinfo(arena+hblkhd)
        140614 MiB available memory on the node where the printing process lives
------------------
     c_bands:  1 eigenvalues not converged
     c_bands:  1 eigenvalues not converged
     ethr =  3.06E-06,  avg # of iterations = 14.4

     negative rho (up, down):  6.157E-02 0.000E+00

     total cpu time spent up to now is       48.5 secs

     total energy              =    -919.95736950 Ry
     estimated scf accuracy    <       0.01189055 Ry

     iteration # 33     ecut=    30.00 Ry     beta= 0.70
     Davidson diagonalization with overlap

---- Real-time Memory Report at c_bands before calling an iterative solver
           379 MiB given to the printing process from OS
             0 MiB allocation reported by mallinfo(arena+hblkhd)
        140600 MiB available memory on the node where the printing process lives
------------------
     ethr =  3.06E-06,  avg # of iterations =  5.1

     negative rho (up, down):  6.155E-02 0.000E+00

     total cpu time spent up to now is       50.0 secs

     total energy              =    -919.95850612 Ry
     estimated scf accuracy    <       0.00193738 Ry

     iteration # 34     ecut=    30.00 Ry     beta= 0.70
     Davidson diagonalization with overlap

---- Real-time Memory Report at c_bands before calling an iterative solver
           379 MiB given to the printing process from OS
             0 MiB allocation reported by mallinfo(arena+hblkhd)
        140597 MiB available memory on the node where the printing process lives
------------------
     ethr =  1.86E-06,  avg # of iterations =  2.7

     negative rho (up, down):  6.156E-02 0.000E+00

     total cpu time spent up to now is       51.0 secs

     total energy              =    -919.95874269 Ry
     estimated scf accuracy    <       0.00069273 Ry

     iteration # 35     ecut=    30.00 Ry     beta= 0.70
     Davidson diagonalization with overlap

---- Real-time Memory Report at c_bands before calling an iterative solver
           379 MiB given to the printing process from OS
             0 MiB allocation reported by mallinfo(arena+hblkhd)
        140599 MiB available memory on the node where the printing process lives
------------------
     ethr =  6.66E-07,  avg # of iterations =  2.6

     negative rho (up, down):  6.155E-02 0.000E+00

     total cpu time spent up to now is       52.0 secs

     total energy              =    -919.95881630 Ry
     estimated scf accuracy    <       0.00019998 Ry

     iteration # 36     ecut=    30.00 Ry     beta= 0.70
     Davidson diagonalization with overlap

---- Real-time Memory Report at c_bands before calling an iterative solver
           379 MiB given to the printing process from OS
             0 MiB allocation reported by mallinfo(arena+hblkhd)
        140594 MiB available memory on the node where the printing process lives
------------------
     ethr =  1.92E-07,  avg # of iterations =  2.0

     negative rho (up, down):  6.155E-02 0.000E+00

     total cpu time spent up to now is       53.3 secs

     total energy              =    -919.95884075 Ry
     estimated scf accuracy    <       0.00001515 Ry

     iteration # 37     ecut=    30.00 Ry     beta= 0.70
     Davidson diagonalization with overlap

---- Real-time Memory Report at c_bands before calling an iterative solver
           379 MiB given to the printing process from OS
             0 MiB allocation reported by mallinfo(arena+hblkhd)
        140586 MiB available memory on the node where the printing process lives
------------------
     ethr =  1.46E-08,  avg # of iterations =  4.3

     negative rho (up, down):  6.155E-02 0.000E+00

     total cpu time spent up to now is       54.9 secs

     total energy              =    -919.95884208 Ry
     estimated scf accuracy    <       0.00002644 Ry

     iteration # 38     ecut=    30.00 Ry     beta= 0.70
     Davidson diagonalization with overlap

---- Real-time Memory Report at c_bands before calling an iterative solver
           379 MiB given to the printing process from OS
             0 MiB allocation reported by mallinfo(arena+hblkhd)
        140594 MiB available memory on the node where the printing process lives
------------------
     ethr =  1.46E-08,  avg # of iterations =  3.3

     negative rho (up, down):  6.155E-02 0.000E+00

     total cpu time spent up to now is       55.8 secs

     total energy              =    -919.95884505 Ry
     estimated scf accuracy    <       0.00000141 Ry

     iteration # 39     ecut=    30.00 Ry     beta= 0.70
     Davidson diagonalization with overlap

---- Real-time Memory Report at c_bands before calling an iterative solver
           379 MiB given to the printing process from OS
             0 MiB allocation reported by mallinfo(arena+hblkhd)
        140595 MiB available memory on the node where the printing process lives
------------------
     ethr =  1.35E-09,  avg # of iterations =  4.7

     negative rho (up, down):  6.155E-02 0.000E+00

     total cpu time spent up to now is       56.8 secs

     total energy              =    -919.95884510 Ry
     estimated scf accuracy    <       0.00000290 Ry

     iteration # 40     ecut=    30.00 Ry     beta= 0.70
     Davidson diagonalization with overlap

---- Real-time Memory Report at c_bands before calling an iterative solver
           379 MiB given to the printing process from OS
             0 MiB allocation reported by mallinfo(arena+hblkhd)
        140596 MiB available memory on the node where the printing process lives
------------------
     ethr =  1.35E-09,  avg # of iterations =  3.0

     negative rho (up, down):  6.155E-02 0.000E+00

     total cpu time spent up to now is       57.8 secs

     End of self-consistent calculation

          k = 0.0000 0.0000 0.0000 (  6893 PWs)   bands (ev):

   -68.6047 -55.6071 -55.6046 -55.6043 -32.8943 -32.6978 -32.6978 -29.7992
   -29.7963 -29.7955 -29.5521 -29.5520 -29.5501 -29.5501 -29.5491 -29.5491
    -9.3174  -9.0327  -9.0066  -8.9897  -8.1419  -8.0751  -8.0346  -8.0096
    -0.7981  -0.3142  -0.1643  -0.0523   2.7265   3.0551   3.1186   3.1186
     3.1194   3.1194   3.1222   3.1222   3.1236   3.1236   3.4575   3.8269
     4.0348   4.0348   4.0404   4.0404   4.0413   4.0414   4.1689   4.1689
     4.7272   4.9177   5.1228   5.3104   7.9583   7.9583   7.9667   7.9667
     7.9683   7.9684   8.1764   8.1764   8.1924   8.1925   8.2042   8.2042

     occupation numbers 
     1.0000   1.0000   1.0000   1.0000   1.0000   1.0000   1.0000   1.0000
     1.0000   1.0000   1.0000   1.0000   1.0000   1.0000   1.0000   1.0000
     1.0000   1.0000   1.0000   1.0000   1.0000   1.0000   1.0000   1.0000
     1.0000   1.0000   1.0000   1.0000   1.0000   1.0000   1.0000   1.0000
     1.0000   1.0000   1.0000   1.0000   1.0000   1.0000   1.0000   1.0000
     1.0000   1.0000   1.0000   1.0000   1.0000   1.0000   1.0000   1.0000
     1.0000   1.0000   1.0000   1.0000   0.0000   0.0000   0.0000   0.0000
     0.0000   0.0000   0.0000   0.0000   0.0000   0.0000   0.0000   0.0000

          k = 0.0000 0.0000 0.0293 (  6910 PWs)   bands (ev):

   -68.6047 -55.6071 -55.6047 -55.6044 -32.8943 -32.6978 -32.6978 -29.7992
   -29.7963 -29.7955 -29.5521 -29.5521 -29.5502 -29.5502 -29.5491 -29.5491
    -9.3174  -9.0327  -9.0066  -8.9897  -8.1419  -8.0751  -8.0346  -8.0096
    -0.7981  -0.3142  -0.1642  -0.0524   2.7265   3.0550   3.1185   3.1185
     3.1194   3.1194   3.1222   3.1222   3.1235   3.1235   3.4575   3.8269
     4.0348   4.0348   4.0404   4.0404   4.0412   4.0413   4.1689   4.1689
     4.7272   4.9176   5.1227   5.3104   7.9583   7.9583   7.9667   7.9667
     7.9683   7.9683   8.1763   8.1763   8.1924   8.1924   8.2042   8.2042

     occupation numbers 
     1.0000   1.0000   1.0000   1.0000   1.0000   1.0000   1.0000   1.0000
     1.0000   1.0000   1.0000   1.0000   1.0000   1.0000   1.0000   1.0000
     1.0000   1.0000   1.0000   1.0000   1.0000   1.0000   1.0000   1.0000
     1.0000   1.0000   1.0000   1.0000   1.0000   1.0000   1.0000   1.0000
     1.0000   1.0000   1.0000   1.0000   1.0000   1.0000   1.0000   1.0000
     1.0000   1.0000   1.0000   1.0000   1.0000   1.0000   1.0000   1.0000
     1.0000   1.0000   1.0000   1.0000   0.0000   0.0000   0.0000   0.0000
     0.0000   0.0000   0.0000   0.0000   0.0000   0.0000   0.0000   0.0000

          k = 0.0000 0.3849 0.0000 (  6790 PWs)   bands (ev):

   -68.5979 -55.5913 -55.5888 -55.5885 -32.8647 -32.8525 -32.7344 -29.7623
   -29.7594 -29.7585 -29.7296 -29.7277 -29.7266 -29.5932 -29.5913 -29.5902
    -8.0114  -7.8413  -7.8206  -7.8089  -7.4704  -7.4120  -7.3879  -7.3743
    -0.0097   0.2733   0.3202   0.3529   0.9081   1.0190   1.0919   1.1862
     1.2021   1.3152   1.3757   1.4421   2.7413   2.7484   2.7538   2.7687
     3.2917   3.4001   3.5094   3.5929   4.1350   4.1480   4.1620   4.1711
     4.1812   4.2168   4.2494   4.2688   6.9817   7.0809   7.1762   7.1928
     7.2026   7.2034   7.5592   7.6798   7.9863   8.1371   8.3296   8.7270

     occupation numbers 
     1.0000   1.0000   1.0000   1.0000   1.0000   1.0000   1.0000   1.0000
     1.0000   1.0000   1.0000   1.0000   1.0000   1.0000   1.0000   1.0000
     1.0000   1.0000   1.0000   1.0000   1.0000   1.0000   1.0000   1.0000
     1.0000   1.0000   1.0000   1.0000   1.0000   1.0000   1.0000   1.0000
     1.0000   1.0000   1.0000   1.0000   1.0000   1.0000   1.0000   1.0000
     1.0000   1.0000   1.0000   1.0000   1.0000   1.0000   1.0000   1.0000
     1.0000   1.0000   1.0000   1.0000   0.0000   0.0000   0.0000   0.0000
     0.0000   0.0000   0.0000   0.0000   0.0000   0.0000   0.0000   0.0000

          k = 0.0000 0.3849 0.0293 (  6771 PWs)   bands (ev):

   -68.5979 -55.5912 -55.5887 -55.5884 -32.8647 -32.8525 -32.7344 -29.7622
   -29.7593 -29.7585 -29.7296 -29.7276 -29.7265 -29.5932 -29.5913 -29.5902
    -8.0114  -7.8413  -7.8206  -7.8089  -7.4704  -7.4120  -7.3879  -7.3743
    -0.0097   0.2734   0.3202   0.3529   0.9081   1.0190   1.0919   1.1862
     1.2021   1.3152   1.3757   1.4422   2.7414   2.7484   2.7539   2.7687
     3.2917   3.4001   3.5094   3.5929   4.1350   4.1481   4.1620   4.1711
     4.1813   4.2169   4.2494   4.2688   6.9818   7.0811   7.1763   7.1929
     7.2028   7.2035   7.5593   7.6798   7.9864   8.1372   8.3297   8.7270

     occupation numbers 
     1.0000   1.0000   1.0000   1.0000   1.0000   1.0000   1.0000   1.0000
     1.0000   1.0000   1.0000   1.0000   1.0000   1.0000   1.0000   1.0000
     1.0000   1.0000   1.0000   1.0000   1.0000   1.0000   1.0000   1.0000
     1.0000   1.0000   1.0000   1.0000   1.0000   1.0000   1.0000   1.0000
     1.0000   1.0000   1.0000   1.0000   1.0000   1.0000   1.0000   1.0000
     1.0000   1.0000   1.0000   1.0000   1.0000   1.0000   1.0000   1.0000
     1.0000   1.0000   1.0000   1.0000   0.0000   0.0000   0.0000   0.0000
     0.0000   0.0000   0.0000   0.0000   0.0000   0.0000   0.0000   0.0000

          k = 0.3333 0.5774 0.0000 (  6744 PWs)   bands (ev):

   -68.5946 -55.5833 -55.5808 -55.5805 -32.8518 -32.8498 -32.8305 -29.7436
   -29.7407 -29.7399 -29.7299 -29.7280 -29.7269 -29.7018 -29.6999 -29.6988
    -7.1404  -7.0580  -7.0574  -7.0541  -7.0211  -6.9622  -6.9611  -6.9580
     0.0955   0.1619   0.1862   0.2072   0.2195   0.6529   0.6583   0.6610
     1.0744   1.2100   1.2411   1.2615   1.6433   1.7507   1.7818   1.7886
     2.0936   2.1809   2.2040   2.2172   3.0295   3.0319   3.0460   3.0465
     5.2246   5.2461   5.2627   5.4520   6.6622   6.6650   6.6658   6.9826
     7.5728   7.6843   7.8159   8.2241   8.2317   8.2417   8.2432   8.8372

     occupation numbers 
     1.0000   1.0000   1.0000   1.0000   1.0000   1.0000   1.0000   1.0000
     1.0000   1.0000   1.0000   1.0000   1.0000   1.0000   1.0000   1.0000
     1.0000   1.0000   1.0000   1.0000   1.0000   1.0000   1.0000   1.0000
     1.0000   1.0000   1.0000   1.0000   1.0000   1.0000   1.0000   1.0000
     1.0000   1.0000   1.0000   1.0000   1.0000   1.0000   1.0000   1.0000
     1.0000   1.0000   1.0000   1.0000   1.0000   1.0000   1.0000   1.0000
     1.0000   1.0000   1.0000   1.0000   0.0000   0.0000   0.0000   0.0000
     0.0000   0.0000   0.0000   0.0000   0.0000   0.0000   0.0000   0.0000

          k = 0.3333 0.5774 0.0293 (  6768 PWs)   bands (ev):

   -68.5946 -55.5834 -55.5809 -55.5806 -32.8518 -32.8498 -32.8305 -29.7438
   -29.7409 -29.7400 -29.7299 -29.7280 -29.7269 -29.7018 -29.6999 -29.6988
    -7.1404  -7.0580  -7.0574  -7.0541  -7.0211  -6.9622  -6.9611  -6.9580
     0.0955   0.1619   0.1861   0.2071   0.2194   0.6529   0.6583   0.6610
     1.0744   1.2100   1.2411   1.2615   1.6433   1.7508   1.7818   1.7887
     2.0936   2.1809   2.2040   2.2172   3.0295   3.0318   3.0460   3.0464
     5.2247   5.2461   5.2628   5.4520   6.6617   6.6643   6.6654   6.9826
     7.5726   7.6842   7.8157   8.2242   8.2317   8.2417   8.2432   8.8372

     occupation numbers 
     1.0000   1.0000   1.0000   1.0000   1.0000   1.0000   1.0000   1.0000
     1.0000   1.0000   1.0000   1.0000   1.0000   1.0000   1.0000   1.0000
     1.0000   1.0000   1.0000   1.0000   1.0000   1.0000   1.0000   1.0000
     1.0000   1.0000   1.0000   1.0000   1.0000   1.0000   1.0000   1.0000
     1.0000   1.0000   1.0000   1.0000   1.0000   1.0000   1.0000   1.0000
     1.0000   1.0000   1.0000   1.0000   1.0000   1.0000   1.0000   1.0000
     1.0000   1.0000   1.0000   1.0000   0.0000   0.0000   0.0000   0.0000
     0.0000   0.0000   0.0000   0.0000   0.0000   0.0000   0.0000   0.0000

          k = 0.0000-0.3849 0.0293 (  6771 PWs)   bands (ev):

   -68.5979 -55.5912 -55.5887 -55.5884 -32.8647 -32.8525 -32.7344 -29.7622
   -29.7593 -29.7585 -29.7296 -29.7276 -29.7265 -29.5932 -29.5913 -29.5902
    -8.0114  -7.8413  -7.8206  -7.8089  -7.4704  -7.4120  -7.3879  -7.3743
    -0.0097   0.2734   0.3202   0.3529   0.9081   1.0190   1.0919   1.1862
     1.2021   1.3152   1.3757   1.4422   2.7414   2.7485   2.7539   2.7687
     3.2917   3.4001   3.5094   3.5929   4.1350   4.1481   4.1620   4.1711
     4.1813   4.2169   4.2494   4.2688   6.9818   7.0811   7.1763   7.1929
     7.2028   7.2035   7.5593   7.6798   7.9864   8.1372   8.3297   8.7271

     occupation numbers 
     1.0000   1.0000   1.0000   1.0000   1.0000   1.0000   1.0000   1.0000
     1.0000   1.0000   1.0000   1.0000   1.0000   1.0000   1.0000   1.0000
     1.0000   1.0000   1.0000   1.0000   1.0000   1.0000   1.0000   1.0000
     1.0000   1.0000   1.0000   1.0000   1.0000   1.0000   1.0000   1.0000
     1.0000   1.0000   1.0000   1.0000   1.0000   1.0000   1.0000   1.0000
     1.0000   1.0000   1.0000   1.0000   1.0000   1.0000   1.0000   1.0000
     1.0000   1.0000   1.0000   1.0000   0.0000   0.0000   0.0000   0.0000
     0.0000   0.0000   0.0000   0.0000   0.0000   0.0000   0.0000   0.0000

     highest occupied, lowest unoccupied level (ev):     5.4520    6.6617

!    total energy              =    -919.95884505 Ry
     estimated scf accuracy    <       0.00000045 Ry

     The total energy is the sum of the following terms:
     one-electron contribution =   -3750.47894706 Ry
     hartree contribution      =    1898.82496775 Ry
     xc contribution           =    -325.92157575 Ry
     ewald contribution        =    1257.61671001 Ry

     convergence has been achieved in  40 iterations

     Writing all to output data dir calculations_bands_val/myprefix.save/
 
     init_run     :      6.14s CPU      2.22s WALL (       1 calls)
     electrons    :    210.30s CPU     55.33s WALL (       1 calls)

     Called by init_run:
     wfcinit      :      1.15s CPU      0.30s WALL (       1 calls)
     wfcinit:atom :      0.01s CPU      0.00s WALL (       4 calls)
     wfcinit:wfcr :      1.03s CPU      0.27s WALL (       4 calls)
     potinit      :      1.44s CPU      0.38s WALL (       1 calls)
     hinit0       :      3.12s CPU      1.38s WALL (       1 calls)

     Called by electrons:
     c_bands      :    156.69s CPU     40.49s WALL (      40 calls)
     sum_band     :     32.86s CPU      9.06s WALL (      40 calls)
     v_of_rho     :      4.50s CPU      1.19s WALL (      41 calls)
     v_h          :      0.38s CPU      0.10s WALL (      41 calls)
     v_xc         :      4.12s CPU      1.09s WALL (      41 calls)
     newd         :     14.78s CPU      4.22s WALL (      41 calls)
     mix_rho      :      1.23s CPU      0.32s WALL (      40 calls)

     Called by c_bands:
     init_us_2    :      1.00s CPU      0.26s WALL (     324 calls)
     init_us_2:cp :      0.99s CPU      0.25s WALL (     324 calls)
     cegterg      :    148.11s CPU     38.29s WALL (     164 calls)

     Called by sum_band:
     sum_band:wei :      0.02s CPU      0.01s WALL (      40 calls)
     sum_band:loo :     15.76s CPU      4.07s WALL (      40 calls)
     sum_band:buf :      0.25s CPU      0.07s WALL (     160 calls)
     sum_band:ini :      0.47s CPU      0.12s WALL (     160 calls)
     sum_band:cal :      1.58s CPU      0.40s WALL (     160 calls)
     sum_band:bec :      0.14s CPU      0.04s WALL (     160 calls)
     addusdens    :     13.72s CPU      4.09s WALL (      40 calls)
     addusd:skk   :      0.05s CPU      0.01s WALL (      80 calls)
     addusd:dgemm :      1.39s CPU      0.89s WALL (      80 calls)
     addusd:qvan2 :     11.31s CPU      2.86s WALL (      80 calls)

     Called by *egterg:
     cdiaghg      :     20.22s CPU      5.30s WALL (    1195 calls)
     cegterg:over :      8.74s CPU      2.23s WALL (    1031 calls)
     cegterg:upda :      3.57s CPU      0.92s WALL (    1031 calls)
     cegterg:last :      7.36s CPU      1.89s WALL (     545 calls)
     cdiaghg:chol :      1.49s CPU      0.39s WALL (    1195 calls)
     cdiaghg:inve :      0.29s CPU      0.08s WALL (    1195 calls)
     cdiaghg:para :      3.65s CPU      0.97s WALL (    2390 calls)
     h_psi        :    102.96s CPU     26.62s WALL (    1199 calls)
     s_psi        :      3.66s CPU      0.93s WALL (    1199 calls)
     g_psi        :      0.24s CPU      0.06s WALL (    1031 calls)

     Called by h_psi:
     h_psi:calbec :      6.17s CPU      1.57s WALL (    1199 calls)
     vloc_psi     :     92.26s CPU     23.89s WALL (    1199 calls)
     add_vuspsi   :      4.18s CPU      1.07s WALL (    1199 calls)

     General routines
     calbec       :      7.70s CPU      1.96s WALL (    1359 calls)
     fft          :      4.47s CPU      1.38s WALL (     531 calls)
     ffts         :      0.99s CPU      0.27s WALL (      81 calls)
     fftw         :     94.41s CPU     24.49s WALL (   84046 calls)
     interpolate  :      1.16s CPU      0.31s WALL (      41 calls)
 
     Parallel routines
 
     PWSCF        :   3m37.65s CPU     58.14s WALL

 
   This run was terminated on:  12:30:45   4Jun2023            

=------------------------------------------------------------------------------=
   JOB DONE.
=------------------------------------------------------------------------------=
