
     Program PWSCF v.7.0 starts on  4Jun2023 at 15:21:20 

     This program is part of the open-source Quantum ESPRESSO suite
     for quantum simulation of materials; please cite
         "P. Giannozzi et al., J. Phys.:Condens. Matter 21 395502 (2009);
         "P. Giannozzi et al., J. Phys.:Condens. Matter 29 465901 (2017);
         "P. Giannozzi et al., J. Chem. Phys. 152 154105 (2020);
          URL http://www.quantum-espresso.org", 
     in publications or presentations arising from this work. More details at
     http://www.quantum-espresso.org/quote

     Parallel version (MPI & OpenMP), running on      32 processor cores
     Number of MPI processes:                 8
     Threads/MPI process:                     4

     MPI processes distributed on     1 nodes
     K-points division:     npool     =       2
     R & G space division:  proc/nbgrp/npool/nimage =       4
     141677 MiB available memory on the printing compute node when the environment starts
 
     Reading input from espresso_904.pwi
Warning: card &CELL ignored
Warning: card / ignored

     Current dimensions of program PWSCF are:
     Max number of different atomic species (ntypx) = 10
     Max number of k-points (npk) =  40000
     Max angular momentum in pseudopotentials (lmaxx) =  4
     file O.pbe-n-kjpaw_psl.0.1.UPF: wavefunction(s)  2P renormalized
     Message from routine setup:
     using ibrav=0 with symmetry is DISCOURAGED, use correct ibrav instead

     Subspace diagonalization in iterative solution of the eigenvalue problem:
     one sub-group per band group will be used
     scalapack distributed-memory algorithm (size of sub-group:  2*  2 procs)

 
     Parallelization info
     --------------------
     sticks:   dense  smooth     PW     G-vecs:    dense   smooth      PW
     Min         565     282     78                25565     9041    1351
     Max         566     283     79                25568     9046    1356
     Sum        2261    1131    315               102265    36179    5419
 
     Using Slab Decomposition
 


     bravais-lattice index     =            0
     lattice parameter (alat)  =      11.3202  a.u.
     unit-cell volume          =    1628.7496 (a.u.)^3
     number of atoms/cell      =           12
     number of atomic types    =            3
     number of electrons       =        78.00
     number of Kohn-Sham states=           64
     kinetic-energy cutoff     =      30.0000  Ry
     charge density cutoff     =     240.0000  Ry
     scf convergence threshold =      1.0E-06
     mixing beta               =       0.7000
     number of iterations used =            8  plain     mixing
     Exchange-correlation= SLA  PW   PBX  PBC
                           (   1   4   3   4   0   0   0)

     celldm(1)=  11.320223  celldm(2)=   0.000000  celldm(3)=   0.000000
     celldm(4)=   0.000000  celldm(5)=   0.000000  celldm(6)=   0.000000

     crystal axes: (cart. coord. in units of alat)
               a(1) = (   1.000000   0.000000   0.000000 )  
               a(2) = (   0.000000   0.927732   0.000000 )  
               a(3) = (   0.000000   0.275783   1.210228 )  

     reciprocal axes: (cart. coord. in units 2 pi/alat)
               b(1) = (  1.000000  0.000000  0.000000 )  
               b(2) = (  0.000000  1.077898 -0.245628 )  
               b(3) = (  0.000000  0.000000  0.826291 )  


     PseudoPot. # 1 for Cs read from file:
     /home/pragov/projects/rrg-bengioy-ad/pragov/crystal_structure_design/SSSP/Cs_pbe_v1.uspp.F.UPF
     MD5 check sum: 3476d69cb178dfad3ffaa59df4e07ca4
     Pseudo is Ultrasoft + core correction, Zval =  9.0
     Generated by new atomic code, or converted to UPF format
     Using radial grid of  905 points,  6 beta functions with: 
                l(1) =   0
                l(2) =   0
                l(3) =   1
                l(4) =   1
                l(5) =   2
                l(6) =   2
     Q(r) pseudized with  6 coefficients,  rinner =    1.500   1.500   1.500
                                                       1.500   1.500

     PseudoPot. # 2 for S  read from file:
     /home/pragov/projects/rrg-bengioy-ad/pragov/crystal_structure_design/SSSP/s_pbe_v1.4.uspp.F.UPF
     MD5 check sum: 88d86576ff6df21479756cfb9bdac1df
     Pseudo is Ultrasoft + core correction, Zval =  6.0
     Generated by new atomic code, or converted to UPF format
     Using radial grid of  907 points,  6 beta functions with: 
                l(1) =   0
                l(2) =   0
                l(3) =   1
                l(4) =   1
                l(5) =   2
                l(6) =   2
     Q(r) pseudized with  8 coefficients,  rinner =    1.300   1.300   1.300
                                                       1.300   1.300

     PseudoPot. # 3 for O  read from file:
     /home/pragov/projects/rrg-bengioy-ad/pragov/crystal_structure_design/SSSP/O.pbe-n-kjpaw_psl.0.1.UPF
     MD5 check sum: 0234752ac141de4415c5fc33072bef88
     Pseudo is Projector augmented-wave + core cor, Zval =  6.0
     Generated using "atomic" code by A. Dal Corso  v.5.0.99 svn rev. 10869
     Shape of augmentation charge: BESSEL
     Using radial grid of 1095 points,  4 beta functions with: 
                l(1) =   0
                l(2) =   0
                l(3) =   1
                l(4) =   1
     Q(r) pseudized with 0 coefficients 


     atomic species   valence    mass     pseudopotential
        Cs             9.00   132.90545     Cs( 1.00)
        S              6.00    32.06000     S ( 1.00)
        O              6.00    15.99900     O ( 1.00)

      4 Sym. Ops., with inversion, found ( 2 have fractional translation)


                                    s                        frac. trans.

      isym =  1     identity                                     

 cryst.   s( 1) = (     1          0          0      )
                  (     0          1          0      )
                  (     0          0          1      )

 cart.    s( 1) = (  1.0000000  0.0000000  0.0000000 )
                  (  0.0000000  1.0000000  0.0000000 )
                  (  0.0000000  0.0000000  1.0000000 )


      isym =  2     180 deg rotation - cart. axis [1,0,0]        

 cryst.   s( 2) = (     1          0          0      )    f =(  0.5000000 )
                  (     0         -1          0      )       (  0.0000000 )
                  (     0          0         -1      )       (  0.0000000 )

 cart.    s( 2) = (  1.0000000  0.0000000  0.0000000 )    f =(  0.5000000 )
                  (  0.0000000 -1.0000000 -0.0000000 )       (  0.0000000 )
                  (  0.0000000  0.0000000 -1.0000000 )       (  0.0000000 )


      isym =  3     inversion                                    

 cryst.   s( 3) = (    -1          0          0      )
                  (     0         -1          0      )
                  (     0          0         -1      )

 cart.    s( 3) = ( -1.0000000  0.0000000  0.0000000 )
                  (  0.0000000 -1.0000000 -0.0000000 )
                  (  0.0000000  0.0000000 -1.0000000 )


      isym =  4     inv. 180 deg rotation - cart. axis [1,0,0]   

 cryst.   s( 4) = (    -1          0          0      )    f =(  0.5000000 )
                  (     0          1          0      )       (  0.0000000 )
                  (     0          0          1      )       (  0.0000000 )

 cart.    s( 4) = ( -1.0000000  0.0000000  0.0000000 )    f =(  0.5000000 )
                  (  0.0000000  1.0000000  0.0000000 )       (  0.0000000 )
                  (  0.0000000  0.0000000  1.0000000 )       (  0.0000000 )


   Cartesian axes

     site n.     atom                  positions (alat units)
         1           Cs  tau(   1) = (   0.7500000   0.4975976   0.2770671  )
         2           Cs  tau(   2) = (   0.2500000   0.7059168   0.9331605  )
         3           S   tau(   3) = (   0.7500000   0.2476864   0.8906996  )
         4           S   tau(   4) = (   0.2500000   0.9558279   0.3195279  )
         5           O   tau(   5) = (   0.7500000   0.9441963   0.9738483  )
         6           O   tau(   6) = (   0.2500000   0.2593180   0.2363792  )
         7           O   tau(   7) = (   0.7500000   0.4124836   1.0772974  )
         8           O   tau(   8) = (   0.2500000   0.7910307   0.1329302  )
         9           O   tau(   9) = (   0.9564650   0.2936308   0.7580006  )
        10           O   tau(  10) = (   0.0435350   0.9098835   0.4522269  )
        11           O   tau(  11) = (   0.4564650   0.9098835   0.4522269  )
        12           O   tau(  12) = (   0.5435350   0.2936308   0.7580006  )

   Crystallographic axes

     site n.     atom                  positions (cryst. coord.)
         1           Cs  tau(   1) = (  0.7500000  0.4683040  0.2289380  )
         2           Cs  tau(   2) = (  0.2500000  0.5316960  0.7710620  )
         3           S   tau(   3) = (  0.7500000  0.0482000  0.7359770  )
         4           S   tau(   4) = (  0.2500000  0.9518000  0.2640230  )
         5           O   tau(   5) = (  0.7500000  0.7785430  0.8046820  )
         6           O   tau(   6) = (  0.2500000  0.2214570  0.1953180  )
         7           O   tau(   7) = (  0.7500000  0.1800010  0.8901610  )
         8           O   tau(   8) = (  0.2500000  0.8199990  0.1098390  )
         9           O   tau(   9) = (  0.9564650  0.1303180  0.6263290  )
        10           O   tau(  10) = (  0.0435350  0.8696820  0.3736710  )
        11           O   tau(  11) = (  0.4564650  0.8696820  0.3736710  )
        12           O   tau(  12) = (  0.5435350  0.1303180  0.6263290  )

     number of k points=    10
                       cart. coord. in units 2pi/alat
        k(    1) = (   0.0000000   0.0000000   0.0000000), wk =   0.0740741
        k(    2) = (   0.0000000   0.0000000   0.2754303), wk =   0.1481481
        k(    3) = (   0.0000000   0.3592993  -0.0818760), wk =   0.1481481
        k(    4) = (   0.0000000   0.3592993   0.1935543), wk =   0.1481481
        k(    5) = (   0.0000000   0.3592993  -0.3573063), wk =   0.1481481
        k(    6) = (   0.3333333   0.0000000   0.0000000), wk =   0.1481481
        k(    7) = (   0.3333333   0.0000000   0.2754303), wk =   0.2962963
        k(    8) = (   0.3333333   0.3592993  -0.0818760), wk =   0.2962963
        k(    9) = (   0.3333333   0.3592993   0.1935543), wk =   0.2962963
        k(   10) = (   0.3333333   0.3592993  -0.3573063), wk =   0.2962963

                       cryst. coord.
        k(    1) = (   0.0000000   0.0000000   0.0000000), wk =   0.0740741
        k(    2) = (   0.0000000   0.0000000   0.3333333), wk =   0.1481481
        k(    3) = (   0.0000000   0.3333333   0.0000000), wk =   0.1481481
        k(    4) = (   0.0000000   0.3333333   0.3333333), wk =   0.1481481
        k(    5) = (   0.0000000   0.3333333  -0.3333333), wk =   0.1481481
        k(    6) = (   0.3333333   0.0000000   0.0000000), wk =   0.1481481
        k(    7) = (   0.3333333   0.0000000   0.3333333), wk =   0.2962963
        k(    8) = (   0.3333333   0.3333333   0.0000000), wk =   0.2962963
        k(    9) = (   0.3333333   0.3333333   0.3333333), wk =   0.2962963
        k(   10) = (   0.3333333   0.3333333  -0.3333333), wk =   0.2962963

     Dense  grid:   102265 G-vectors     FFT dimensions: (  60,  54,  72)

     Smooth grid:    36179 G-vectors     FFT dimensions: (  40,  40,  50)

     Dynamical RAM for                 wfc:       1.10 MB

     Dynamical RAM for     wfc (w. buffer):       6.62 MB

     Dynamical RAM for           str. fact:       1.17 MB

     Dynamical RAM for           local pot:       0.00 MB

     Dynamical RAM for          nlocal pot:       2.34 MB

     Dynamical RAM for                qrad:       3.73 MB

     Dynamical RAM for          rho,v,vnew:       2.51 MB

     Dynamical RAM for               rhoin:       0.84 MB

     Dynamical RAM for            rho*nmix:       6.24 MB

     Dynamical RAM for           G-vectors:       1.53 MB

     Dynamical RAM for          h,s,v(r/c):       0.19 MB

     Dynamical RAM for          <psi|beta>:       0.13 MB

     Dynamical RAM for                 psi:       2.21 MB

     Dynamical RAM for                hpsi:       2.21 MB

     Dynamical RAM for                spsi:       2.21 MB

     Dynamical RAM for      wfcinit/wfcrot:       2.37 MB

     Dynamical RAM for           addusdens:      38.04 MB

     Estimated static dynamical RAM per process >      22.52 MB

     Estimated max dynamical RAM per process >      66.80 MB

     Estimated total dynamical RAM >     509.39 MB

     Check: negative core charge=   -0.000010

     Initial potential from superposition of free atoms

     starting charge      77.9211, renormalised to      78.0000
     Starting wfcs are   66 randomized atomic wfcs
     Checking if some PAW data can be deallocated... 
       PAW data deallocated on    2 nodes for type:  3

     total cpu time spent up to now is        2.7 secs

     Self-consistent Calculation

     iteration #  1     ecut=    30.00 Ry     beta= 0.70
     Davidson diagonalization with overlap

---- Real-time Memory Report at c_bands before calling an iterative solver
           216 MiB given to the printing process from OS
             0 MiB allocation reported by mallinfo(arena+hblkhd)
        140878 MiB available memory on the node where the printing process lives
------------------
     ethr =  1.00E-02,  avg # of iterations =  5.1

     total cpu time spent up to now is        3.9 secs

     total energy              =    -506.40240333 Ry
     estimated scf accuracy    <       1.77958627 Ry

     iteration #  2     ecut=    30.00 Ry     beta= 0.70
     Davidson diagonalization with overlap

---- Real-time Memory Report at c_bands before calling an iterative solver
           273 MiB given to the printing process from OS
             0 MiB allocation reported by mallinfo(arena+hblkhd)
        140687 MiB available memory on the node where the printing process lives
------------------
     ethr =  2.28E-03,  avg # of iterations =  2.7

     total cpu time spent up to now is        4.8 secs

     total energy              =    -506.68909232 Ry
     estimated scf accuracy    <       2.41644632 Ry

     iteration #  3     ecut=    30.00 Ry     beta= 0.70
     Davidson diagonalization with overlap

---- Real-time Memory Report at c_bands before calling an iterative solver
           281 MiB given to the printing process from OS
             0 MiB allocation reported by mallinfo(arena+hblkhd)
        140437 MiB available memory on the node where the printing process lives
------------------
     ethr =  2.28E-03,  avg # of iterations =  2.0

     total cpu time spent up to now is        5.5 secs

     total energy              =    -507.16263231 Ry
     estimated scf accuracy    <       0.49705692 Ry

     iteration #  4     ecut=    30.00 Ry     beta= 0.70
     Davidson diagonalization with overlap

---- Real-time Memory Report at c_bands before calling an iterative solver
           282 MiB given to the printing process from OS
             0 MiB allocation reported by mallinfo(arena+hblkhd)
        140505 MiB available memory on the node where the printing process lives
------------------
     ethr =  6.37E-04,  avg # of iterations =  1.9

     total cpu time spent up to now is        6.2 secs

     total energy              =    -507.22137180 Ry
     estimated scf accuracy    <       0.01960179 Ry

     iteration #  5     ecut=    30.00 Ry     beta= 0.70
     Davidson diagonalization with overlap

---- Real-time Memory Report at c_bands before calling an iterative solver
           282 MiB given to the printing process from OS
             0 MiB allocation reported by mallinfo(arena+hblkhd)
        140502 MiB available memory on the node where the printing process lives
------------------
     ethr =  2.51E-05,  avg # of iterations =  8.3

     total cpu time spent up to now is        7.3 secs

     total energy              =    -507.20991460 Ry
     estimated scf accuracy    <       0.18133832 Ry

     iteration #  6     ecut=    30.00 Ry     beta= 0.70
     Davidson diagonalization with overlap

---- Real-time Memory Report at c_bands before calling an iterative solver
           287 MiB given to the printing process from OS
             0 MiB allocation reported by mallinfo(arena+hblkhd)
        140399 MiB available memory on the node where the printing process lives
------------------
     ethr =  2.51E-05,  avg # of iterations =  2.5

     total cpu time spent up to now is        8.0 secs

     total energy              =    -507.22699811 Ry
     estimated scf accuracy    <       0.00263109 Ry

     iteration #  7     ecut=    30.00 Ry     beta= 0.70
     Davidson diagonalization with overlap

---- Real-time Memory Report at c_bands before calling an iterative solver
           288 MiB given to the printing process from OS
             0 MiB allocation reported by mallinfo(arena+hblkhd)
        140368 MiB available memory on the node where the printing process lives
------------------
     ethr =  3.37E-06,  avg # of iterations =  4.4

     total cpu time spent up to now is        8.8 secs

     total energy              =    -507.22715780 Ry
     estimated scf accuracy    <       0.00233078 Ry

     iteration #  8     ecut=    30.00 Ry     beta= 0.70
     Davidson diagonalization with overlap

---- Real-time Memory Report at c_bands before calling an iterative solver
           289 MiB given to the printing process from OS
             0 MiB allocation reported by mallinfo(arena+hblkhd)
        140366 MiB available memory on the node where the printing process lives
------------------
     ethr =  2.99E-06,  avg # of iterations =  1.0

     total cpu time spent up to now is        9.4 secs

     total energy              =    -507.22710661 Ry
     estimated scf accuracy    <       0.00072588 Ry

     iteration #  9     ecut=    30.00 Ry     beta= 0.70
     Davidson diagonalization with overlap

---- Real-time Memory Report at c_bands before calling an iterative solver
           289 MiB given to the printing process from OS
             0 MiB allocation reported by mallinfo(arena+hblkhd)
        140401 MiB available memory on the node where the printing process lives
------------------
     ethr =  9.31E-07,  avg # of iterations =  1.1

     total cpu time spent up to now is       10.0 secs

     total energy              =    -507.22711985 Ry
     estimated scf accuracy    <       0.00010267 Ry

     iteration # 10     ecut=    30.00 Ry     beta= 0.70
     Davidson diagonalization with overlap

---- Real-time Memory Report at c_bands before calling an iterative solver
           289 MiB given to the printing process from OS
             0 MiB allocation reported by mallinfo(arena+hblkhd)
        140367 MiB available memory on the node where the printing process lives
------------------
     ethr =  1.32E-07,  avg # of iterations =  1.3

     total cpu time spent up to now is       10.7 secs

     total energy              =    -507.22712224 Ry
     estimated scf accuracy    <       0.00002396 Ry

     iteration # 11     ecut=    30.00 Ry     beta= 0.70
     Davidson diagonalization with overlap

---- Real-time Memory Report at c_bands before calling an iterative solver
           289 MiB given to the printing process from OS
             0 MiB allocation reported by mallinfo(arena+hblkhd)
        140367 MiB available memory on the node where the printing process lives
------------------
     ethr =  3.07E-08,  avg # of iterations =  4.7

     total cpu time spent up to now is       11.4 secs

     total energy              =    -507.22712678 Ry
     estimated scf accuracy    <       0.00000446 Ry

     iteration # 12     ecut=    30.00 Ry     beta= 0.70
     Davidson diagonalization with overlap

---- Real-time Memory Report at c_bands before calling an iterative solver
           289 MiB given to the printing process from OS
             0 MiB allocation reported by mallinfo(arena+hblkhd)
        140438 MiB available memory on the node where the printing process lives
------------------
     ethr =  5.72E-09,  avg # of iterations =  1.9

     total cpu time spent up to now is       12.1 secs

     End of self-consistent calculation

          k = 0.0000 0.0000 0.0000 (  4511 PWs)   bands (ev):

   -21.1911 -21.1392 -17.0726 -17.0704 -17.0685 -17.0286 -17.0168 -16.9305
   -16.9209 -16.8258  -6.5658  -6.4033  -4.3734  -4.1465  -4.0934  -4.0717
    -3.9868  -3.9631  -3.9566  -3.7906  -3.7560  -3.6367  -3.5655  -3.3768
    -1.2646  -1.0012  -0.9584  -0.8292  -0.7397  -0.4468  -0.3526  -0.3490
    -0.2426   0.0570   1.1628   1.3474   1.4091   1.5026   1.5692   1.6199
     7.3788   9.0127   9.0153   9.0835   9.3967  10.2138  10.2561  10.8029
    11.0137  11.0491  11.2169  11.4264  11.5551  11.5735  11.6767  11.7345
    11.8688  12.2189  12.5248  12.7418  13.1163  13.3142  14.0941  14.4087

     occupation numbers 
     1.0000   1.0000   1.0000   1.0000   1.0000   1.0000   1.0000   1.0000
     1.0000   1.0000   1.0000   1.0000   1.0000   1.0000   1.0000   1.0000
     1.0000   1.0000   1.0000   1.0000   1.0000   1.0000   1.0000   1.0000
     1.0000   1.0000   1.0000   1.0000   1.0000   1.0000   1.0000   1.0000
     1.0000   1.0000   1.0000   1.0000   1.0000   1.0000   1.0000   0.0000
     0.0000   0.0000   0.0000   0.0000   0.0000   0.0000   0.0000   0.0000
     0.0000   0.0000   0.0000   0.0000   0.0000   0.0000   0.0000   0.0000
     0.0000   0.0000   0.0000   0.0000   0.0000   0.0000   0.0000   0.0000

          k = 0.0000 0.0000 0.2754 (  4524 PWs)   bands (ev):

   -21.1832 -21.1471 -17.0975 -17.0725 -17.0678 -17.0613 -17.0234 -16.9311
   -16.8635 -16.8145  -6.5958  -6.4297  -4.4107  -4.1756  -4.0891  -4.0102
    -3.9743  -3.9520  -3.8664  -3.8293  -3.6961  -3.6033  -3.5775  -3.4303
    -1.2964  -1.0177  -0.8749  -0.7822  -0.6869  -0.4970  -0.3828  -0.3723
    -0.2674  -0.0441   1.1200   1.3412   1.3838   1.4903   1.5478   1.6393
     7.9419   8.8753   9.2540   9.3953   9.4448   9.9599  10.0252  10.6250
    10.7855  10.8768  11.0046  11.0308  11.1866  11.3356  11.6773  11.7586
    11.8806  12.0432  12.2403  12.4253  13.9254  13.9886  14.2152  14.7437

     occupation numbers 
     1.0000   1.0000   1.0000   1.0000   1.0000   1.0000   1.0000   1.0000
     1.0000   1.0000   1.0000   1.0000   1.0000   1.0000   1.0000   1.0000
     1.0000   1.0000   1.0000   1.0000   1.0000   1.0000   1.0000   1.0000
     1.0000   1.0000   1.0000   1.0000   1.0000   1.0000   1.0000   1.0000
     1.0000   1.0000   1.0000   1.0000   1.0000   1.0000   1.0000   0.0000
     0.0000   0.0000   0.0000   0.0000   0.0000   0.0000   0.0000   0.0000
     0.0000   0.0000   0.0000   0.0000   0.0000   0.0000   0.0000   0.0000
     0.0000   0.0000   0.0000   0.0000   0.0000   0.0000   0.0000   0.0000

          k = 0.0000 0.3593-0.0819 (  4520 PWs)   bands (ev):

   -21.1843 -21.1361 -17.2245 -17.0914 -17.0666 -17.0023 -16.9343 -16.9315
   -16.9099 -16.7941  -6.5706  -6.3319  -4.5797  -4.2465  -4.1718  -4.0483
    -3.9691  -3.9025  -3.8813  -3.7203  -3.6462  -3.5343  -3.5295  -3.3174
    -1.1170  -0.9208  -0.8823  -0.8028  -0.7197  -0.7052  -0.5597  -0.5352
    -0.3059  -0.0248   1.1313   1.2895   1.3794   1.5189   1.5213   1.5933
     8.3200   9.2299   9.2403   9.3892   9.8808  10.1163  10.4476  10.7397
    10.8417  11.0261  11.0980  11.1082  11.4411  11.6168  11.7232  11.8458
    11.9926  12.2101  12.5104  12.5654  12.7958  13.3604  13.5708  13.8019

     occupation numbers 
     1.0000   1.0000   1.0000   1.0000   1.0000   1.0000   1.0000   1.0000
     1.0000   1.0000   1.0000   1.0000   1.0000   1.0000   1.0000   1.0000
     1.0000   1.0000   1.0000   1.0000   1.0000   1.0000   1.0000   1.0000
     1.0000   1.0000   1.0000   1.0000   1.0000   1.0000   1.0000   1.0000
     1.0000   1.0000   1.0000   1.0000   1.0000   1.0000   1.0000   0.0000
     0.0000   0.0000   0.0000   0.0000   0.0000   0.0000   0.0000   0.0000
     0.0000   0.0000   0.0000   0.0000   0.0000   0.0000   0.0000   0.0000
     0.0000   0.0000   0.0000   0.0000   0.0000   0.0000   0.0000   0.0000

          k = 0.0000 0.3593 0.1936 (  4517 PWs)   bands (ev):

   -21.1776 -21.1427 -17.2003 -17.1150 -17.0656 -17.0157 -16.9326 -16.9272
   -16.8871 -16.8122  -6.5341  -6.3543  -4.5759  -4.1400  -4.1109  -4.0618
    -3.9757  -3.9098  -3.8908  -3.7875  -3.6645  -3.6346  -3.5266  -3.3442
    -1.1360  -0.9787  -0.8954  -0.8672  -0.7085  -0.5555  -0.4781  -0.4596
    -0.3145  -0.0735   1.0943   1.2824   1.3828   1.5144   1.5282   1.6004
     8.4757   9.3322   9.4590   9.5040   9.7656   9.9708  10.2938  10.6212
    10.6310  10.8623  11.0084  11.2559  11.2934  11.4814  11.4880  11.7774
    11.9254  11.9699  11.9786  12.3500  13.0436  13.3608  14.4587  14.6210

     occupation numbers 
     1.0000   1.0000   1.0000   1.0000   1.0000   1.0000   1.0000   1.0000
     1.0000   1.0000   1.0000   1.0000   1.0000   1.0000   1.0000   1.0000
     1.0000   1.0000   1.0000   1.0000   1.0000   1.0000   1.0000   1.0000
     1.0000   1.0000   1.0000   1.0000   1.0000   1.0000   1.0000   1.0000
     1.0000   1.0000   1.0000   1.0000   1.0000   1.0000   1.0000   0.0000
     0.0000   0.0000   0.0000   0.0000   0.0000   0.0000   0.0000   0.0000
     0.0000   0.0000   0.0000   0.0000   0.0000   0.0000   0.0000   0.0000
     0.0000   0.0000   0.0000   0.0000   0.0000   0.0000   0.0000   0.0000

          k = 0.0000 0.3593-0.3573 (  4506 PWs)   bands (ev):

   -21.1771 -21.1430 -17.2186 -17.1041 -17.0653 -17.0252 -16.9340 -16.9320
   -16.8902 -16.7832  -6.5196  -6.4103  -4.5333  -4.2462  -4.1217  -4.0666
    -3.9664  -3.9331  -3.9176  -3.7272  -3.6583  -3.5242  -3.5073  -3.2926
    -1.1161  -0.9966  -0.9606  -0.8359  -0.7231  -0.6008  -0.4654  -0.4085
    -0.3357  -0.0863   1.0831   1.2812   1.3854   1.5162   1.5314   1.6070
     8.8336   9.1930   9.2926   9.6522   9.6526  10.1357  10.4552  10.5419
    10.7770  10.8291  11.0047  11.1266  11.1439  11.3383  11.4534  11.6025
    11.8332  11.9211  12.0040  12.3835  12.7568  13.8231  14.2614  14.5746

     occupation numbers 
     1.0000   1.0000   1.0000   1.0000   1.0000   1.0000   1.0000   1.0000
     1.0000   1.0000   1.0000   1.0000   1.0000   1.0000   1.0000   1.0000
     1.0000   1.0000   1.0000   1.0000   1.0000   1.0000   1.0000   1.0000
     1.0000   1.0000   1.0000   1.0000   1.0000   1.0000   1.0000   1.0000
     1.0000   1.0000   1.0000   1.0000   1.0000   1.0000   1.0000   0.0000
     0.0000   0.0000   0.0000   0.0000   0.0000   0.0000   0.0000   0.0000
     0.0000   0.0000   0.0000   0.0000   0.0000   0.0000   0.0000   0.0000
     0.0000   0.0000   0.0000   0.0000   0.0000   0.0000   0.0000   0.0000

          k = 0.3333 0.0000 0.0000 (  4526 PWs)   bands (ev):

   -21.1758 -21.1502 -17.1352 -17.1154 -17.0617 -17.0551 -16.9477 -16.9323
   -16.8614 -16.8342  -6.5223  -6.4465  -4.3247  -4.1958  -4.1736  -4.1425
    -4.0180  -3.9472  -3.8319  -3.8065  -3.6712  -3.6039  -3.5086  -3.3452
    -1.1214  -1.0108  -0.9560  -0.8247  -0.6071  -0.5471  -0.4148  -0.3932
    -0.3774  -0.0846   1.1649   1.2897   1.3268   1.3776   1.5721   1.5956
     8.1868   9.0478   9.3779   9.3942   9.7632   9.8944  10.3107  10.6154
    10.7971  10.8286  11.1164  11.2491  11.4363  11.4432  11.5509  11.8424
    11.9225  12.0622  12.0728  12.2778  13.3740  13.6730  14.2514  14.2546

     occupation numbers 
     1.0000   1.0000   1.0000   1.0000   1.0000   1.0000   1.0000   1.0000
     1.0000   1.0000   1.0000   1.0000   1.0000   1.0000   1.0000   1.0000
     1.0000   1.0000   1.0000   1.0000   1.0000   1.0000   1.0000   1.0000
     1.0000   1.0000   1.0000   1.0000   1.0000   1.0000   1.0000   1.0000
     1.0000   1.0000   1.0000   1.0000   1.0000   1.0000   1.0000   0.0000
     0.0000   0.0000   0.0000   0.0000   0.0000   0.0000   0.0000   0.0000
     0.0000   0.0000   0.0000   0.0000   0.0000   0.0000   0.0000   0.0000
     0.0000   0.0000   0.0000   0.0000   0.0000   0.0000   0.0000   0.0000

          k = 0.3333 0.0000 0.2754 (  4516 PWs)   bands (ev):

   -21.1718 -21.1536 -17.1612 -17.1400 -17.0603 -17.0578 -16.9467 -16.9051
   -16.8465 -16.8220  -6.5592  -6.4732  -4.3581  -4.1839  -4.1499  -4.1122
    -3.9340  -3.9163  -3.8613  -3.8310  -3.7090  -3.5459  -3.4525  -3.3854
    -1.1207  -0.9741  -0.9037  -0.7652  -0.6984  -0.6222  -0.4702  -0.4398
    -0.2866  -0.0990   1.1765   1.2927   1.3177   1.3620   1.5490   1.5877
     8.6052   9.2430   9.4139   9.5309   9.5545   9.7865  10.1819  10.3447
    10.6208  10.7785  10.9371  11.0361  11.3832  11.4663  11.6843  11.9067
    12.0206  12.1605  12.3572  12.7002  12.8757  13.3003  13.9130  14.1517

     occupation numbers 
     1.0000   1.0000   1.0000   1.0000   1.0000   1.0000   1.0000   1.0000
     1.0000   1.0000   1.0000   1.0000   1.0000   1.0000   1.0000   1.0000
     1.0000   1.0000   1.0000   1.0000   1.0000   1.0000   1.0000   1.0000
     1.0000   1.0000   1.0000   1.0000   1.0000   1.0000   1.0000   1.0000
     1.0000   1.0000   1.0000   1.0000   1.0000   1.0000   1.0000   0.0000
     0.0000   0.0000   0.0000   0.0000   0.0000   0.0000   0.0000   0.0000
     0.0000   0.0000   0.0000   0.0000   0.0000   0.0000   0.0000   0.0000
     0.0000   0.0000   0.0000   0.0000   0.0000   0.0000   0.0000   0.0000

          k = 0.3333 0.3593-0.0819 (  4535 PWs)   bands (ev):

   -21.1712 -21.1467 -17.1815 -17.0960 -17.0749 -17.0268 -16.9798 -16.9397
   -16.8583 -16.8126  -6.4597  -6.3341  -4.5015  -4.2790  -4.1654  -4.0955
    -4.0284  -3.8764  -3.8419  -3.7845  -3.6383  -3.5803  -3.4805  -3.3743
    -1.1935  -1.1209  -0.8028  -0.7656  -0.6382  -0.5951  -0.5466  -0.4870
    -0.3020  -0.1376   1.1494   1.2379   1.3361   1.4061   1.5380   1.5624
     8.8213   9.3350   9.4459   9.7066   9.8513  10.0947  10.5323  10.5986
    10.7185  10.9555  11.0572  11.1880  11.3157  11.3812  11.5333  11.6703
    11.7790  11.9881  12.2412  12.2511  13.0522  13.6288  13.8991  14.3693

     occupation numbers 
     1.0000   1.0000   1.0000   1.0000   1.0000   1.0000   1.0000   1.0000
     1.0000   1.0000   1.0000   1.0000   1.0000   1.0000   1.0000   1.0000
     1.0000   1.0000   1.0000   1.0000   1.0000   1.0000   1.0000   1.0000
     1.0000   1.0000   1.0000   1.0000   1.0000   1.0000   1.0000   1.0000
     1.0000   1.0000   1.0000   1.0000   1.0000   1.0000   1.0000   0.0000
     0.0000   0.0000   0.0000   0.0000   0.0000   0.0000   0.0000   0.0000
     0.0000   0.0000   0.0000   0.0000   0.0000   0.0000   0.0000   0.0000
     0.0000   0.0000   0.0000   0.0000   0.0000   0.0000   0.0000   0.0000

          k = 0.3333 0.3593 0.1936 (  4533 PWs)   bands (ev):

   -21.1675 -21.1500 -17.1673 -17.0914 -17.0779 -17.0597 -16.9512 -16.9470
   -16.8541 -16.8221  -6.4398  -6.3435  -4.4822  -4.2171  -4.1593  -4.1290
    -3.9629  -3.9110  -3.8612  -3.8190  -3.6196  -3.5896  -3.4799  -3.4500
    -1.1863  -1.1395  -0.8536  -0.7825  -0.7154  -0.5626  -0.5261  -0.4313
    -0.2562  -0.1223   1.1720   1.2639   1.3295   1.4113   1.5221   1.5689
     8.7476   9.1434   9.3931   9.4543   9.9434  10.3167  10.3456  10.7143
    10.7730  10.8188  10.9916  11.2265  11.5259  11.5366  11.6358  11.8141
    11.8318  11.9613  12.2412  12.8173  12.9977  13.2600  13.4449  14.3122

     occupation numbers 
     1.0000   1.0000   1.0000   1.0000   1.0000   1.0000   1.0000   1.0000
     1.0000   1.0000   1.0000   1.0000   1.0000   1.0000   1.0000   1.0000
     1.0000   1.0000   1.0000   1.0000   1.0000   1.0000   1.0000   1.0000
     1.0000   1.0000   1.0000   1.0000   1.0000   1.0000   1.0000   1.0000
     1.0000   1.0000   1.0000   1.0000   1.0000   1.0000   1.0000   0.0000
     0.0000   0.0000   0.0000   0.0000   0.0000   0.0000   0.0000   0.0000
     0.0000   0.0000   0.0000   0.0000   0.0000   0.0000   0.0000   0.0000
     0.0000   0.0000   0.0000   0.0000   0.0000   0.0000   0.0000   0.0000

          k = 0.3333 0.3593-0.3573 (  4532 PWs)   bands (ev):

   -21.1673 -21.1500 -17.1780 -17.1073 -17.0780 -17.0389 -16.9819 -16.9445
   -16.8399 -16.8000  -6.4409  -6.3836  -4.4400  -4.2490  -4.1603  -4.1109
    -4.0593  -3.9324  -3.8221  -3.7980  -3.6695  -3.5200  -3.4648  -3.3447
    -1.2125  -1.1352  -0.8148  -0.7545  -0.7422  -0.5808  -0.5048  -0.4823
    -0.2654  -0.1692   1.1524   1.2595   1.3340   1.4070   1.5278   1.5742
     8.9525   9.3131   9.3504   9.4378   9.9670  10.3202  10.4521  10.5697
    10.6813  10.8824  10.9539  11.0446  11.1719  11.6130  11.7324  11.8244
    11.9496  12.0492  12.2045  12.6413  12.8895  13.0487  13.8567  13.9249

     occupation numbers 
     1.0000   1.0000   1.0000   1.0000   1.0000   1.0000   1.0000   1.0000
     1.0000   1.0000   1.0000   1.0000   1.0000   1.0000   1.0000   1.0000
     1.0000   1.0000   1.0000   1.0000   1.0000   1.0000   1.0000   1.0000
     1.0000   1.0000   1.0000   1.0000   1.0000   1.0000   1.0000   1.0000
     1.0000   1.0000   1.0000   1.0000   1.0000   1.0000   1.0000   0.0000
     0.0000   0.0000   0.0000   0.0000   0.0000   0.0000   0.0000   0.0000
     0.0000   0.0000   0.0000   0.0000   0.0000   0.0000   0.0000   0.0000
     0.0000   0.0000   0.0000   0.0000   0.0000   0.0000   0.0000   0.0000

     highest occupied, lowest unoccupied level (ev):     1.5721    1.5624

!    total energy              =    -507.22712739 Ry
     estimated scf accuracy    <       0.00000018 Ry

     The total energy is the sum of the following terms:
     one-electron contribution =    -217.72362157 Ry
     hartree contribution      =     145.07175492 Ry
     xc contribution           =    -137.28507961 Ry
     ewald contribution        =    -221.02753115 Ry
     one-center paw contrib.   =     -76.26264999 Ry
      -> PAW hartree energy AE =       0.00000000 Ry
      -> PAW hartree energy PS =       0.00000000 Ry
      -> PAW xc energy AE      =       0.00000000 Ry
      -> PAW xc energy PS      =       0.00000000 Ry
      -> total E_H with PAW    =     145.07175492 Ry
      -> total E_XC with PAW   =    -137.28507961 Ry

     convergence has been achieved in  12 iterations

     Writing all to output data dir calculations_bands_val/myprefix.save/
 
     init_run     :      7.15s CPU      2.41s WALL (       1 calls)
     electrons    :     35.72s CPU      9.52s WALL (       1 calls)

     Called by init_run:
     wfcinit      :      0.91s CPU      0.24s WALL (       1 calls)
     wfcinit:atom :      0.01s CPU      0.00s WALL (       5 calls)
     wfcinit:wfcr :      0.83s CPU      0.22s WALL (       5 calls)
     potinit      :      1.83s CPU      0.49s WALL (       1 calls)
     hinit0       :      4.03s CPU      1.57s WALL (       1 calls)

     Called by electrons:
     c_bands      :     24.73s CPU      6.45s WALL (      12 calls)
     sum_band     :      6.21s CPU      1.76s WALL (      12 calls)
     v_of_rho     :      0.87s CPU      0.23s WALL (      13 calls)
     v_h          :      0.07s CPU      0.02s WALL (      13 calls)
     v_xc         :      0.80s CPU      0.21s WALL (      13 calls)
     newd         :      2.25s CPU      0.64s WALL (      13 calls)
     PAW_pot      :      1.60s CPU      0.42s WALL (      13 calls)
     mix_rho      :      0.23s CPU      0.06s WALL (      12 calls)

     Called by c_bands:
     init_us_2    :      0.21s CPU      0.06s WALL (     125 calls)
     init_us_2:cp :      0.21s CPU      0.06s WALL (     125 calls)
     cegterg      :     23.30s CPU      6.07s WALL (      60 calls)

     Called by sum_band:
     sum_band:wei :      0.01s CPU      0.00s WALL (      12 calls)
     sum_band:loo :      3.46s CPU      0.89s WALL (      12 calls)
     sum_band:buf :      0.06s CPU      0.02s WALL (      60 calls)
     sum_band:ini :      0.10s CPU      0.03s WALL (      60 calls)
     sum_band:cal :      0.18s CPU      0.05s WALL (      60 calls)
     sum_band:bec :      0.04s CPU      0.01s WALL (      60 calls)
     addusdens    :      2.22s CPU      0.73s WALL (      12 calls)
     addusd:skk   :      0.01s CPU      0.00s WALL (      36 calls)
     addusd:dgemm :      0.53s CPU      0.29s WALL (      36 calls)
     addusd:qvan2 :      1.52s CPU      0.39s WALL (      36 calls)

     Called by *egterg:
     cdiaghg      :      4.35s CPU      1.14s WALL (     251 calls)
     cegterg:over :      1.05s CPU      0.27s WALL (     191 calls)
     cegterg:upda :      0.49s CPU      0.13s WALL (     191 calls)
     cegterg:last :      0.81s CPU      0.21s WALL (     111 calls)
     cdiaghg:chol :      0.30s CPU      0.08s WALL (     251 calls)
     cdiaghg:inve :      0.06s CPU      0.02s WALL (     251 calls)
     cdiaghg:para :      0.67s CPU      0.17s WALL (     502 calls)
     h_psi        :     16.40s CPU      4.27s WALL (     256 calls)
     s_psi        :      0.35s CPU      0.09s WALL (     256 calls)
     g_psi        :      0.03s CPU      0.01s WALL (     191 calls)

     Called by h_psi:
     h_psi:calbec :      0.65s CPU      0.17s WALL (     256 calls)
     vloc_psi     :     15.24s CPU      3.96s WALL (     256 calls)
     add_vuspsi   :      0.44s CPU      0.12s WALL (     256 calls)

     General routines
     calbec       :      0.82s CPU      0.22s WALL (     316 calls)
     fft          :      1.87s CPU      0.55s WALL (     167 calls)
     ffts         :      0.90s CPU      0.25s WALL (      25 calls)
     fftw         :     15.18s CPU      3.95s WALL (   21932 calls)
     interpolate  :      0.94s CPU      0.27s WALL (      13 calls)
 
     Parallel routines

     PAW routines
     PAW_pot      :      1.60s CPU      0.42s WALL (      13 calls)
     PAW_symme    :      0.03s CPU      0.01s WALL (      25 calls)
 
     PWSCF        :     43.99s CPU     12.48s WALL

 
   This run was terminated on:  15:21:33   4Jun2023            

=------------------------------------------------------------------------------=
   JOB DONE.
=------------------------------------------------------------------------------=
