
     Program PWSCF v.7.0 starts on  4Jun2023 at 11:46:24 

     This program is part of the open-source Quantum ESPRESSO suite
     for quantum simulation of materials; please cite
         "P. Giannozzi et al., J. Phys.:Condens. Matter 21 395502 (2009);
         "P. Giannozzi et al., J. Phys.:Condens. Matter 29 465901 (2017);
         "P. Giannozzi et al., J. Chem. Phys. 152 154105 (2020);
          URL http://www.quantum-espresso.org", 
     in publications or presentations arising from this work. More details at
     http://www.quantum-espresso.org/quote

     Parallel version (MPI & OpenMP), running on      32 processor cores
     Number of MPI processes:                 8
     Threads/MPI process:                     4

     MPI processes distributed on     1 nodes
     K-points division:     npool     =       2
     R & G space division:  proc/nbgrp/npool/nimage =       4
     142137 MiB available memory on the printing compute node when the environment starts
 
     Reading input from espresso_281.pwi
Warning: card &CELL ignored
Warning: card / ignored

     Current dimensions of program PWSCF are:
     Max number of different atomic species (ntypx) = 10
     Max number of k-points (npk) =  40000
     Max angular momentum in pseudopotentials (lmaxx) =  4
     file Ba.pbe-spn-kjpaw_psl.1.0.0.UPF: wavefunction(s)  5S 6S renormalized
     file O.pbe-n-kjpaw_psl.0.1.UPF: wavefunction(s)  2P renormalized
     Message from routine setup:
     using ibrav=0 with symmetry is DISCOURAGED, use correct ibrav instead

     Subspace diagonalization in iterative solution of the eigenvalue problem:
     one sub-group per band group will be used
     scalapack distributed-memory algorithm (size of sub-group:  2*  2 procs)

 
     Parallelization info
     --------------------
     sticks:   dense  smooth     PW     G-vecs:    dense   smooth      PW
     Min         466     234     68                19542     6914    1062
     Max         467     235     69                19545     6915    1064
     Sum        1865     937    273                78173    27659    4251
 
     Using Slab Decomposition
 


     bravais-lattice index     =            0
     lattice parameter (alat)  =      10.9048  a.u.
     unit-cell volume          =    1246.0057 (a.u.)^3
     number of atoms/cell      =           10
     number of atomic types    =            3
     number of electrons       =        68.00
     number of Kohn-Sham states=           64
     kinetic-energy cutoff     =      30.0000  Ry
     charge density cutoff     =     240.0000  Ry
     scf convergence threshold =      1.0E-06
     mixing beta               =       0.7000
     number of iterations used =            8  plain     mixing
     Exchange-correlation= SLA  PW   PBX  PBC
                           (   1   4   3   4   0   0   0)

     celldm(1)=  10.904795  celldm(2)=   0.000000  celldm(3)=   0.000000
     celldm(4)=   0.000000  celldm(5)=   0.000000  celldm(6)=   0.000000

     crystal axes: (cart. coord. in units of alat)
               a(1) = (   1.000000   0.000000   0.000000 )  
               a(2) = (   0.000000   0.825131   0.000000 )  
               a(3) = (   0.000000   0.376499   1.164513 )  

     reciprocal axes: (cart. coord. in units 2 pi/alat)
               b(1) = (  1.000000  0.000000  0.000000 )  
               b(2) = (  0.000000  1.211928 -0.391829 )  
               b(3) = (  0.000000  0.000000  0.858728 )  


     PseudoPot. # 1 for Ba read from file:
     /home/pragov/projects/rrg-bengioy-ad/pragov/crystal_structure_design/SSSP/Ba.pbe-spn-kjpaw_psl.1.0.0.UPF
     MD5 check sum: c432291d3e53af55f19d5e8866385beb
     Pseudo is Projector augmented-wave + core cor, Zval = 10.0
     Generated using "atomic" code by A. Dal Corso  v.5.1
     Shape of augmentation charge: PSQ
     Using radial grid of 1251 points,  7 beta functions with: 
                l(1) =   0
                l(2) =   0
                l(3) =   0
                l(4) =   1
                l(5) =   1
                l(6) =   2
                l(7) =   2
     Q(r) pseudized with 0 coefficients 


     PseudoPot. # 2 for Se read from file:
     /home/pragov/projects/rrg-bengioy-ad/pragov/crystal_structure_design/SSSP/Se_pbe_v1.uspp.F.UPF
     MD5 check sum: 1b3568f3a8ae88f9a2a0ad0698632c85
     Pseudo is Ultrasoft + core correction, Zval =  6.0
     Generated by new atomic code, or converted to UPF format
     Using radial grid of  877 points,  6 beta functions with: 
                l(1) =   0
                l(2) =   0
                l(3) =   1
                l(4) =   1
                l(5) =   2
                l(6) =   2
     Q(r) pseudized with  8 coefficients,  rinner =    1.300   1.300   1.300
                                                       1.300   1.300

     PseudoPot. # 3 for O  read from file:
     /home/pragov/projects/rrg-bengioy-ad/pragov/crystal_structure_design/SSSP/O.pbe-n-kjpaw_psl.0.1.UPF
     MD5 check sum: 0234752ac141de4415c5fc33072bef88
     Pseudo is Projector augmented-wave + core cor, Zval =  6.0
     Generated using "atomic" code by A. Dal Corso  v.5.0.99 svn rev. 10869
     Shape of augmentation charge: BESSEL
     Using radial grid of 1095 points,  4 beta functions with: 
                l(1) =   0
                l(2) =   0
                l(3) =   1
                l(4) =   1
     Q(r) pseudized with 0 coefficients 


     atomic species   valence    mass     pseudopotential
        Ba            10.00   137.32700     Ba( 1.00)
        Se             6.00    78.97100     Se( 1.00)
        O              6.00    15.99900     O ( 1.00)

      4 Sym. Ops., with inversion, found ( 2 have fractional translation)


                                    s                        frac. trans.

      isym =  1     identity                                     

 cryst.   s( 1) = (     1          0          0      )
                  (     0          1          0      )
                  (     0          0          1      )

 cart.    s( 1) = (  1.0000000  0.0000000  0.0000000 )
                  (  0.0000000  1.0000000  0.0000000 )
                  (  0.0000000  0.0000000  1.0000000 )


      isym =  2     180 deg rotation - cart. axis [1,0,0]        

 cryst.   s( 2) = (     1          0          0      )    f =(  0.5000000 )
                  (     0         -1          0      )       ( -0.0000000 )
                  (     0          0         -1      )       (  0.0000000 )

 cart.    s( 2) = (  1.0000000  0.0000000  0.0000000 )    f =(  0.5000000 )
                  (  0.0000000 -1.0000000 -0.0000000 )       ( -0.0000000 )
                  (  0.0000000  0.0000000 -1.0000000 )       (  0.0000000 )


      isym =  3     inversion                                    

 cryst.   s( 3) = (    -1          0          0      )
                  (     0         -1          0      )
                  (     0          0         -1      )

 cart.    s( 3) = ( -1.0000000  0.0000000  0.0000000 )
                  (  0.0000000 -1.0000000 -0.0000000 )
                  (  0.0000000  0.0000000 -1.0000000 )


      isym =  4     inv. 180 deg rotation - cart. axis [1,0,0]   

 cryst.   s( 4) = (    -1          0          0      )    f =(  0.5000000 )
                  (     0          1          0      )       (  0.0000000 )
                  (     0          0          1      )       (  0.0000000 )

 cart.    s( 4) = ( -1.0000000  0.0000000  0.0000000 )    f =(  0.5000000 )
                  (  0.0000000  1.0000000  0.0000000 )       (  0.0000000 )
                  (  0.0000000  0.0000000  1.0000000 )       (  0.0000000 )


   Cartesian axes

     site n.     atom                  positions (alat units)
         1           Ba  tau(   1) = (   0.2500000   0.8052290   0.8212996  )
         2           Ba  tau(   2) = (   0.7500000   0.3964012   0.3432134  )
         3           Se  tau(   3) = (   0.7500000   0.3683377   0.9740430  )
         4           Se  tau(   4) = (   0.2500000   0.8332925   0.1904701  )
         5           O   tau(   5) = (   0.0174590   0.8046463   0.3778961  )
         6           O   tau(   6) = (   0.5174590   0.3969839   0.7866169  )
         7           O   tau(   7) = (   0.9825410   0.3969839   0.7866169  )
         8           O   tau(   8) = (   0.4825410   0.8046463   0.3778961  )
         9           O   tau(   9) = (   0.2500000   0.3017171   0.1325821  )
        10           O   tau(  10) = (   0.7500000   0.8999131   1.0319309  )

   Crystallographic axes

     site n.     atom                  positions (cryst. coord.)
         1           Ba  tau(   1) = (  0.2500000  0.6540710  0.7052730  )
         2           Ba  tau(   2) = (  0.7500000  0.3459290  0.2947270  )
         3           Se  tau(   3) = (  0.7500000  0.0647410  0.8364380  )
         4           Se  tau(   4) = (  0.2500000  0.9352590  0.1635620  )
         5           O   tau(   5) = (  0.0174590  0.8271030  0.3245100  )
         6           O   tau(   6) = (  0.5174590  0.1728970  0.6754900  )
         7           O   tau(   7) = (  0.9825410  0.1728970  0.6754900  )
         8           O   tau(   8) = (  0.4825410  0.8271030  0.3245100  )
         9           O   tau(   9) = (  0.2500000  0.3137100  0.1138520  )
        10           O   tau(  10) = (  0.7500000  0.6862900  0.8861480  )

     number of k points=    10
                       cart. coord. in units 2pi/alat
        k(    1) = (   0.0000000   0.0000000   0.0000000), wk =   0.0740741
        k(    2) = (   0.0000000   0.0000000   0.2862427), wk =   0.1481481
        k(    3) = (   0.0000000   0.4039760  -0.1306095), wk =   0.1481481
        k(    4) = (   0.0000000   0.4039760   0.1556332), wk =   0.1481481
        k(    5) = (   0.0000000   0.4039760  -0.4168522), wk =   0.1481481
        k(    6) = (   0.3333333   0.0000000   0.0000000), wk =   0.1481481
        k(    7) = (   0.3333333   0.0000000   0.2862427), wk =   0.2962963
        k(    8) = (   0.3333333   0.4039760  -0.1306095), wk =   0.2962963
        k(    9) = (   0.3333333   0.4039760   0.1556332), wk =   0.2962963
        k(   10) = (   0.3333333   0.4039760  -0.4168522), wk =   0.2962963

                       cryst. coord.
        k(    1) = (   0.0000000   0.0000000   0.0000000), wk =   0.0740741
        k(    2) = (   0.0000000   0.0000000   0.3333333), wk =   0.1481481
        k(    3) = (   0.0000000   0.3333333   0.0000000), wk =   0.1481481
        k(    4) = (   0.0000000   0.3333333   0.3333333), wk =   0.1481481
        k(    5) = (   0.0000000   0.3333333  -0.3333333), wk =   0.1481481
        k(    6) = (   0.3333333   0.0000000   0.0000000), wk =   0.1481481
        k(    7) = (   0.3333333   0.0000000   0.3333333), wk =   0.2962963
        k(    8) = (   0.3333333   0.3333333   0.0000000), wk =   0.2962963
        k(    9) = (   0.3333333   0.3333333   0.3333333), wk =   0.2962963
        k(   10) = (   0.3333333   0.3333333  -0.3333333), wk =   0.2962963

     Dense  grid:    78173 G-vectors     FFT dimensions: (  54,  45,  72)

     Smooth grid:    27659 G-vectors     FFT dimensions: (  40,  32,  48)

     Dynamical RAM for                 wfc:       0.84 MB

     Dynamical RAM for     wfc (w. buffer):       5.06 MB

     Dynamical RAM for           str. fact:       0.89 MB

     Dynamical RAM for           local pot:       0.00 MB

     Dynamical RAM for          nlocal pot:       1.61 MB

     Dynamical RAM for                qrad:       4.98 MB

     Dynamical RAM for          rho,v,vnew:       1.90 MB

     Dynamical RAM for               rhoin:       0.63 MB

     Dynamical RAM for            rho*nmix:       4.77 MB

     Dynamical RAM for           G-vectors:       1.17 MB

     Dynamical RAM for          h,s,v(r/c):       0.19 MB

     Dynamical RAM for          <psi|beta>:       0.12 MB

     Dynamical RAM for                 psi:       1.69 MB

     Dynamical RAM for                hpsi:       1.69 MB

     Dynamical RAM for                spsi:       1.69 MB

     Dynamical RAM for      wfcinit/wfcrot:       1.78 MB

     Dynamical RAM for           addusdens:      31.61 MB

     Estimated static dynamical RAM per process >      19.10 MB

     Estimated max dynamical RAM per process >      55.48 MB

     Estimated total dynamical RAM >     424.76 MB

     Check: negative core charge=   -0.000008

     Initial potential from superposition of free atoms

     starting charge      67.9658, renormalised to      68.0000
     Starting wfcs are   42 randomized atomic wfcs +   22 random wfcs
     Checking if some PAW data can be deallocated... 
       PAW data deallocated on    7 nodes for type:  1
       PAW data deallocated on    2 nodes for type:  3

     total cpu time spent up to now is        3.1 secs

     Self-consistent Calculation

     iteration #  1     ecut=    30.00 Ry     beta= 0.70
     Davidson diagonalization with overlap

---- Real-time Memory Report at c_bands before calling an iterative solver
           216 MiB given to the printing process from OS
             0 MiB allocation reported by mallinfo(arena+hblkhd)
        141390 MiB available memory on the node where the printing process lives
------------------
     ethr =  1.00E-02,  avg # of iterations =  6.6

     negative rho (up, down):  2.472E-04 0.000E+00

     total cpu time spent up to now is        4.2 secs

     total energy              =   -1208.38122780 Ry
     estimated scf accuracy    <       2.70982286 Ry

     iteration #  2     ecut=    30.00 Ry     beta= 0.70
     Davidson diagonalization with overlap

---- Real-time Memory Report at c_bands before calling an iterative solver
           265 MiB given to the printing process from OS
             0 MiB allocation reported by mallinfo(arena+hblkhd)
        140989 MiB available memory on the node where the printing process lives
------------------
     ethr =  3.99E-03,  avg # of iterations =  2.0

     negative rho (up, down):  1.920E-05 0.000E+00

     total cpu time spent up to now is        4.9 secs

     total energy              =   -1208.50325765 Ry
     estimated scf accuracy    <       5.93635531 Ry

     iteration #  3     ecut=    30.00 Ry     beta= 0.70
     Davidson diagonalization with overlap

---- Real-time Memory Report at c_bands before calling an iterative solver
           266 MiB given to the printing process from OS
             0 MiB allocation reported by mallinfo(arena+hblkhd)
        140906 MiB available memory on the node where the printing process lives
------------------
     ethr =  3.99E-03,  avg # of iterations =  2.0

     total cpu time spent up to now is        5.7 secs

     total energy              =   -1209.69317229 Ry
     estimated scf accuracy    <       0.18591378 Ry

     iteration #  4     ecut=    30.00 Ry     beta= 0.70
     Davidson diagonalization with overlap

---- Real-time Memory Report at c_bands before calling an iterative solver
           268 MiB given to the printing process from OS
             0 MiB allocation reported by mallinfo(arena+hblkhd)
        140800 MiB available memory on the node where the printing process lives
------------------
     ethr =  2.73E-04,  avg # of iterations =  2.0

     total cpu time spent up to now is        6.4 secs

     total energy              =   -1209.72316286 Ry
     estimated scf accuracy    <       0.04621659 Ry

     iteration #  5     ecut=    30.00 Ry     beta= 0.70
     Davidson diagonalization with overlap

---- Real-time Memory Report at c_bands before calling an iterative solver
           268 MiB given to the printing process from OS
             0 MiB allocation reported by mallinfo(arena+hblkhd)
        140736 MiB available memory on the node where the printing process lives
------------------
     ethr =  6.80E-05,  avg # of iterations =  4.7

     total cpu time spent up to now is        7.1 secs

     total energy              =   -1209.73044995 Ry
     estimated scf accuracy    <       0.00679924 Ry

     iteration #  6     ecut=    30.00 Ry     beta= 0.70
     Davidson diagonalization with overlap

---- Real-time Memory Report at c_bands before calling an iterative solver
           268 MiB given to the printing process from OS
             0 MiB allocation reported by mallinfo(arena+hblkhd)
        140815 MiB available memory on the node where the printing process lives
------------------
     ethr =  1.00E-05,  avg # of iterations =  6.3

     total cpu time spent up to now is        7.9 secs

     total energy              =   -1209.73116947 Ry
     estimated scf accuracy    <       0.00147151 Ry

     iteration #  7     ecut=    30.00 Ry     beta= 0.70
     Davidson diagonalization with overlap

---- Real-time Memory Report at c_bands before calling an iterative solver
           271 MiB given to the printing process from OS
             0 MiB allocation reported by mallinfo(arena+hblkhd)
        140715 MiB available memory on the node where the printing process lives
------------------
     ethr =  2.16E-06,  avg # of iterations =  3.1

     total cpu time spent up to now is        8.6 secs

     total energy              =   -1209.73124697 Ry
     estimated scf accuracy    <       0.00011492 Ry

     iteration #  8     ecut=    30.00 Ry     beta= 0.70
     Davidson diagonalization with overlap

---- Real-time Memory Report at c_bands before calling an iterative solver
           273 MiB given to the printing process from OS
             0 MiB allocation reported by mallinfo(arena+hblkhd)
        141198 MiB available memory on the node where the printing process lives
------------------
     ethr =  1.69E-07,  avg # of iterations =  5.0

     total cpu time spent up to now is        9.4 secs

     total energy              =   -1209.73129651 Ry
     estimated scf accuracy    <       0.00009487 Ry

     iteration #  9     ecut=    30.00 Ry     beta= 0.70
     Davidson diagonalization with overlap

---- Real-time Memory Report at c_bands before calling an iterative solver
           273 MiB given to the printing process from OS
             0 MiB allocation reported by mallinfo(arena+hblkhd)
        141165 MiB available memory on the node where the printing process lives
------------------
     ethr =  1.40E-07,  avg # of iterations =  1.0

     total cpu time spent up to now is       10.1 secs

     total energy              =   -1209.73129661 Ry
     estimated scf accuracy    <       0.00002284 Ry

     iteration # 10     ecut=    30.00 Ry     beta= 0.70
     Davidson diagonalization with overlap

---- Real-time Memory Report at c_bands before calling an iterative solver
           274 MiB given to the printing process from OS
             0 MiB allocation reported by mallinfo(arena+hblkhd)
        141138 MiB available memory on the node where the printing process lives
------------------
     ethr =  3.36E-08,  avg # of iterations =  1.5

     total cpu time spent up to now is       10.7 secs

     total energy              =   -1209.73129742 Ry
     estimated scf accuracy    <       0.00000150 Ry

     iteration # 11     ecut=    30.00 Ry     beta= 0.70
     Davidson diagonalization with overlap

---- Real-time Memory Report at c_bands before calling an iterative solver
           274 MiB given to the printing process from OS
             0 MiB allocation reported by mallinfo(arena+hblkhd)
        141110 MiB available memory on the node where the printing process lives
------------------
     ethr =  2.21E-09,  avg # of iterations =  2.7

     total cpu time spent up to now is       11.4 secs

     End of self-consistent calculation

          k = 0.0000 0.0000 0.0000 (  3471 PWs)   bands (ev):

   -19.9621 -19.9136 -14.5151 -14.4544 -12.0372 -11.9275 -11.8990 -11.8777
    -5.3161  -5.1982  -5.1257  -5.0410  -5.0377  -5.0225  -4.6005  -4.5609
     0.1187   0.1857   0.2102   0.5661   0.8883   1.3115   3.1515   3.1866
     3.4085   3.4190   3.8964   4.0246   4.3839   4.5264   4.5440   4.5734
     4.6898   4.7758   9.5606  10.1928  10.4479  11.3800  11.4554  11.6965
    11.7750  12.1122  12.2967  12.4292  13.0253  13.0345  13.3542  13.7757
    13.8997  14.1546  14.4164  15.2292  16.1483  16.7738  16.9859  17.0939
    17.4509  18.0322  18.7803  18.9436  19.1432  19.1528  19.8910  20.4534

     occupation numbers 
     1.0000   1.0000   1.0000   1.0000   1.0000   1.0000   1.0000   1.0000
     1.0000   1.0000   1.0000   1.0000   1.0000   1.0000   1.0000   1.0000
     1.0000   1.0000   1.0000   1.0000   1.0000   1.0000   1.0000   1.0000
     1.0000   1.0000   1.0000   1.0000   1.0000   1.0000   1.0000   1.0000
     1.0000   1.0000   0.0000   0.0000   0.0000   0.0000   0.0000   0.0000
     0.0000   0.0000   0.0000   0.0000   0.0000   0.0000   0.0000   0.0000
     0.0000   0.0000   0.0000   0.0000   0.0000   0.0000   0.0000   0.0000
     0.0000   0.0000   0.0000   0.0000   0.0000   0.0000   0.0000   0.0000

          k = 0.0000 0.0000 0.2862 (  3476 PWs)   bands (ev):

   -19.9543 -19.9201 -14.5392 -14.4585 -12.0208 -11.9157 -11.8875 -11.8634
    -5.4176  -5.2307  -5.1503  -5.0887  -5.0791  -5.0078  -4.5529  -4.3891
     0.0998   0.2505   0.3710   0.4158   0.7444   1.2324   3.1081   3.2363
     3.4332   3.5758   3.9954   4.1303   4.1812   4.4218   4.5300   4.5371
     4.6281   4.9213   9.6973  10.1373  10.3688  11.1852  11.5466  11.6270
    11.9498  12.1640  12.5401  12.7823  12.9194  13.1632  13.4134  13.5014
    13.8762  14.1766  14.3570  15.0422  16.0217  16.2815  16.9389  16.9988
    17.6963  18.4221  18.6745  19.0818  19.3612  19.7495  19.8100  20.4378

     occupation numbers 
     1.0000   1.0000   1.0000   1.0000   1.0000   1.0000   1.0000   1.0000
     1.0000   1.0000   1.0000   1.0000   1.0000   1.0000   1.0000   1.0000
     1.0000   1.0000   1.0000   1.0000   1.0000   1.0000   1.0000   1.0000
     1.0000   1.0000   1.0000   1.0000   1.0000   1.0000   1.0000   1.0000
     1.0000   1.0000   0.0000   0.0000   0.0000   0.0000   0.0000   0.0000
     0.0000   0.0000   0.0000   0.0000   0.0000   0.0000   0.0000   0.0000
     0.0000   0.0000   0.0000   0.0000   0.0000   0.0000   0.0000   0.0000
     0.0000   0.0000   0.0000   0.0000   0.0000   0.0000   0.0000   0.0000

          k = 0.0000 0.4040-0.1306 (  3457 PWs)   bands (ev):

   -19.9366 -19.9118 -14.5219 -14.4479 -11.9840 -11.9711 -11.9122 -11.9074
    -5.7640  -5.5802  -5.2073  -5.1854  -5.1639  -5.1320  -4.3455  -4.0757
     0.3822   0.4422   0.7292   0.8594   0.9798   1.2294   3.0546   3.3728
     3.4687   3.5105   3.9618   4.0820   4.2817   4.4190   4.5410   4.7504
     4.8159   4.9905   9.3504   9.9940  10.1787  10.3611  10.9149  11.7116
    11.8985  12.4019  12.4389  12.5628  12.8006  13.0530  13.5352  13.5847
    13.6684  13.7440  14.2962  15.0397  16.2846  16.7615  17.1150  17.6028
    17.7403  18.4045  18.4620  18.9671  19.6306  19.8968  20.1055  20.4343

     occupation numbers 
     1.0000   1.0000   1.0000   1.0000   1.0000   1.0000   1.0000   1.0000
     1.0000   1.0000   1.0000   1.0000   1.0000   1.0000   1.0000   1.0000
     1.0000   1.0000   1.0000   1.0000   1.0000   1.0000   1.0000   1.0000
     1.0000   1.0000   1.0000   1.0000   1.0000   1.0000   1.0000   1.0000
     1.0000   1.0000   0.0000   0.0000   0.0000   0.0000   0.0000   0.0000
     0.0000   0.0000   0.0000   0.0000   0.0000   0.0000   0.0000   0.0000
     0.0000   0.0000   0.0000   0.0000   0.0000   0.0000   0.0000   0.0000
     0.0000   0.0000   0.0000   0.0000   0.0000   0.0000   0.0000   0.0000

          k = 0.0000 0.4040 0.1556 (  3462 PWs)   bands (ev):

   -19.9370 -19.9121 -14.5166 -14.4326 -12.0079 -11.9842 -11.9215 -11.9121
    -5.6228  -5.4995  -5.1706  -5.1640  -5.1478  -5.0686  -4.5004  -4.3067
     0.3931   0.3998   0.7016   0.8314   1.0909   1.3684   3.0300   3.2606
     3.3502   3.6496   4.0126   4.1043   4.1767   4.4023   4.5812   4.7069
     4.7388   5.1288   9.3696   9.8775  10.1525  10.5825  10.8784  11.0877
    11.4139  12.1684  12.6871  12.8227  12.9913  13.2773  13.5579  13.6151
    13.6748  14.3479  14.3689  15.3668  16.1816  16.6183  17.2688  17.6851
    17.7978  18.2550  18.6015  18.9292  19.0187  19.8146  19.9660  20.5562

     occupation numbers 
     1.0000   1.0000   1.0000   1.0000   1.0000   1.0000   1.0000   1.0000
     1.0000   1.0000   1.0000   1.0000   1.0000   1.0000   1.0000   1.0000
     1.0000   1.0000   1.0000   1.0000   1.0000   1.0000   1.0000   1.0000
     1.0000   1.0000   1.0000   1.0000   1.0000   1.0000   1.0000   1.0000
     1.0000   1.0000   0.0000   0.0000   0.0000   0.0000   0.0000   0.0000
     0.0000   0.0000   0.0000   0.0000   0.0000   0.0000   0.0000   0.0000
     0.0000   0.0000   0.0000   0.0000   0.0000   0.0000   0.0000   0.0000
     0.0000   0.0000   0.0000   0.0000   0.0000   0.0000   0.0000   0.0000

          k = 0.0000 0.4040-0.4169 (  3459 PWs)   bands (ev):

   -19.9291 -19.9189 -14.5311 -14.4426 -11.9785 -11.9660 -11.9304 -11.8982
    -5.7003  -5.5871  -5.2036  -5.1966  -5.1253  -5.1137  -4.4146  -4.1363
     0.3773   0.5158   0.7510   0.7653   0.9734   1.2928   3.0302   3.2424
     3.3137   3.5789   4.1443   4.2302   4.2973   4.3404   4.4727   4.6951
     4.8112   5.0568   9.4780   9.8499  10.1108  10.4844  10.8719  11.1485
    11.8891  12.2610  12.7849  12.7983  12.9129  13.3169  13.4529  13.5371
    13.6933  14.0057  14.5227  15.0914  15.9450  16.9661  17.4256  17.5450
    17.7874  17.9219  18.1987  18.8612  19.0348  19.3298  19.9839  20.2219

     occupation numbers 
     1.0000   1.0000   1.0000   1.0000   1.0000   1.0000   1.0000   1.0000
     1.0000   1.0000   1.0000   1.0000   1.0000   1.0000   1.0000   1.0000
     1.0000   1.0000   1.0000   1.0000   1.0000   1.0000   1.0000   1.0000
     1.0000   1.0000   1.0000   1.0000   1.0000   1.0000   1.0000   1.0000
     1.0000   1.0000   0.0000   0.0000   0.0000   0.0000   0.0000   0.0000
     0.0000   0.0000   0.0000   0.0000   0.0000   0.0000   0.0000   0.0000
     0.0000   0.0000   0.0000   0.0000   0.0000   0.0000   0.0000   0.0000
     0.0000   0.0000   0.0000   0.0000   0.0000   0.0000   0.0000   0.0000

          k = 0.3333 0.0000 0.0000 (  3449 PWs)   bands (ev):

   -19.9477 -19.9234 -14.5136 -14.4837 -12.0112 -11.9468 -11.8932 -11.8722
    -5.3813  -5.2798  -5.1564  -5.1512  -5.1391  -5.0604  -4.3125  -4.2786
     0.1717   0.2057   0.2404   0.5682   0.8074   1.3154   3.2257   3.3612
     3.3869   3.5544   3.8423   3.8909   4.1092   4.1184   4.4409   4.4950
     4.7834   4.7847   9.6567  10.6126  11.2108  11.3961  11.7650  11.8879
    11.9114  12.2734  12.2921  12.4705  12.6357  12.6830  13.3590  13.8125
    13.9669  13.9989  14.1611  14.8526  15.4609  15.9653  16.7978  16.8819
    18.1216  18.2292  18.5571  18.6260  19.4807  19.4998  20.0282  20.3091

     occupation numbers 
     1.0000   1.0000   1.0000   1.0000   1.0000   1.0000   1.0000   1.0000
     1.0000   1.0000   1.0000   1.0000   1.0000   1.0000   1.0000   1.0000
     1.0000   1.0000   1.0000   1.0000   1.0000   1.0000   1.0000   1.0000
     1.0000   1.0000   1.0000   1.0000   1.0000   1.0000   1.0000   1.0000
     1.0000   1.0000   0.0000   0.0000   0.0000   0.0000   0.0000   0.0000
     0.0000   0.0000   0.0000   0.0000   0.0000   0.0000   0.0000   0.0000
     0.0000   0.0000   0.0000   0.0000   0.0000   0.0000   0.0000   0.0000
     0.0000   0.0000   0.0000   0.0000   0.0000   0.0000   0.0000   0.0000

          k = 0.3333 0.0000 0.2862 (  3448 PWs)   bands (ev):

   -19.9434 -19.9263 -14.5324 -14.4922 -12.0042 -11.9591 -11.8606 -11.8460
    -5.4664  -5.3624  -5.1589  -5.1296  -5.1124  -5.0757  -4.2642  -4.1980
     0.2072   0.2077   0.3041   0.5131   0.6675   1.2514   3.2419   3.3539
     3.3751   3.5325   3.8530   3.9919   4.1458   4.2245   4.3730   4.5297
     4.6553   4.8883   9.6624  10.4223  11.3440  11.3724  11.5753  11.8506
    12.2350  12.4225  12.5843  12.5974  12.7797  12.8923  13.4026  13.4803
    13.9060  14.0474  14.2017  14.7967  14.9562  15.3992  16.9739  17.3856
    17.8402  18.0418  18.2392  18.7897  19.1963  19.8220  20.2497  20.7411

     occupation numbers 
     1.0000   1.0000   1.0000   1.0000   1.0000   1.0000   1.0000   1.0000
     1.0000   1.0000   1.0000   1.0000   1.0000   1.0000   1.0000   1.0000
     1.0000   1.0000   1.0000   1.0000   1.0000   1.0000   1.0000   1.0000
     1.0000   1.0000   1.0000   1.0000   1.0000   1.0000   1.0000   1.0000
     1.0000   1.0000   0.0000   0.0000   0.0000   0.0000   0.0000   0.0000
     0.0000   0.0000   0.0000   0.0000   0.0000   0.0000   0.0000   0.0000
     0.0000   0.0000   0.0000   0.0000   0.0000   0.0000   0.0000   0.0000
     0.0000   0.0000   0.0000   0.0000   0.0000   0.0000   0.0000   0.0000

          k = 0.3333 0.4040-0.1306 (  3469 PWs)   bands (ev):

   -19.9291 -19.9166 -14.4887 -14.4506 -12.0596 -12.0085 -11.9251 -11.8976
    -5.6244  -5.5002  -5.1559  -5.1404  -5.1003  -5.0764  -4.4000  -4.2522
     0.2544   0.4496   0.7009   0.7902   1.0972   1.3573   3.1331   3.1874
     3.3582   3.4884   3.9718   4.0752   4.1829   4.2687   4.4490   4.6051
     4.9521   5.0385   9.5053  10.1340  10.3475  10.6967  11.0420  11.2239
    11.8921  12.1592  12.4752  12.7297  12.8710  12.9257  13.3779  13.4982
    13.8805  14.2774  14.4234  15.3199  15.6221  16.0607  17.3725  17.4859
    18.0723  18.2931  18.5315  18.7699  19.3136  19.6835  20.1964  20.2188

     occupation numbers 
     1.0000   1.0000   1.0000   1.0000   1.0000   1.0000   1.0000   1.0000
     1.0000   1.0000   1.0000   1.0000   1.0000   1.0000   1.0000   1.0000
     1.0000   1.0000   1.0000   1.0000   1.0000   1.0000   1.0000   1.0000
     1.0000   1.0000   1.0000   1.0000   1.0000   1.0000   1.0000   1.0000
     1.0000   1.0000   0.0000   0.0000   0.0000   0.0000   0.0000   0.0000
     0.0000   0.0000   0.0000   0.0000   0.0000   0.0000   0.0000   0.0000
     0.0000   0.0000   0.0000   0.0000   0.0000   0.0000   0.0000   0.0000
     0.0000   0.0000   0.0000   0.0000   0.0000   0.0000   0.0000   0.0000

          k = 0.3333 0.4040 0.1556 (  3450 PWs)   bands (ev):

   -19.9294 -19.9169 -14.4807 -14.4376 -12.0530 -12.0188 -11.9486 -11.9222
    -5.4000  -5.3384  -5.1428  -5.1339  -5.1133  -5.0286  -4.6282  -4.4856
     0.2805   0.4352   0.6789   0.7783   1.1741   1.4250   3.0430   3.2878
     3.3743   3.4492   3.8740   4.1039   4.1796   4.2192   4.5363   4.6131
     4.9645   5.1461   9.3539   9.9058  10.4327  10.6745  10.9396  11.1247
    11.6306  12.1725  12.6346  12.7975  12.8976  13.0747  13.3684  13.5943
    14.0142  14.2658  14.4378  15.5553  15.9351  16.4525  17.2781  17.6289
    18.0624  18.1116  18.4657  18.7112  19.6668  19.7782  20.1324  20.3093

     occupation numbers 
     1.0000   1.0000   1.0000   1.0000   1.0000   1.0000   1.0000   1.0000
     1.0000   1.0000   1.0000   1.0000   1.0000   1.0000   1.0000   1.0000
     1.0000   1.0000   1.0000   1.0000   1.0000   1.0000   1.0000   1.0000
     1.0000   1.0000   1.0000   1.0000   1.0000   1.0000   1.0000   1.0000
     1.0000   1.0000   0.0000   0.0000   0.0000   0.0000   0.0000   0.0000
     0.0000   0.0000   0.0000   0.0000   0.0000   0.0000   0.0000   0.0000
     0.0000   0.0000   0.0000   0.0000   0.0000   0.0000   0.0000   0.0000
     0.0000   0.0000   0.0000   0.0000   0.0000   0.0000   0.0000   0.0000

          k = 0.3333 0.4040-0.4169 (  3460 PWs)   bands (ev):

   -19.9252 -19.9201 -14.4940 -14.4491 -12.0472 -12.0300 -11.9140 -11.8986
    -5.5418  -5.4388  -5.1660  -5.1550  -5.1285  -5.0517  -4.4583  -4.3294
     0.3212   0.4241   0.6532   0.7807   1.0857   1.3858   3.0262   3.2817
     3.3209   3.4831   3.9364   4.0743   4.2783   4.3360   4.4054   4.6324
     4.9226   5.1189   9.4662   9.9876  10.3314  10.7847  10.8284  11.2701
    11.7780  12.2340  12.6580  12.8587  12.9211  13.1916  13.3215  13.3860
    13.9934  14.2281  14.8569  15.0745  16.0380  16.1528  16.9280  17.0553
    17.9309  18.0965  18.1787  18.5680  19.3126  19.8510  20.1121  20.4466

     occupation numbers 
     1.0000   1.0000   1.0000   1.0000   1.0000   1.0000   1.0000   1.0000
     1.0000   1.0000   1.0000   1.0000   1.0000   1.0000   1.0000   1.0000
     1.0000   1.0000   1.0000   1.0000   1.0000   1.0000   1.0000   1.0000
     1.0000   1.0000   1.0000   1.0000   1.0000   1.0000   1.0000   1.0000
     1.0000   1.0000   0.0000   0.0000   0.0000   0.0000   0.0000   0.0000
     0.0000   0.0000   0.0000   0.0000   0.0000   0.0000   0.0000   0.0000
     0.0000   0.0000   0.0000   0.0000   0.0000   0.0000   0.0000   0.0000
     0.0000   0.0000   0.0000   0.0000   0.0000   0.0000   0.0000   0.0000

     highest occupied, lowest unoccupied level (ev):     5.1461    9.3504

!    total energy              =   -1209.73129755 Ry
     estimated scf accuracy    <       0.00000029 Ry

     The total energy is the sum of the following terms:
     one-electron contribution =     -90.81351091 Ry
     hartree contribution      =      84.80147629 Ry
     xc contribution           =    -144.66063644 Ry
     ewald contribution        =    -251.95982293 Ry
     one-center paw contrib.   =    -807.09880356 Ry
      -> PAW hartree energy AE =      57.13101598 Ry
      -> PAW hartree energy PS =     -56.90444779 Ry
      -> PAW xc energy AE      =    -788.41614669 Ry
      -> PAW xc energy PS      =      38.28014160 Ry
      -> total E_H with PAW    =      85.02804447 Ry
      -> total E_XC with PAW   =    -894.79664154 Ry

     convergence has been achieved in  11 iterations

     Writing all to output data dir calculations_bands_val/myprefix.save/
 
     init_run     :      7.99s CPU      2.75s WALL (       1 calls)
     electrons    :     31.32s CPU      8.32s WALL (       1 calls)

     Called by init_run:
     wfcinit      :      0.56s CPU      0.15s WALL (       1 calls)
     wfcinit:atom :      0.00s CPU      0.00s WALL (       5 calls)
     wfcinit:wfcr :      0.53s CPU      0.14s WALL (       5 calls)
     potinit      :      2.64s CPU      0.70s WALL (       1 calls)
     hinit0       :      3.41s CPU      1.20s WALL (       1 calls)

     Called by electrons:
     c_bands      :     17.02s CPU      4.43s WALL (      11 calls)
     sum_band     :      4.29s CPU      1.23s WALL (      11 calls)
     v_of_rho     :      0.65s CPU      0.17s WALL (      12 calls)
     v_h          :      0.05s CPU      0.01s WALL (      12 calls)
     v_xc         :      0.60s CPU      0.16s WALL (      12 calls)
     newd         :      1.70s CPU      0.48s WALL (      12 calls)
     PAW_pot      :      8.10s CPU      2.13s WALL (      12 calls)
     mix_rho      :      0.18s CPU      0.05s WALL (      11 calls)

     Called by c_bands:
     init_us_2    :      0.10s CPU      0.03s WALL (     115 calls)
     init_us_2:cp :      0.09s CPU      0.03s WALL (     115 calls)
     cegterg      :     16.33s CPU      4.24s WALL (      55 calls)

     Called by sum_band:
     sum_band:wei :      0.01s CPU      0.00s WALL (      11 calls)
     sum_band:loo :      2.40s CPU      0.62s WALL (      11 calls)
     sum_band:buf :      0.03s CPU      0.01s WALL (      55 calls)
     sum_band:ini :      0.04s CPU      0.01s WALL (      55 calls)
     sum_band:cal :      0.14s CPU      0.03s WALL (      55 calls)
     sum_band:bec :      0.02s CPU      0.00s WALL (      55 calls)
     addusdens    :      1.21s CPU      0.43s WALL (      11 calls)
     addusd:skk   :      0.01s CPU      0.00s WALL (      33 calls)
     addusd:dgemm :      0.27s CPU      0.19s WALL (      33 calls)
     addusd:qvan2 :      0.83s CPU      0.21s WALL (      33 calls)

     Called by *egterg:
     cdiaghg      :      3.68s CPU      0.96s WALL (     242 calls)
     cegterg:over :      0.63s CPU      0.16s WALL (     187 calls)
     cegterg:upda :      0.35s CPU      0.09s WALL (     187 calls)
     cegterg:last :      0.63s CPU      0.16s WALL (     113 calls)
     cdiaghg:chol :      0.27s CPU      0.07s WALL (     242 calls)
     cdiaghg:inve :      0.06s CPU      0.01s WALL (     242 calls)
     cdiaghg:para :      0.53s CPU      0.14s WALL (     484 calls)
     h_psi        :     10.93s CPU      2.84s WALL (     247 calls)
     s_psi        :      0.20s CPU      0.05s WALL (     247 calls)
     g_psi        :      0.02s CPU      0.01s WALL (     187 calls)

     Called by h_psi:
     h_psi:calbec :      0.42s CPU      0.11s WALL (     247 calls)
     vloc_psi     :     10.21s CPU      2.65s WALL (     247 calls)
     add_vuspsi   :      0.25s CPU      0.07s WALL (     247 calls)

     General routines
     calbec       :      0.55s CPU      0.14s WALL (     302 calls)
     fft          :      1.58s CPU      0.41s WALL (     154 calls)
     ffts         :      1.09s CPU      0.29s WALL (      23 calls)
     fftw         :     11.00s CPU      2.85s WALL (   20664 calls)
     interpolate  :      1.12s CPU      0.30s WALL (      12 calls)
 
     Parallel routines

     PAW routines
     PAW_pot      :      8.10s CPU      2.13s WALL (      12 calls)
     PAW_symme    :      0.04s CPU      0.01s WALL (      23 calls)
 
     PWSCF        :     40.59s CPU     11.69s WALL

 
   This run was terminated on:  11:46:35   4Jun2023            

=------------------------------------------------------------------------------=
   JOB DONE.
=------------------------------------------------------------------------------=
