
     Program PWSCF v.7.0 starts on  4Jun2023 at 12:35:15 

     This program is part of the open-source Quantum ESPRESSO suite
     for quantum simulation of materials; please cite
         "P. Giannozzi et al., J. Phys.:Condens. Matter 21 395502 (2009);
         "P. Giannozzi et al., J. Phys.:Condens. Matter 29 465901 (2017);
         "P. Giannozzi et al., J. Chem. Phys. 152 154105 (2020);
          URL http://www.quantum-espresso.org", 
     in publications or presentations arising from this work. More details at
     http://www.quantum-espresso.org/quote

     Parallel version (MPI & OpenMP), running on      32 processor cores
     Number of MPI processes:                 8
     Threads/MPI process:                     4

     MPI processes distributed on     1 nodes
     K-points division:     npool     =       2
     R & G space division:  proc/nbgrp/npool/nimage =       4
     142279 MiB available memory on the printing compute node when the environment starts
 
     Reading input from espresso_446.pwi
Warning: card &CELL ignored
Warning: card / ignored

     Current dimensions of program PWSCF are:
     Max number of different atomic species (ntypx) = 10
     Max number of k-points (npk) =  40000
     Max angular momentum in pseudopotentials (lmaxx) =  4
     file Mg.pbe-n-kjpaw_psl.0.3.0.UPF: wavefunction(s)  3S renormalized
     Message from routine setup:
     using ibrav=0 with symmetry is DISCOURAGED, use correct ibrav instead

     Subspace diagonalization in iterative solution of the eigenvalue problem:
     one sub-group per band group will be used
     scalapack distributed-memory algorithm (size of sub-group:  2*  2 procs)

 
     Parallelization info
     --------------------
     sticks:   dense  smooth     PW     G-vecs:    dense   smooth      PW
     Min         348     172     49                17454     6140     987
     Max         349     174     50                17463     6142     996
     Sum        1393     691    199                69831    24563    3971
 
     Using Slab Decomposition
 


     bravais-lattice index     =            0
     lattice parameter (alat)  =       9.1979  a.u.
     unit-cell volume          =    1112.3258 (a.u.)^3
     number of atoms/cell      =            5
     number of atomic types    =            3
     number of electrons       =        44.00
     number of Kohn-Sham states=           64
     kinetic-energy cutoff     =      30.0000  Ry
     charge density cutoff     =     240.0000  Ry
     scf convergence threshold =      1.0E-06
     mixing beta               =       0.7000
     number of iterations used =            8  plain     mixing
     Exchange-correlation= SLA  PW   PBE  PBE
                           (   1   4   3   4   0   0   0)

     celldm(1)=   9.197931  celldm(2)=   0.000000  celldm(3)=   0.000000
     celldm(4)=   0.000000  celldm(5)=   0.000000  celldm(6)=   0.000000

     crystal axes: (cart. coord. in units of alat)
               a(1) = (   1.000000   0.000000   0.000000 )  
               a(2) = (  -0.500000   0.866025   0.000000 )  
               a(3) = (   0.000000   0.000000   1.650559 )  

     reciprocal axes: (cart. coord. in units 2 pi/alat)
               b(1) = (  1.000000  0.577350  0.000000 )  
               b(2) = (  0.000000  1.154700  0.000000 )  
               b(3) = (  0.000000  0.000000  0.605856 )  


     PseudoPot. # 1 for Sr read from file:
     /home/pragov/projects/rrg-bengioy-ad/pragov/crystal_structure_design/SSSP/Sr_pbe_v1.uspp.F.UPF
     MD5 check sum: 6b418c05fbe9db5448babca5e47b7a5b
     Pseudo is Ultrasoft + core correction, Zval = 10.0
     Generated by new atomic code, or converted to UPF format
     Using radial grid of  883 points,  6 beta functions with: 
                l(1) =   0
                l(2) =   0
                l(3) =   1
                l(4) =   1
                l(5) =   2
                l(6) =   2
     Q(r) pseudized with  6 coefficients,  rinner =    1.400   1.400   1.400
                                                       1.400   1.400

     PseudoPot. # 2 for Mg read from file:
     /home/pragov/projects/rrg-bengioy-ad/pragov/crystal_structure_design/SSSP/Mg.pbe-n-kjpaw_psl.0.3.0.UPF
     MD5 check sum: 24ecedc7f3e3cbe212e682f4413594e4
     Pseudo is Projector augmented-wave + core cor, Zval =  2.0
     Generated using "atomic" code by A. Dal Corso  v.5.0.99 svn rev. 10869
     Shape of augmentation charge: PSQ
     Using radial grid of 1129 points,  4 beta functions with: 
                l(1) =   0
                l(2) =   0
                l(3) =   1
                l(4) =   1
     Q(r) pseudized with 0 coefficients 


     PseudoPot. # 3 for Bi read from file:
     /home/pragov/projects/rrg-bengioy-ad/pragov/crystal_structure_design/SSSP/Bi_pbe_v1.uspp.F.UPF
     MD5 check sum: cceb9f28ec65b6d7ff33140f5b0b1758
     Pseudo is Ultrasoft + core correction, Zval = 15.0
     Generated by new atomic code, or converted to UPF format
     Using radial grid of  899 points,  6 beta functions with: 
                l(1) =   0
                l(2) =   0
                l(3) =   1
                l(4) =   1
                l(5) =   2
                l(6) =   2
     Q(r) pseudized with  6 coefficients,  rinner =    1.000   1.000   1.000
                                                       1.000   1.000

     atomic species   valence    mass     pseudopotential
        Sr            10.00    87.62000     Sr( 1.00)
        Mg             2.00    24.30500     Mg( 1.00)
        Bi            15.00   208.98040     Bi( 1.00)

     12 Sym. Ops., with inversion, found


                                    s                        frac. trans.

      isym =  1     identity                                     

 cryst.   s( 1) = (     1          0          0      )
                  (     0          1          0      )
                  (     0          0          1      )

 cart.    s( 1) = (  1.0000000  0.0000000  0.0000000 )
                  (  0.0000000  1.0000000  0.0000000 )
                  (  0.0000000  0.0000000  1.0000000 )


      isym =  2     180 deg rotation - cart. axis [1,0,0]        

 cryst.   s( 2) = (     1          0          0      )
                  (    -1         -1          0      )
                  (     0          0         -1      )

 cart.    s( 2) = (  1.0000000 -0.0000003  0.0000000 )
                  (  0.0000000 -1.0000000  0.0000000 )
                  (  0.0000000  0.0000000 -1.0000000 )


      isym =  3     120 deg rotation - cryst. axis [0,0,1]       

 cryst.   s( 3) = (     0          1          0      )
                  (    -1         -1          0      )
                  (     0          0          1      )

 cart.    s( 3) = ( -0.4999999 -0.8660253  0.0000000 )
                  (  0.8660255 -0.5000001  0.0000000 )
                  (  0.0000000  0.0000000  1.0000000 )


      isym =  4     120 deg rotation - cryst. axis [0,0,-1]      

 cryst.   s( 4) = (    -1         -1          0      )
                  (     1          0          0      )
                  (     0          0          1      )

 cart.    s( 4) = ( -0.5000001  0.8660253  0.0000000 )
                  ( -0.8660255 -0.4999999  0.0000000 )
                  (  0.0000000  0.0000000  1.0000000 )


      isym =  5     180 deg rotation - cryst. axis [0,1,0]       

 cryst.   s( 5) = (    -1         -1          0      )
                  (     0          1          0      )
                  (     0          0         -1      )

 cart.    s( 5) = ( -0.5000001 -0.8660252  0.0000000 )
                  ( -0.8660255  0.5000001  0.0000000 )
                  (  0.0000000  0.0000000 -1.0000000 )


      isym =  6     180 deg rotation - cryst. axis [1,1,0]       

 cryst.   s( 6) = (     0          1          0      )
                  (     1          0          0      )
                  (     0          0         -1      )

 cart.    s( 6) = ( -0.4999999  0.8660255  0.0000000 )
                  (  0.8660255  0.4999999  0.0000000 )
                  (  0.0000000  0.0000000 -1.0000000 )


      isym =  7     inversion                                    

 cryst.   s( 7) = (    -1          0          0      )
                  (     0         -1          0      )
                  (     0          0         -1      )

 cart.    s( 7) = ( -1.0000000 -0.0000000  0.0000000 )
                  (  0.0000000 -1.0000000  0.0000000 )
                  (  0.0000000  0.0000000 -1.0000000 )


      isym =  8     inv. 180 deg rotation - cart. axis [1,0,0]   

 cryst.   s( 8) = (    -1          0          0      )
                  (     1          1          0      )
                  (     0          0          1      )

 cart.    s( 8) = ( -1.0000000  0.0000003  0.0000000 )
                  (  0.0000000  1.0000000  0.0000000 )
                  (  0.0000000  0.0000000  1.0000000 )


      isym =  9     inv. 120 deg rotation - cryst. axis [0,0,1]  

 cryst.   s( 9) = (     0         -1          0      )
                  (     1          1          0      )
                  (     0          0         -1      )

 cart.    s( 9) = (  0.4999999  0.8660253  0.0000000 )
                  ( -0.8660255  0.5000001  0.0000000 )
                  (  0.0000000  0.0000000 -1.0000000 )


      isym = 10     inv. 120 deg rotation - cryst. axis [0,0,-1] 

 cryst.   s(10) = (     1          1          0      )
                  (    -1          0          0      )
                  (     0          0         -1      )

 cart.    s(10) = (  0.5000001 -0.8660253  0.0000000 )
                  (  0.8660255  0.4999999  0.0000000 )
                  (  0.0000000  0.0000000 -1.0000000 )


      isym = 11     inv. 180 deg rotation - cryst. axis [0,1,0]  

 cryst.   s(11) = (     1          1          0      )
                  (     0         -1          0      )
                  (     0          0          1      )

 cart.    s(11) = (  0.5000001  0.8660252  0.0000000 )
                  (  0.8660255 -0.5000001  0.0000000 )
                  (  0.0000000  0.0000000  1.0000000 )


      isym = 12     inv. 180 deg rotation - cryst. axis [1,1,0]  

 cryst.   s(12) = (     0         -1          0      )
                  (    -1          0          0      )
                  (     0          0          1      )

 cart.    s(12) = (  0.4999999 -0.8660255  0.0000000 )
                  ( -0.8660255 -0.4999999  0.0000000 )
                  (  0.0000000  0.0000000  1.0000000 )


   Cartesian axes

     site n.     atom                  positions (alat units)
         1           Sr  tau(   1) = (   0.0000000   0.0000000   0.0000000  )
         2           Mg  tau(   2) = (   0.5000005   0.2886749   0.6192417  )
         3           Mg  tau(   3) = (  -0.0000004   0.5773506   1.0313168  )
         4           Bi  tau(   4) = (   0.5000005   0.2886749   1.2331768  )
         5           Bi  tau(   5) = (  -0.0000004   0.5773506   0.4173817  )

   Crystallographic axes

     site n.     atom                  positions (cryst. coord.)
         1           Sr  tau(   1) = (  0.0000000  0.0000000  0.0000000  )
         2           Mg  tau(   2) = (  0.6666670  0.3333330  0.3751710  )
         3           Mg  tau(   3) = (  0.3333330  0.6666670  0.6248290  )
         4           Bi  tau(   4) = (  0.6666670  0.3333330  0.7471270  )
         5           Bi  tau(   5) = (  0.3333330  0.6666670  0.2528730  )

     number of k points=     7
                       cart. coord. in units 2pi/alat
        k(    1) = (   0.0000000   0.0000000   0.0000000), wk =   0.0740741
        k(    2) = (   0.0000000   0.0000000   0.2019518), wk =   0.1481481
        k(    3) = (   0.0000000   0.3849002   0.0000000), wk =   0.4444444
        k(    4) = (   0.0000000   0.3849002   0.2019518), wk =   0.4444444
        k(    5) = (   0.3333333   0.5773502   0.0000000), wk =   0.1481481
        k(    6) = (   0.3333333   0.5773502   0.2019518), wk =   0.2962963
        k(    7) = (   0.0000000   0.3849002  -0.2019518), wk =   0.4444444

                       cryst. coord.
        k(    1) = (   0.0000000   0.0000000   0.0000000), wk =   0.0740741
        k(    2) = (   0.0000000   0.0000000   0.3333333), wk =   0.1481481
        k(    3) = (   0.0000000   0.3333333   0.0000000), wk =   0.4444444
        k(    4) = (   0.0000000   0.3333333   0.3333333), wk =   0.4444444
        k(    5) = (   0.3333333   0.3333333   0.0000000), wk =   0.1481481
        k(    6) = (   0.3333333   0.3333333   0.3333333), wk =   0.2962963
        k(    7) = (   0.0000000   0.3333333  -0.3333333), wk =   0.4444444

     Dense  grid:    69831 G-vectors     FFT dimensions: (  45,  45,  75)

     Smooth grid:    24563 G-vectors     FFT dimensions: (  36,  36,  54)

     Dynamical RAM for                 wfc:       0.75 MB

     Dynamical RAM for     wfc (w. buffer):       3.76 MB

     Dynamical RAM for           str. fact:       0.80 MB

     Dynamical RAM for           local pot:       0.00 MB

     Dynamical RAM for          nlocal pot:       0.82 MB

     Dynamical RAM for                qrad:       3.73 MB

     Dynamical RAM for          rho,v,vnew:       1.68 MB

     Dynamical RAM for               rhoin:       0.56 MB

     Dynamical RAM for            rho*nmix:       4.26 MB

     Dynamical RAM for           G-vectors:       1.05 MB

     Dynamical RAM for          h,s,v(r/c):       0.19 MB

     Dynamical RAM for          <psi|beta>:       0.07 MB

     Dynamical RAM for                 psi:       1.51 MB

     Dynamical RAM for                hpsi:       1.51 MB

     Dynamical RAM for                spsi:       1.51 MB

     Dynamical RAM for      wfcinit/wfcrot:       1.60 MB

     Dynamical RAM for           addusdens:      25.17 MB

     Estimated static dynamical RAM per process >      14.94 MB

     Estimated max dynamical RAM per process >      44.37 MB

     Estimated total dynamical RAM >     337.92 MB

     Check: negative core charge=   -0.000003

     Initial potential from superposition of free atoms

     starting charge      41.9644, renormalised to      44.0000

     negative rho (up, down):  1.589E-01 0.000E+00
     Starting wfcs are   39 randomized atomic wfcs +   25 random wfcs
     Checking if some PAW data can be deallocated... 
       PAW data deallocated on    4 nodes for type:  2

     total cpu time spent up to now is        1.8 secs

     Self-consistent Calculation

     iteration #  1     ecut=    30.00 Ry     beta= 0.70
     Davidson diagonalization with overlap

---- Real-time Memory Report at c_bands before calling an iterative solver
           207 MiB given to the printing process from OS
             0 MiB allocation reported by mallinfo(arena+hblkhd)
        141689 MiB available memory on the node where the printing process lives
------------------
     ethr =  1.00E-02,  avg # of iterations =  7.3

     negative rho (up, down):  1.520E-01 0.000E+00

     total cpu time spent up to now is        2.7 secs

     total energy              =    -507.71967897 Ry
     estimated scf accuracy    <       1.03694680 Ry

     iteration #  2     ecut=    30.00 Ry     beta= 0.70
     Davidson diagonalization with overlap

---- Real-time Memory Report at c_bands before calling an iterative solver
           243 MiB given to the printing process from OS
             0 MiB allocation reported by mallinfo(arena+hblkhd)
        141433 MiB available memory on the node where the printing process lives
------------------
     ethr =  2.36E-03,  avg # of iterations =  2.1

     negative rho (up, down):  1.567E-01 0.000E+00

     total cpu time spent up to now is        3.1 secs

     total energy              =    -507.78388183 Ry
     estimated scf accuracy    <       1.19768518 Ry

     iteration #  3     ecut=    30.00 Ry     beta= 0.70
     Davidson diagonalization with overlap

---- Real-time Memory Report at c_bands before calling an iterative solver
           248 MiB given to the printing process from OS
             0 MiB allocation reported by mallinfo(arena+hblkhd)
        141380 MiB available memory on the node where the printing process lives
------------------
     ethr =  2.36E-03,  avg # of iterations =  2.0

     negative rho (up, down):  1.599E-01 0.000E+00

     total cpu time spent up to now is        3.6 secs

     total energy              =    -508.06298023 Ry
     estimated scf accuracy    <       0.31921844 Ry

     iteration #  4     ecut=    30.00 Ry     beta= 0.70
     Davidson diagonalization with overlap

---- Real-time Memory Report at c_bands before calling an iterative solver
           248 MiB given to the printing process from OS
             0 MiB allocation reported by mallinfo(arena+hblkhd)
        141370 MiB available memory on the node where the printing process lives
------------------
     ethr =  7.25E-04,  avg # of iterations =  1.0

     negative rho (up, down):  1.615E-01 0.000E+00

     total cpu time spent up to now is        4.0 secs

     total energy              =    -508.11712043 Ry
     estimated scf accuracy    <       0.00232658 Ry

     iteration #  5     ecut=    30.00 Ry     beta= 0.70
     Davidson diagonalization with overlap

---- Real-time Memory Report at c_bands before calling an iterative solver
           253 MiB given to the printing process from OS
             0 MiB allocation reported by mallinfo(arena+hblkhd)
        141372 MiB available memory on the node where the printing process lives
------------------
     c_bands:  2 eigenvalues not converged
     ethr =  5.29E-06,  avg # of iterations = 10.3

     negative rho (up, down):  1.620E-01 0.000E+00

     total cpu time spent up to now is        4.8 secs

     total energy              =    -508.11780763 Ry
     estimated scf accuracy    <       0.00009288 Ry

     iteration #  6     ecut=    30.00 Ry     beta= 0.70
     Davidson diagonalization with overlap

---- Real-time Memory Report at c_bands before calling an iterative solver
           253 MiB given to the printing process from OS
             0 MiB allocation reported by mallinfo(arena+hblkhd)
        141355 MiB available memory on the node where the printing process lives
------------------
     ethr =  2.11E-07,  avg # of iterations =  6.1

     negative rho (up, down):  1.621E-01 0.000E+00

     total cpu time spent up to now is        5.4 secs

     total energy              =    -508.11782811 Ry
     estimated scf accuracy    <       0.00000436 Ry

     iteration #  7     ecut=    30.00 Ry     beta= 0.70
     Davidson diagonalization with overlap

---- Real-time Memory Report at c_bands before calling an iterative solver
           253 MiB given to the printing process from OS
             0 MiB allocation reported by mallinfo(arena+hblkhd)
        141352 MiB available memory on the node where the printing process lives
------------------
     ethr =  9.91E-09,  avg # of iterations =  4.0

     negative rho (up, down):  1.621E-01 0.000E+00

     total cpu time spent up to now is        5.9 secs

     End of self-consistent calculation

          k = 0.0000 0.0000 0.0000 (  3027 PWs)   bands (ev):

   -29.2701 -15.1738 -15.1738 -15.1733 -15.1733 -15.1713 -15.1706 -15.1432
   -15.1432 -15.1422 -15.1422 -11.3145 -11.2506 -11.2505  -4.1173  -3.5209
     2.6838   5.5519   5.5519   6.5545   6.5638   6.5638   6.9370   7.4108
     8.8728   9.2695   9.2695   9.7036   9.7036  10.2894  10.2894  11.5862
    12.0447  13.3181  13.3181  13.4619  13.8014  13.9589  13.9589  14.7401
    14.7401  14.8783  16.8012  17.3962  17.3962  18.7322  19.4267  19.4268
    19.5918  19.5918  20.9695  21.2282  22.0569  22.0570  22.2827  23.2556
    23.9964  24.2236  24.2236  24.4403  24.4404  24.5893  26.0840  26.0842

     occupation numbers 
     1.0000   1.0000   1.0000   1.0000   1.0000   1.0000   1.0000   1.0000
     1.0000   1.0000   1.0000   1.0000   1.0000   1.0000   1.0000   1.0000
     1.0000   1.0000   1.0000   1.0000   1.0000   1.0000   0.0000   0.0000
     0.0000   0.0000   0.0000   0.0000   0.0000   0.0000   0.0000   0.0000
     0.0000   0.0000   0.0000   0.0000   0.0000   0.0000   0.0000   0.0000
     0.0000   0.0000   0.0000   0.0000   0.0000   0.0000   0.0000   0.0000
     0.0000   0.0000   0.0000   0.0000   0.0000   0.0000   0.0000   0.0000
     0.0000   0.0000   0.0000   0.0000   0.0000   0.0000   0.0000   0.0000

          k = 0.0000 0.0000 0.2020 (  3050 PWs)   bands (ev):

   -29.2701 -15.1759 -15.1759 -15.1712 -15.1712 -15.1711 -15.1707 -15.1435
   -15.1435 -15.1420 -15.1420 -11.3147 -11.2506 -11.2506  -3.9913  -3.6809
     3.1764   4.8975   5.7344   5.7344   6.2376   6.2376   7.4677   8.0787
     9.1300   9.1300   9.6827  10.1995  10.1995  10.8853  10.8947  10.8947
    11.8964  11.9731  11.9731  12.9657  13.3835  13.3836  13.8885  15.5353
    15.8901  15.8901  17.1410  18.0044  18.0045  18.4198  18.4199  18.6707
    19.4038  20.4240  20.4241  20.8703  22.6580  22.6581  23.3953  23.3954
    23.4120  23.4377  24.1472  24.4736  24.4737  24.6555  24.6556  24.6875

     occupation numbers 
     1.0000   1.0000   1.0000   1.0000   1.0000   1.0000   1.0000   1.0000
     1.0000   1.0000   1.0000   1.0000   1.0000   1.0000   1.0000   1.0000
     1.0000   1.0000   1.0000   1.0000   1.0000   1.0000   0.0000   0.0000
     0.0000   0.0000   0.0000   0.0000   0.0000   0.0000   0.0000   0.0000
     0.0000   0.0000   0.0000   0.0000   0.0000   0.0000   0.0000   0.0000
     0.0000   0.0000   0.0000   0.0000   0.0000   0.0000   0.0000   0.0000
     0.0000   0.0000   0.0000   0.0000   0.0000   0.0000   0.0000   0.0000
     0.0000   0.0000   0.0000   0.0000   0.0000   0.0000   0.0000   0.0000

          k = 0.0000 0.3849 0.0000 (  3092 PWs)   bands (ev):

   -29.2690 -15.1760 -15.1752 -15.1731 -15.1695 -15.1690 -15.1680 -15.1436
   -15.1427 -15.1413 -15.1397 -11.3013 -11.2926 -11.2592  -3.7286  -3.4401
     3.2057   3.4314   4.1568   5.1765   5.5113   5.7437   7.6595   8.6280
     9.4704   9.8720   9.9715  10.6513  10.8754  11.3101  11.6359  11.6998
    12.1328  12.5762  12.8986  13.4039  14.0420  14.4924  15.2320  15.8962
    16.6109  17.0884  17.2765  17.4896  17.8433  17.9478  18.5211  18.5870
    18.6811  19.1931  20.1889  20.7933  20.9219  21.3316  21.8727  22.0328
    22.4144  22.8409  23.4494  23.6728  23.8229  24.2494  24.4079  24.9868

     occupation numbers 
     1.0000   1.0000   1.0000   1.0000   1.0000   1.0000   1.0000   1.0000
     1.0000   1.0000   1.0000   1.0000   1.0000   1.0000   1.0000   1.0000
     1.0000   1.0000   1.0000   1.0000   1.0000   1.0000   0.0000   0.0000
     0.0000   0.0000   0.0000   0.0000   0.0000   0.0000   0.0000   0.0000
     0.0000   0.0000   0.0000   0.0000   0.0000   0.0000   0.0000   0.0000
     0.0000   0.0000   0.0000   0.0000   0.0000   0.0000   0.0000   0.0000
     0.0000   0.0000   0.0000   0.0000   0.0000   0.0000   0.0000   0.0000
     0.0000   0.0000   0.0000   0.0000   0.0000   0.0000   0.0000   0.0000

          k = 0.0000 0.3849 0.2020 (  3086 PWs)   bands (ev):

   -29.2690 -15.1755 -15.1741 -15.1729 -15.1717 -15.1691 -15.1674 -15.1435
   -15.1429 -15.1413 -15.1397 -11.3013 -11.2927 -11.2592  -3.7059  -3.4629
     3.0360   3.2271   4.7278   5.0895   5.8148   5.8800   7.9926   8.1127
     8.3975   9.1773   9.8223  10.4892  10.6606  11.8167  12.1342  12.5231
    12.8153  13.0819  13.2192  14.0131  14.1554  14.1821  14.6856  14.9127
    16.4501  16.6971  17.2566  17.4475  17.9091  18.1431  18.1658  18.7966
    19.2656  19.3677  19.9756  20.1700  20.6958  20.7833  21.5634  22.2417
    22.4547  22.9721  23.3531  23.7477  24.0969  24.3499  24.3574  24.7820

     occupation numbers 
     1.0000   1.0000   1.0000   1.0000   1.0000   1.0000   1.0000   1.0000
     1.0000   1.0000   1.0000   1.0000   1.0000   1.0000   1.0000   1.0000
     1.0000   1.0000   1.0000   1.0000   1.0000   1.0000   0.0000   0.0000
     0.0000   0.0000   0.0000   0.0000   0.0000   0.0000   0.0000   0.0000
     0.0000   0.0000   0.0000   0.0000   0.0000   0.0000   0.0000   0.0000
     0.0000   0.0000   0.0000   0.0000   0.0000   0.0000   0.0000   0.0000
     0.0000   0.0000   0.0000   0.0000   0.0000   0.0000   0.0000   0.0000
     0.0000   0.0000   0.0000   0.0000   0.0000   0.0000   0.0000   0.0000

          k = 0.3333 0.5774 0.0000 (  3108 PWs)   bands (ev):

   -29.2684 -15.1738 -15.1738 -15.1729 -15.1721 -15.1677 -15.1677 -15.1423
   -15.1416 -15.1416 -15.1401 -11.2916 -11.2916 -11.2883  -3.4498  -3.4498
     3.2476   3.2476   3.5958   4.8383   4.8383   4.9741   8.5182   9.5183
     9.5183   9.9920   9.9920  10.1840  11.8704  11.8704  12.0305  12.2202
    12.2202  12.9626  12.9626  13.0822  14.2367  14.2367  14.8911  15.2122
    16.7928  17.0227  17.0227  18.0052  18.5936  18.5937  19.0500  20.4043
    20.4043  20.7655  20.7655  20.9603  20.9604  20.9941  21.2659  21.4990
    21.6502  21.6502  22.4858  22.5542  22.5542  22.5723  23.6484  23.6485

     occupation numbers 
     1.0000   1.0000   1.0000   1.0000   1.0000   1.0000   1.0000   1.0000
     1.0000   1.0000   1.0000   1.0000   1.0000   1.0000   1.0000   1.0000
     1.0000   1.0000   1.0000   1.0000   1.0000   1.0000   0.0000   0.0000
     0.0000   0.0000   0.0000   0.0000   0.0000   0.0000   0.0000   0.0000
     0.0000   0.0000   0.0000   0.0000   0.0000   0.0000   0.0000   0.0000
     0.0000   0.0000   0.0000   0.0000   0.0000   0.0000   0.0000   0.0000
     0.0000   0.0000   0.0000   0.0000   0.0000   0.0000   0.0000   0.0000
     0.0000   0.0000   0.0000   0.0000   0.0000   0.0000   0.0000   0.0000

          k = 0.3333 0.5774 0.2020 (  3099 PWs)   bands (ev):

   -29.2684 -15.1751 -15.1744 -15.1744 -15.1698 -15.1671 -15.1671 -15.1418
   -15.1416 -15.1416 -15.1407 -11.2916 -11.2916 -11.2883  -3.4496  -3.4496
     3.1088   3.1088   3.8411   4.5183   5.2255   5.2256   8.6093   8.6094
     9.2896  10.2138  10.6414  10.6414  11.0020  11.0020  11.4885  12.3982
    12.6126  12.6126  13.5686  13.5686  14.3098  14.8070  14.8070  16.6777
    17.4887  17.4887  17.6407  18.2792  18.5120  18.5981  18.5982  18.7911
    18.7911  19.4094  19.7355  19.7355  20.5535  20.5535  21.1157  21.8276
    21.8277  22.0288  22.3594  22.9567  22.9567  23.4890  23.8933  23.8934

     occupation numbers 
     1.0000   1.0000   1.0000   1.0000   1.0000   1.0000   1.0000   1.0000
     1.0000   1.0000   1.0000   1.0000   1.0000   1.0000   1.0000   1.0000
     1.0000   1.0000   1.0000   1.0000   1.0000   1.0000   0.0000   0.0000
     0.0000   0.0000   0.0000   0.0000   0.0000   0.0000   0.0000   0.0000
     0.0000   0.0000   0.0000   0.0000   0.0000   0.0000   0.0000   0.0000
     0.0000   0.0000   0.0000   0.0000   0.0000   0.0000   0.0000   0.0000
     0.0000   0.0000   0.0000   0.0000   0.0000   0.0000   0.0000   0.0000
     0.0000   0.0000   0.0000   0.0000   0.0000   0.0000   0.0000   0.0000

          k = 0.0000 0.3849-0.2020 (  3086 PWs)   bands (ev):

   -29.2690 -15.1769 -15.1749 -15.1726 -15.1697 -15.1688 -15.1678 -15.1439
   -15.1424 -15.1408 -15.1402 -11.3013 -11.2926 -11.2592  -3.6618  -3.5134
     3.0499   3.4435   4.5520   5.1917   5.4187   5.7158   7.6595   8.5327
     9.0368   9.5614  10.1932  10.5858  10.8428  11.3220  11.7647  11.8024
    12.1879  12.8490  12.8841  13.3053  14.5147  14.9628  15.4217  15.6706
    16.3914  16.9635  17.4382  17.4906  17.6669  17.9511  18.3875  18.8167
    19.0452  19.4799  19.7395  19.9178  20.3882  20.9356  20.9774  22.1177
    22.8291  22.8894  23.6265  23.8453  24.2646  24.5248  24.5556  24.8263

     occupation numbers 
     1.0000   1.0000   1.0000   1.0000   1.0000   1.0000   1.0000   1.0000
     1.0000   1.0000   1.0000   1.0000   1.0000   1.0000   1.0000   1.0000
     1.0000   1.0000   1.0000   1.0000   1.0000   1.0000   0.0000   0.0000
     0.0000   0.0000   0.0000   0.0000   0.0000   0.0000   0.0000   0.0000
     0.0000   0.0000   0.0000   0.0000   0.0000   0.0000   0.0000   0.0000
     0.0000   0.0000   0.0000   0.0000   0.0000   0.0000   0.0000   0.0000
     0.0000   0.0000   0.0000   0.0000   0.0000   0.0000   0.0000   0.0000
     0.0000   0.0000   0.0000   0.0000   0.0000   0.0000   0.0000   0.0000

     highest occupied, lowest unoccupied level (ev):     6.5638    6.9370

!    total energy              =    -508.11783081 Ry
     estimated scf accuracy    <       0.00000047 Ry

     The total energy is the sum of the following terms:
     one-electron contribution =    -178.57945167 Ry
     hartree contribution      =     108.56292141 Ry
     xc contribution           =    -150.81989184 Ry
     ewald contribution        =    -224.71597428 Ry
     one-center paw contrib.   =     -62.56543444 Ry
      -> PAW hartree energy AE =       0.00000000 Ry
      -> PAW hartree energy PS =       0.00000000 Ry
      -> PAW xc energy AE      =       0.00000000 Ry
      -> PAW xc energy PS      =       0.00000000 Ry
      -> total E_H with PAW    =     108.56292141 Ry
      -> total E_XC with PAW   =    -150.81989184 Ry

     convergence has been achieved in   7 iterations

     Writing all to output data dir calculations_bands_val/myprefix.save/
 
     init_run     :      4.47s CPU      1.49s WALL (       1 calls)
     electrons    :     15.55s CPU      4.09s WALL (       1 calls)

     Called by init_run:
     wfcinit      :      0.47s CPU      0.13s WALL (       1 calls)
     wfcinit:atom :      0.00s CPU      0.00s WALL (       4 calls)
     wfcinit:wfcr :      0.45s CPU      0.12s WALL (       4 calls)
     potinit      :      1.43s CPU      0.37s WALL (       1 calls)
     hinit0       :      1.74s CPU      0.63s WALL (       1 calls)

     Called by electrons:
     c_bands      :     11.24s CPU      2.92s WALL (       7 calls)
     sum_band     :      2.56s CPU      0.70s WALL (       7 calls)
     v_of_rho     :      0.38s CPU      0.10s WALL (       8 calls)
     v_h          :      0.03s CPU      0.01s WALL (       8 calls)
     v_xc         :      0.35s CPU      0.09s WALL (       8 calls)
     newd         :      0.99s CPU      0.28s WALL (       8 calls)
     PAW_pot      :      0.43s CPU      0.11s WALL (       8 calls)
     mix_rho      :      0.07s CPU      0.02s WALL (       7 calls)

     Called by c_bands:
     init_us_2    :      0.04s CPU      0.01s WALL (      60 calls)
     init_us_2:cp :      0.04s CPU      0.01s WALL (      60 calls)
     cegterg      :     10.49s CPU      2.72s WALL (      28 calls)

     Called by sum_band:
     sum_band:wei :      0.01s CPU      0.00s WALL (       7 calls)
     sum_band:loo :      1.35s CPU      0.35s WALL (       7 calls)
     sum_band:buf :      0.02s CPU      0.01s WALL (      28 calls)
     sum_band:ini :      0.02s CPU      0.00s WALL (      28 calls)
     sum_band:cal :      0.06s CPU      0.02s WALL (      28 calls)
     sum_band:bec :      0.01s CPU      0.00s WALL (      28 calls)
     addusdens    :      0.85s CPU      0.25s WALL (       7 calls)
     addusd:skk   :      0.00s CPU      0.00s WALL (      21 calls)
     addusd:dgemm :      0.10s CPU      0.05s WALL (      21 calls)
     addusd:qvan2 :      0.46s CPU      0.12s WALL (      21 calls)

     Called by *egterg:
     cdiaghg      :      2.60s CPU      0.67s WALL (     162 calls)
     cegterg:over :      0.39s CPU      0.10s WALL (     134 calls)
     cegterg:upda :      0.21s CPU      0.06s WALL (     134 calls)
     cegterg:last :      0.35s CPU      0.09s WALL (      66 calls)
     cdiaghg:chol :      0.19s CPU      0.05s WALL (     162 calls)
     cdiaghg:inve :      0.04s CPU      0.01s WALL (     162 calls)
     cdiaghg:para :      0.38s CPU      0.10s WALL (     324 calls)
     h_psi        :      7.11s CPU      1.85s WALL (     166 calls)
     s_psi        :      0.06s CPU      0.02s WALL (     166 calls)
     g_psi        :      0.01s CPU      0.00s WALL (     134 calls)

     Called by h_psi:
     h_psi:calbec :      0.20s CPU      0.05s WALL (     166 calls)
     vloc_psi     :      6.79s CPU      1.76s WALL (     166 calls)
     add_vuspsi   :      0.09s CPU      0.03s WALL (     166 calls)

     General routines
     calbec       :      0.26s CPU      0.07s WALL (     194 calls)
     fft          :      0.71s CPU      0.19s WALL (     102 calls)
     ffts         :      0.95s CPU      0.25s WALL (      15 calls)
     fftw         :      7.16s CPU      1.86s WALL (   12112 calls)
     interpolate  :      0.96s CPU      0.25s WALL (       8 calls)
 
     Parallel routines

     PAW routines
     PAW_pot      :      0.43s CPU      0.11s WALL (       8 calls)
     PAW_symme    :      0.05s CPU      0.01s WALL (      15 calls)
 
     PWSCF        :     20.84s CPU      6.08s WALL

 
   This run was terminated on:  12:35:21   4Jun2023            

=------------------------------------------------------------------------------=
   JOB DONE.
=------------------------------------------------------------------------------=
