
     Program PWSCF v.7.0 starts on  4Jun2023 at 14:38: 7 

     This program is part of the open-source Quantum ESPRESSO suite
     for quantum simulation of materials; please cite
         "P. Giannozzi et al., J. Phys.:Condens. Matter 21 395502 (2009);
         "P. Giannozzi et al., J. Phys.:Condens. Matter 29 465901 (2017);
         "P. Giannozzi et al., J. Chem. Phys. 152 154105 (2020);
          URL http://www.quantum-espresso.org", 
     in publications or presentations arising from this work. More details at
     http://www.quantum-espresso.org/quote

     Parallel version (MPI & OpenMP), running on      32 processor cores
     Number of MPI processes:                 8
     Threads/MPI process:                     4

     MPI processes distributed on     1 nodes
     K-points division:     npool     =       2
     R & G space division:  proc/nbgrp/npool/nimage =       4
     143163 MiB available memory on the printing compute node when the environment starts
 
     Reading input from espresso_759.pwi
Warning: card &CELL ignored
Warning: card / ignored

     Current dimensions of program PWSCF are:
     Max number of different atomic species (ntypx) = 10
     Max number of k-points (npk) =  40000
     Max angular momentum in pseudopotentials (lmaxx) =  4
     file Ba.pbe-spn-kjpaw_psl.1.0.0.UPF: wavefunction(s)  5S 6S renormalized
     file O.pbe-n-kjpaw_psl.0.1.UPF: wavefunction(s)  2P renormalized
     Message from routine setup:
     using ibrav=0 with symmetry is DISCOURAGED, use correct ibrav instead

     Subspace diagonalization in iterative solution of the eigenvalue problem:
     one sub-group per band group will be used
     scalapack distributed-memory algorithm (size of sub-group:  2*  2 procs)

 
     Parallelization info
     --------------------
     sticks:   dense  smooth     PW     G-vecs:    dense   smooth      PW
     Min         513     256     73                15123     5332     821
     Max         514     257     74                15125     5333     823
     Sum        2053    1027    295                60495    21331    3287
 
     Using Slab Decomposition
 


     bravais-lattice index     =            0
     lattice parameter (alat)  =      11.0820  a.u.
     unit-cell volume          =     962.3628 (a.u.)^3
     number of atoms/cell      =           10
     number of atomic types    =            4
     number of electrons       =        80.00
     number of Kohn-Sham states=           64
     kinetic-energy cutoff     =      30.0000  Ry
     charge density cutoff     =     240.0000  Ry
     scf convergence threshold =      1.0E-06
     mixing beta               =       0.7000
     number of iterations used =            8  plain     mixing
     Exchange-correlation= SLA  PW   PBX  PBC
                           (   1   4   3   4   0   0   0)

     celldm(1)=  11.081995  celldm(2)=   0.000000  celldm(3)=   0.000000
     celldm(4)=   0.000000  celldm(5)=   0.000000  celldm(6)=   0.000000

     crystal axes: (cart. coord. in units of alat)
               a(1) = (   1.000000   0.000000   0.000000 )  
               a(2) = (   0.500000   0.866025   0.000000 )  
               a(3) = (   0.500000   0.288675   0.816497 )  

     reciprocal axes: (cart. coord. in units 2 pi/alat)
               b(1) = (  1.000000 -0.577350 -0.408248 )  
               b(2) = (  0.000000  1.154701 -0.408248 )  
               b(3) = (  0.000000  0.000000  1.224745 )  


     PseudoPot. # 1 for Ba read from file:
     /home/pragov/projects/rrg-bengioy-ad/pragov/crystal_structure_design/SSSP/Ba.pbe-spn-kjpaw_psl.1.0.0.UPF
     MD5 check sum: c432291d3e53af55f19d5e8866385beb
     Pseudo is Projector augmented-wave + core cor, Zval = 10.0
     Generated using "atomic" code by A. Dal Corso  v.5.1
     Shape of augmentation charge: PSQ
     Using radial grid of 1251 points,  7 beta functions with: 
                l(1) =   0
                l(2) =   0
                l(3) =   0
                l(4) =   1
                l(5) =   1
                l(6) =   2
                l(7) =   2
     Q(r) pseudized with 0 coefficients 


     PseudoPot. # 2 for Zr read from file:
     /home/pragov/projects/rrg-bengioy-ad/pragov/crystal_structure_design/SSSP/Zr_pbe_v1.uspp.F.UPF
     MD5 check sum: 5db81b1e868ab7776c4564c113de050b
     Pseudo is Ultrasoft + core correction, Zval = 12.0
     Generated by new atomic code, or converted to UPF format
     Using radial grid of  887 points,  6 beta functions with: 
                l(1) =   0
                l(2) =   0
                l(3) =   1
                l(4) =   1
                l(5) =   2
                l(6) =   2
     Q(r) pseudized with  6 coefficients,  rinner =    1.200   1.200   1.200
                                                       1.200   1.200

     PseudoPot. # 3 for Ti read from file:
     /home/pragov/projects/rrg-bengioy-ad/pragov/crystal_structure_design/SSSP/ti_pbe_v1.4.uspp.F.UPF
     MD5 check sum: 88a00a6731bd790ddea75d31a80cb452
     Pseudo is Ultrasoft + core correction, Zval = 12.0
     Generated by new atomic code, or converted to UPF format
     Using radial grid of  851 points,  6 beta functions with: 
                l(1) =   0
                l(2) =   0
                l(3) =   1
                l(4) =   1
                l(5) =   2
                l(6) =   2
     Q(r) pseudized with  6 coefficients,  rinner =    1.000   1.000   1.000
                                                       1.000   1.000

     PseudoPot. # 4 for O  read from file:
     /home/pragov/projects/rrg-bengioy-ad/pragov/crystal_structure_design/SSSP/O.pbe-n-kjpaw_psl.0.1.UPF
     MD5 check sum: 0234752ac141de4415c5fc33072bef88
     Pseudo is Projector augmented-wave + core cor, Zval =  6.0
     Generated using "atomic" code by A. Dal Corso  v.5.0.99 svn rev. 10869
     Shape of augmentation charge: BESSEL
     Using radial grid of 1095 points,  4 beta functions with: 
                l(1) =   0
                l(2) =   0
                l(3) =   1
                l(4) =   1
     Q(r) pseudized with 0 coefficients 


     atomic species   valence    mass     pseudopotential
        Ba            10.00   137.32700     Ba( 1.00)
        Zr            12.00    91.22400     Zr( 1.00)
        Ti            12.00    47.86700     Ti( 1.00)
        O              6.00    15.99900     O ( 1.00)

     12 Sym. Ops., with inversion, found


                                    s                        frac. trans.

      isym =  1     identity                                     

 cryst.   s( 1) = (     1          0          0      )
                  (     0          1          0      )
                  (     0          0          1      )

 cart.    s( 1) = (  1.0000000  0.0000000  0.0000000 )
                  (  0.0000000  1.0000000  0.0000000 )
                  (  0.0000000  0.0000000  1.0000000 )


      isym =  2     180 deg rotation - cart. axis [1,0,0]        

 cryst.   s( 2) = (     1          0          0      )
                  (     1         -1          0      )
                  (     1          0         -1      )

 cart.    s( 2) = (  1.0000000  0.0000000  0.0000000 )
                  (  0.0000000 -1.0000000 -0.0000000 )
                  (  0.0000000  0.0000000 -1.0000000 )


      isym =  3     120 deg rotation - cryst. axis [0,0,1]       

 cryst.   s( 3) = (    -1          1          0      )
                  (    -1          0          0      )
                  (    -1          0          1      )

 cart.    s( 3) = ( -0.5000000 -0.8660254 -0.0000000 )
                  (  0.8660254 -0.5000000 -0.0000000 )
                  (  0.0000000  0.0000000  1.0000000 )


      isym =  4     120 deg rotation - cryst. axis [0,0,-1]      

 cryst.   s( 4) = (     0         -1          0      )
                  (     1         -1          0      )
                  (     0         -1          1      )

 cart.    s( 4) = ( -0.5000000  0.8660254  0.0000000 )
                  ( -0.8660254 -0.5000000 -0.0000000 )
                  (  0.0000000  0.0000000  1.0000000 )


      isym =  5     180 deg rotation - cryst. axis [0,1,0]       

 cryst.   s( 5) = (     0         -1          0      )
                  (    -1          0          0      )
                  (     0          0         -1      )

 cart.    s( 5) = ( -0.5000000 -0.8660254 -0.0000000 )
                  ( -0.8660254  0.5000000  0.0000000 )
                  (  0.0000000  0.0000000 -1.0000000 )


      isym =  6     180 deg rotation - cryst. axis [1,1,0]       

 cryst.   s( 6) = (    -1          1          0      )
                  (     0          1          0      )
                  (     0          1         -1      )

 cart.    s( 6) = ( -0.5000000  0.8660254  0.0000000 )
                  (  0.8660254  0.5000000  0.0000000 )
                  (  0.0000000  0.0000000 -1.0000000 )


      isym =  7     inversion                                    

 cryst.   s( 7) = (    -1          0          0      )
                  (     0         -1          0      )
                  (     0          0         -1      )

 cart.    s( 7) = ( -1.0000000  0.0000000  0.0000000 )
                  (  0.0000000 -1.0000000 -0.0000000 )
                  (  0.0000000  0.0000000 -1.0000000 )


      isym =  8     inv. 180 deg rotation - cart. axis [1,0,0]   

 cryst.   s( 8) = (    -1          0          0      )
                  (    -1          1          0      )
                  (    -1          0          1      )

 cart.    s( 8) = ( -1.0000000  0.0000000 -0.0000000 )
                  (  0.0000000  1.0000000  0.0000000 )
                  (  0.0000000  0.0000000  1.0000000 )


      isym =  9     inv. 120 deg rotation - cryst. axis [0,0,1]  

 cryst.   s( 9) = (     1         -1          0      )
                  (     1          0          0      )
                  (     1          0         -1      )

 cart.    s( 9) = (  0.5000000  0.8660254  0.0000000 )
                  ( -0.8660254  0.5000000  0.0000000 )
                  (  0.0000000  0.0000000 -1.0000000 )


      isym = 10     inv. 120 deg rotation - cryst. axis [0,0,-1] 

 cryst.   s(10) = (     0          1          0      )
                  (    -1          1          0      )
                  (     0          1         -1      )

 cart.    s(10) = (  0.5000000 -0.8660254 -0.0000000 )
                  (  0.8660254  0.5000000  0.0000000 )
                  (  0.0000000  0.0000000 -1.0000000 )


      isym = 11     inv. 180 deg rotation - cryst. axis [0,1,0]  

 cryst.   s(11) = (     0          1          0      )
                  (     1          0          0      )
                  (     0          0          1      )

 cart.    s(11) = (  0.5000000  0.8660254  0.0000000 )
                  (  0.8660254 -0.5000000 -0.0000000 )
                  (  0.0000000  0.0000000  1.0000000 )


      isym = 12     inv. 180 deg rotation - cryst. axis [1,1,0]  

 cryst.   s(12) = (     1         -1          0      )
                  (     0         -1          0      )
                  (     0         -1          1      )

 cart.    s(12) = (  0.5000000 -0.8660254 -0.0000000 )
                  ( -0.8660254 -0.5000000 -0.0000000 )
                  (  0.0000000  0.0000000  1.0000000 )


   Cartesian axes

     site n.     atom                  positions (alat units)
         1           Ba  tau(   1) = (   0.5000000   0.2886751   0.2041241  )
         2           Ba  tau(   2) = (   1.5000000   0.8660254   0.6123724  )
         3           Zr  tau(   3) = (   1.0000000   0.5773503   0.4082483  )
         4           Ti  tau(   4) = (   0.0000000   0.0000000   0.0000000  )
         5           O   tau(   5) = (   0.7425180   0.7260076   0.1980151  )
         6           O   tau(   6) = (   0.7425180   0.4286930   0.6184815  )
         7           O   tau(   7) = (   1.0000000   0.2800357   0.1980151  )
         8           O   tau(   8) = (   1.2574820   0.4286930   0.6184815  )
         9           O   tau(   9) = (   1.2574820   0.7260076   0.1980151  )
        10           O   tau(  10) = (   1.0000000   0.8746649   0.6184815  )

   Crystallographic axes

     site n.     atom                  positions (cryst. coord.)
         1           Ba  tau(   1) = (  0.2500000  0.2500000  0.2500000  )
         2           Ba  tau(   2) = (  0.7500000  0.7500000  0.7500000  )
         3           Zr  tau(   3) = (  0.5000000  0.5000000  0.5000000  )
         4           Ti  tau(   4) = (  0.0000000  0.0000000  0.0000000  )
         5           O   tau(   5) = (  0.2425180  0.7574820  0.2425180  )
         6           O   tau(   6) = (  0.2425180  0.2425180  0.7574820  )
         7           O   tau(   7) = (  0.7574820  0.2425180  0.2425180  )
         8           O   tau(   8) = (  0.7574820  0.2425180  0.7574820  )
         9           O   tau(   9) = (  0.7574820  0.7574820  0.2425180  )
        10           O   tau(  10) = (  0.2425180  0.7574820  0.7574820  )

     number of k points=     6
                       cart. coord. in units 2pi/alat
        k(    1) = (   0.0000000   0.0000000   0.0000000), wk =   0.0740741
        k(    2) = (   0.0000000   0.0000000   0.4082483), wk =   0.1481481
        k(    3) = (   0.0000000   0.3849002  -0.1360828), wk =   0.4444444
        k(    4) = (   0.0000000   0.3849002   0.2721655), wk =   0.4444444
        k(    5) = (   0.0000000   0.3849002  -0.5443311), wk =   0.4444444
        k(    6) = (   0.3333333  -0.5773503  -0.0000000), wk =   0.4444444

                       cryst. coord.
        k(    1) = (   0.0000000   0.0000000   0.0000000), wk =   0.0740741
        k(    2) = (   0.0000000   0.0000000   0.3333333), wk =   0.1481481
        k(    3) = (   0.0000000   0.3333333  -0.0000000), wk =   0.4444444
        k(    4) = (   0.0000000   0.3333333   0.3333333), wk =   0.4444444
        k(    5) = (   0.0000000   0.3333333  -0.3333333), wk =   0.4444444
        k(    6) = (   0.3333333  -0.3333333   0.0000000), wk =   0.4444444

     Dense  grid:    60495 G-vectors     FFT dimensions: (  60,  60,  60)

     Smooth grid:    21331 G-vectors     FFT dimensions: (  40,  40,  40)

     Dynamical RAM for                 wfc:       0.65 MB

     Dynamical RAM for     wfc (w. buffer):       2.61 MB

     Dynamical RAM for           str. fact:       0.92 MB

     Dynamical RAM for           local pot:       0.00 MB

     Dynamical RAM for          nlocal pot:       1.24 MB

     Dynamical RAM for                qrad:       6.64 MB

     Dynamical RAM for          rho,v,vnew:       1.93 MB

     Dynamical RAM for               rhoin:       0.64 MB

     Dynamical RAM for            rho*nmix:       3.69 MB

     Dynamical RAM for           G-vectors:       0.91 MB

     Dynamical RAM for          h,s,v(r/c):       0.19 MB

     Dynamical RAM for          <psi|beta>:       0.12 MB

     Dynamical RAM for                 psi:       1.30 MB

     Dynamical RAM for                hpsi:       1.30 MB

     Dynamical RAM for                spsi:       1.30 MB

     Dynamical RAM for      wfcinit/wfcrot:       1.40 MB

     Dynamical RAM for           addusdens:      24.46 MB

     Estimated static dynamical RAM per process >      18.10 MB

     Estimated max dynamical RAM per process >      46.25 MB

     Estimated total dynamical RAM >     355.24 MB

     Check: negative core charge=   -0.000012

     Initial potential from superposition of free atoms

     starting charge      78.9638, renormalised to      80.0000

     negative rho (up, down):  6.244E-02 0.000E+00
     Starting wfcs are   57 randomized atomic wfcs +    7 random wfcs
     Checking if some PAW data can be deallocated... 
       PAW data deallocated on    7 nodes for type:  1
       PAW data deallocated on    2 nodes for type:  4

     total cpu time spent up to now is        2.3 secs

     Self-consistent Calculation

     iteration #  1     ecut=    30.00 Ry     beta= 0.70
     Davidson diagonalization with overlap

---- Real-time Memory Report at c_bands before calling an iterative solver
           197 MiB given to the printing process from OS
             0 MiB allocation reported by mallinfo(arena+hblkhd)
        142398 MiB available memory on the node where the printing process lives
------------------
     ethr =  1.00E-02,  avg # of iterations =  5.8

     negative rho (up, down):  6.383E-02 0.000E+00

     total cpu time spent up to now is        3.4 secs

     total energy              =   -1340.83054355 Ry
     estimated scf accuracy    <       2.09356572 Ry

     iteration #  2     ecut=    30.00 Ry     beta= 0.70
     Davidson diagonalization with overlap

---- Real-time Memory Report at c_bands before calling an iterative solver
           239 MiB given to the printing process from OS
             0 MiB allocation reported by mallinfo(arena+hblkhd)
        142167 MiB available memory on the node where the printing process lives
------------------
     ethr =  2.62E-03,  avg # of iterations =  2.8

     negative rho (up, down):  6.352E-02 0.000E+00

     total cpu time spent up to now is        4.3 secs

     total energy              =   -1340.14397940 Ry
     estimated scf accuracy    <       7.65651055 Ry

     iteration #  3     ecut=    30.00 Ry     beta= 0.70
     Davidson diagonalization with overlap

---- Real-time Memory Report at c_bands before calling an iterative solver
           241 MiB given to the printing process from OS
             0 MiB allocation reported by mallinfo(arena+hblkhd)
        142144 MiB available memory on the node where the printing process lives
------------------
     ethr =  2.62E-03,  avg # of iterations =  2.0

     negative rho (up, down):  6.406E-02 0.000E+00

     total cpu time spent up to now is        4.9 secs

     total energy              =   -1341.86649152 Ry
     estimated scf accuracy    <       0.23132770 Ry

     iteration #  4     ecut=    30.00 Ry     beta= 0.70
     Davidson diagonalization with overlap

---- Real-time Memory Report at c_bands before calling an iterative solver
           242 MiB given to the printing process from OS
             0 MiB allocation reported by mallinfo(arena+hblkhd)
        142146 MiB available memory on the node where the printing process lives
------------------
     ethr =  2.89E-04,  avg # of iterations =  4.7

     negative rho (up, down):  6.535E-02 0.000E+00

     total cpu time spent up to now is        5.5 secs

     total energy              =   -1341.85522448 Ry
     estimated scf accuracy    <       0.07240498 Ry

     iteration #  5     ecut=    30.00 Ry     beta= 0.70
     Davidson diagonalization with overlap

---- Real-time Memory Report at c_bands before calling an iterative solver
           242 MiB given to the printing process from OS
             0 MiB allocation reported by mallinfo(arena+hblkhd)
        142144 MiB available memory on the node where the printing process lives
------------------
     ethr =  9.05E-05,  avg # of iterations =  2.0

     negative rho (up, down):  6.573E-02 0.000E+00

     total cpu time spent up to now is        6.1 secs

     total energy              =   -1341.86175893 Ry
     estimated scf accuracy    <       0.00643611 Ry

     iteration #  6     ecut=    30.00 Ry     beta= 0.70
     Davidson diagonalization with overlap

---- Real-time Memory Report at c_bands before calling an iterative solver
           242 MiB given to the printing process from OS
             0 MiB allocation reported by mallinfo(arena+hblkhd)
        142149 MiB available memory on the node where the printing process lives
------------------
     ethr =  8.05E-06,  avg # of iterations =  6.0

     negative rho (up, down):  6.633E-02 0.000E+00

     total cpu time spent up to now is        6.7 secs

     total energy              =   -1341.86266693 Ry
     estimated scf accuracy    <       0.00443402 Ry

     iteration #  7     ecut=    30.00 Ry     beta= 0.70
     Davidson diagonalization with overlap

---- Real-time Memory Report at c_bands before calling an iterative solver
           244 MiB given to the printing process from OS
             0 MiB allocation reported by mallinfo(arena+hblkhd)
        142140 MiB available memory on the node where the printing process lives
------------------
     ethr =  5.54E-06,  avg # of iterations =  1.0

     negative rho (up, down):  6.624E-02 0.000E+00

     total cpu time spent up to now is        7.2 secs

     total energy              =   -1341.86325108 Ry
     estimated scf accuracy    <       0.00013621 Ry

     iteration #  8     ecut=    30.00 Ry     beta= 0.70
     Davidson diagonalization with overlap

---- Real-time Memory Report at c_bands before calling an iterative solver
           245 MiB given to the printing process from OS
             0 MiB allocation reported by mallinfo(arena+hblkhd)
        142140 MiB available memory on the node where the printing process lives
------------------
     ethr =  1.70E-07,  avg # of iterations =  2.0

     negative rho (up, down):  6.624E-02 0.000E+00

     total cpu time spent up to now is        7.8 secs

     total energy              =   -1341.86329076 Ry
     estimated scf accuracy    <       0.00004351 Ry

     iteration #  9     ecut=    30.00 Ry     beta= 0.70
     Davidson diagonalization with overlap

---- Real-time Memory Report at c_bands before calling an iterative solver
           245 MiB given to the printing process from OS
             0 MiB allocation reported by mallinfo(arena+hblkhd)
        142140 MiB available memory on the node where the printing process lives
------------------
     ethr =  5.44E-08,  avg # of iterations =  1.0

     negative rho (up, down):  6.622E-02 0.000E+00

     total cpu time spent up to now is        8.3 secs

     total energy              =   -1341.86328798 Ry
     estimated scf accuracy    <       0.00006798 Ry

     iteration # 10     ecut=    30.00 Ry     beta= 0.70
     Davidson diagonalization with overlap

---- Real-time Memory Report at c_bands before calling an iterative solver
           245 MiB given to the printing process from OS
             0 MiB allocation reported by mallinfo(arena+hblkhd)
        142144 MiB available memory on the node where the printing process lives
------------------
     ethr =  5.44E-08,  avg # of iterations =  1.0

     negative rho (up, down):  6.621E-02 0.000E+00

     total cpu time spent up to now is        8.8 secs

     total energy              =   -1341.86328974 Ry
     estimated scf accuracy    <       0.00003440 Ry

     iteration # 11     ecut=    30.00 Ry     beta= 0.70
     Davidson diagonalization with overlap

---- Real-time Memory Report at c_bands before calling an iterative solver
           245 MiB given to the printing process from OS
             0 MiB allocation reported by mallinfo(arena+hblkhd)
        142141 MiB available memory on the node where the printing process lives
------------------
     ethr =  4.30E-08,  avg # of iterations =  1.0

     negative rho (up, down):  6.621E-02 0.000E+00

     total cpu time spent up to now is        9.4 secs

     total energy              =   -1341.86328983 Ry
     estimated scf accuracy    <       0.00002050 Ry

     iteration # 12     ecut=    30.00 Ry     beta= 0.70
     Davidson diagonalization with overlap

---- Real-time Memory Report at c_bands before calling an iterative solver
           245 MiB given to the printing process from OS
             0 MiB allocation reported by mallinfo(arena+hblkhd)
        142147 MiB available memory on the node where the printing process lives
------------------
     ethr =  2.56E-08,  avg # of iterations =  1.0

     negative rho (up, down):  6.620E-02 0.000E+00

     total cpu time spent up to now is        9.9 secs

     total energy              =   -1341.86328988 Ry
     estimated scf accuracy    <       0.00001127 Ry

     iteration # 13     ecut=    30.00 Ry     beta= 0.70
     Davidson diagonalization with overlap

---- Real-time Memory Report at c_bands before calling an iterative solver
           245 MiB given to the printing process from OS
             0 MiB allocation reported by mallinfo(arena+hblkhd)
        142146 MiB available memory on the node where the printing process lives
------------------
     ethr =  1.41E-08,  avg # of iterations =  1.0

     negative rho (up, down):  6.620E-02 0.000E+00

     total cpu time spent up to now is       10.4 secs

     total energy              =   -1341.86328990 Ry
     estimated scf accuracy    <       0.00000348 Ry

     iteration # 14     ecut=    30.00 Ry     beta= 0.70
     Davidson diagonalization with overlap

---- Real-time Memory Report at c_bands before calling an iterative solver
           245 MiB given to the printing process from OS
             0 MiB allocation reported by mallinfo(arena+hblkhd)
        142146 MiB available memory on the node where the printing process lives
------------------
     ethr =  4.35E-09,  avg # of iterations =  1.0

     negative rho (up, down):  6.620E-02 0.000E+00

     total cpu time spent up to now is       10.9 secs

     End of self-consistent calculation

          k = 0.0000 0.0000 0.0000 (  2685 PWs)   bands (ev):

   -46.8070 -37.8580 -23.0351 -23.0351 -23.0351 -16.0565 -16.0565 -16.0565
   -15.4324 -15.2784  -6.9996  -6.4974  -6.4974  -6.0129  -6.0129  -6.0129
    -1.0949  -1.0949  -1.0949  -0.5713  -0.5713  -0.5713   5.7699   6.0200
     6.0200   7.2330   7.2330   7.2330   7.7570   7.7570   7.7570   8.7186
     8.7186   8.7186   9.4684   9.4684   9.4684   9.7213   9.7213   9.7213
    11.9964  11.9964  11.9964  14.4194  14.4194  14.6469  14.6469  14.9468
    14.9468  14.9468  15.8933  15.8933  15.8933  15.8955  18.1965  18.1965
    18.1965  19.1746  19.1746  19.5717  19.5717  20.8963  23.4595  23.4595

     occupation numbers 
     1.0000   1.0000   1.0000   1.0000   1.0000   1.0000   1.0000   1.0000
     1.0000   1.0000   1.0000   1.0000   1.0000   1.0000   1.0000   1.0000
     1.0000   1.0000   1.0000   1.0000   1.0000   1.0000   1.0000   1.0000
     1.0000   1.0000   1.0000   1.0000   1.0000   1.0000   1.0000   1.0000
     1.0000   1.0000   1.0000   1.0000   1.0000   1.0000   1.0000   1.0000
     0.0000   0.0000   0.0000   0.0000   0.0000   0.0000   0.0000   0.0000
     0.0000   0.0000   0.0000   0.0000   0.0000   0.0000   0.0000   0.0000
     0.0000   0.0000   0.0000   0.0000   0.0000   0.0000   0.0000   0.0000

          k = 0.0000 0.0000 0.4082 (  2659 PWs)   bands (ev):

   -46.8067 -37.8580 -23.0353 -23.0350 -23.0350 -16.0827 -16.0575 -16.0575
   -15.3683 -15.3028  -6.8777  -6.4477  -6.4477  -6.3944  -6.1027  -6.1027
    -0.8723  -0.8723  -0.6048  -0.6048  -0.5839  -0.3507   6.2383   6.4664
     6.4664   6.8780   6.9625   7.2725   7.2725   7.4321   7.4321   7.8832
     7.8832   8.2630   8.9632   9.0597   9.0597   9.2418   9.2418   9.4490
    12.6840  12.7235  12.7235  14.5205  14.5205  14.6023  15.3600  15.3600
    15.7806  15.7806  16.7555  16.8883  16.8883  17.0700  18.2424  18.2424
    18.4200  18.4200  18.5017  18.8984  18.8984  21.0354  23.1386  23.4991

     occupation numbers 
     1.0000   1.0000   1.0000   1.0000   1.0000   1.0000   1.0000   1.0000
     1.0000   1.0000   1.0000   1.0000   1.0000   1.0000   1.0000   1.0000
     1.0000   1.0000   1.0000   1.0000   1.0000   1.0000   1.0000   1.0000
     1.0000   1.0000   1.0000   1.0000   1.0000   1.0000   1.0000   1.0000
     1.0000   1.0000   1.0000   1.0000   1.0000   1.0000   1.0000   1.0000
     0.0000   0.0000   0.0000   0.0000   0.0000   0.0000   0.0000   0.0000
     0.0000   0.0000   0.0000   0.0000   0.0000   0.0000   0.0000   0.0000
     0.0000   0.0000   0.0000   0.0000   0.0000   0.0000   0.0000   0.0000

          k = 0.0000 0.3849-0.1361 (  2659 PWs)   bands (ev):

   -46.8067 -37.8580 -23.0353 -23.0350 -23.0350 -16.0827 -16.0575 -16.0575
   -15.3683 -15.3028  -6.8777  -6.4477  -6.4477  -6.3944  -6.1027  -6.1027
    -0.8723  -0.8723  -0.6048  -0.6048  -0.5839  -0.3507   6.2383   6.4664
     6.4664   6.8780   6.9625   7.2725   7.2725   7.4321   7.4321   7.8832
     7.8832   8.2630   8.9632   9.0597   9.0597   9.2418   9.2418   9.4490
    12.6840  12.7235  12.7235  14.5205  14.5205  14.6023  15.3600  15.3600
    15.7806  15.7806  16.7555  16.8883  16.8883  17.0700  18.2424  18.2424
    18.4200  18.4200  18.5017  18.8984  18.8984  21.0354  23.1386  23.4992

     occupation numbers 
     1.0000   1.0000   1.0000   1.0000   1.0000   1.0000   1.0000   1.0000
     1.0000   1.0000   1.0000   1.0000   1.0000   1.0000   1.0000   1.0000
     1.0000   1.0000   1.0000   1.0000   1.0000   1.0000   1.0000   1.0000
     1.0000   1.0000   1.0000   1.0000   1.0000   1.0000   1.0000   1.0000
     1.0000   1.0000   1.0000   1.0000   1.0000   1.0000   1.0000   1.0000
     0.0000   0.0000   0.0000   0.0000   0.0000   0.0000   0.0000   0.0000
     0.0000   0.0000   0.0000   0.0000   0.0000   0.0000   0.0000   0.0000
     0.0000   0.0000   0.0000   0.0000   0.0000   0.0000   0.0000   0.0000

          k = 0.0000 0.3849 0.2722 (  2670 PWs)   bands (ev):

   -46.8068 -37.8579 -23.0354 -23.0352 -23.0352 -16.0886 -16.0576 -16.0576
   -15.3482 -15.3095  -7.0866  -6.5455  -6.4789  -6.1243  -6.1007  -6.1007
    -0.7643  -0.7643  -0.5534  -0.5013  -0.5013  -0.4045   5.7866   6.0092
     6.2912   6.4388   7.2670   7.2670   7.5527   7.5527   7.6188   8.1200
     8.1200   8.1778   8.2015   8.9896   8.9896   9.1893   9.1893   9.6592
    12.1000  13.1031  13.1031  14.5340  14.7303  14.7303  14.9344  15.2477
    15.8587  16.0188  16.5432  17.5120  17.6512  17.7696  17.8497  17.8497
    18.6287  18.6287  18.7289  19.5543  19.5654  21.9458  22.2391  22.2392

     occupation numbers 
     1.0000   1.0000   1.0000   1.0000   1.0000   1.0000   1.0000   1.0000
     1.0000   1.0000   1.0000   1.0000   1.0000   1.0000   1.0000   1.0000
     1.0000   1.0000   1.0000   1.0000   1.0000   1.0000   1.0000   1.0000
     1.0000   1.0000   1.0000   1.0000   1.0000   1.0000   1.0000   1.0000
     1.0000   1.0000   1.0000   1.0000   1.0000   1.0000   1.0000   1.0000
     0.0000   0.0000   0.0000   0.0000   0.0000   0.0000   0.0000   0.0000
     0.0000   0.0000   0.0000   0.0000   0.0000   0.0000   0.0000   0.0000
     0.0000   0.0000   0.0000   0.0000   0.0000   0.0000   0.0000   0.0000

          k = 0.0000 0.3849-0.5443 (  2662 PWs)   bands (ev):

   -46.8068 -37.8579 -23.0354 -23.0353 -23.0351 -16.0795 -16.0745 -16.0581
   -15.3273 -15.3183  -6.9417  -6.7628  -6.4333  -6.2162  -6.1503  -6.0382
    -0.6427  -0.6330  -0.5149  -0.4894  -0.4186  -0.4090   5.8938   6.2527
     6.4579   6.5288   6.7948   7.1869   7.3420   7.3734   7.4245   7.6039
     8.1918   8.4313   8.6031   8.7356   8.7929   8.9120   8.9296   9.4041
    12.7639  13.0623  13.1226  14.5304  14.7295  14.7424  14.9867  15.3599
    16.6788  16.8545  17.1030  17.4028  17.6522  17.7529  17.8725  18.2130
    18.3006  18.6655  18.7986  18.8518  19.6984  21.2532  21.3989  22.7394

     occupation numbers 
     1.0000   1.0000   1.0000   1.0000   1.0000   1.0000   1.0000   1.0000
     1.0000   1.0000   1.0000   1.0000   1.0000   1.0000   1.0000   1.0000
     1.0000   1.0000   1.0000   1.0000   1.0000   1.0000   1.0000   1.0000
     1.0000   1.0000   1.0000   1.0000   1.0000   1.0000   1.0000   1.0000
     1.0000   1.0000   1.0000   1.0000   1.0000   1.0000   1.0000   1.0000
     0.0000   0.0000   0.0000   0.0000   0.0000   0.0000   0.0000   0.0000
     0.0000   0.0000   0.0000   0.0000   0.0000   0.0000   0.0000   0.0000
     0.0000   0.0000   0.0000   0.0000   0.0000   0.0000   0.0000   0.0000

          k = 0.3333-0.5774-0.0000 (  2662 PWs)   bands (ev):

   -46.8068 -37.8579 -23.0354 -23.0353 -23.0351 -16.0795 -16.0745 -16.0581
   -15.3273 -15.3183  -6.9417  -6.7628  -6.4333  -6.2162  -6.1503  -6.0382
    -0.6427  -0.6330  -0.5149  -0.4894  -0.4186  -0.4090   5.8938   6.2527
     6.4579   6.5288   6.7948   7.1869   7.3420   7.3734   7.4245   7.6039
     8.1918   8.4313   8.6031   8.7356   8.7929   8.9120   8.9296   9.4041
    12.7639  13.0623  13.1226  14.5304  14.7295  14.7424  14.9867  15.3599
    16.6788  16.8545  17.1030  17.4028  17.6522  17.7529  17.8725  18.2130
    18.3006  18.6655  18.7986  18.8518  19.6984  21.2532  21.3989  22.7392

     occupation numbers 
     1.0000   1.0000   1.0000   1.0000   1.0000   1.0000   1.0000   1.0000
     1.0000   1.0000   1.0000   1.0000   1.0000   1.0000   1.0000   1.0000
     1.0000   1.0000   1.0000   1.0000   1.0000   1.0000   1.0000   1.0000
     1.0000   1.0000   1.0000   1.0000   1.0000   1.0000   1.0000   1.0000
     1.0000   1.0000   1.0000   1.0000   1.0000   1.0000   1.0000   1.0000
     0.0000   0.0000   0.0000   0.0000   0.0000   0.0000   0.0000   0.0000
     0.0000   0.0000   0.0000   0.0000   0.0000   0.0000   0.0000   0.0000
     0.0000   0.0000   0.0000   0.0000   0.0000   0.0000   0.0000   0.0000

     highest occupied, lowest unoccupied level (ev):     9.7213   11.9964

!    total energy              =   -1341.86328992 Ry
     estimated scf accuracy    <       0.00000042 Ry

     The total energy is the sum of the following terms:
     one-electron contribution =    -125.82987277 Ry
     hartree contribution      =     111.84383059 Ry
     xc contribution           =    -121.27624470 Ry
     ewald contribution        =    -399.55206156 Ry
     one-center paw contrib.   =    -807.04894148 Ry
      -> PAW hartree energy AE =      57.65093607 Ry
      -> PAW hartree energy PS =     -57.42671041 Ry
      -> PAW xc energy AE      =    -788.49647900 Ry
      -> PAW xc energy PS      =      38.35681813 Ry
      -> total E_H with PAW    =     112.06805625 Ry
      -> total E_XC with PAW   =    -871.41590556 Ry

     convergence has been achieved in  14 iterations

     Writing all to output data dir calculations_bands_val/myprefix.save/
 
     init_run     :      6.16s CPU      1.88s WALL (       1 calls)
     electrons    :     32.26s CPU      8.66s WALL (       1 calls)

     Called by init_run:
     wfcinit      :      0.60s CPU      0.22s WALL (       1 calls)
     wfcinit:atom :      0.00s CPU      0.00s WALL (       3 calls)
     wfcinit:wfcr :      0.58s CPU      0.21s WALL (       3 calls)
     potinit      :      2.07s CPU      0.57s WALL (       1 calls)
     hinit0       :      2.40s CPU      0.73s WALL (       1 calls)

     Called by electrons:
     c_bands      :     13.51s CPU      3.56s WALL (      14 calls)
     sum_band     :      5.26s CPU      1.49s WALL (      14 calls)
     v_of_rho     :      0.91s CPU      0.24s WALL (      15 calls)
     v_h          :      0.05s CPU      0.01s WALL (      15 calls)
     v_xc         :      0.85s CPU      0.23s WALL (      15 calls)
     newd         :      2.62s CPU      0.74s WALL (      15 calls)
     PAW_pot      :     10.50s CPU      2.77s WALL (      15 calls)
     mix_rho      :      0.20s CPU      0.06s WALL (      14 calls)

     Called by c_bands:
     init_us_2    :      0.08s CPU      0.02s WALL (      87 calls)
     init_us_2:cp :      0.08s CPU      0.02s WALL (      87 calls)
     cegterg      :     11.62s CPU      3.06s WALL (      42 calls)

     Called by sum_band:
     sum_band:wei :      0.00s CPU      0.00s WALL (      14 calls)
     sum_band:loo :      1.99s CPU      0.52s WALL (      14 calls)
     sum_band:buf :      0.02s CPU      0.01s WALL (      42 calls)
     sum_band:ini :      0.04s CPU      0.01s WALL (      42 calls)
     sum_band:cal :      0.09s CPU      0.02s WALL (      42 calls)
     sum_band:bec :      0.02s CPU      0.00s WALL (      42 calls)
     addusdens    :      2.20s CPU      0.68s WALL (      14 calls)
     addusd:skk   :      0.01s CPU      0.00s WALL (      56 calls)
     addusd:dgemm :      0.25s CPU      0.18s WALL (      56 calls)
     addusd:qvan2 :      1.25s CPU      0.31s WALL (      56 calls)

     Called by *egterg:
     cdiaghg      :      2.31s CPU      0.61s WALL (     133 calls)
     cegterg:over :      0.39s CPU      0.10s WALL (      91 calls)
     cegterg:upda :      0.17s CPU      0.04s WALL (      91 calls)
     cegterg:last :      0.24s CPU      0.06s WALL (      64 calls)
     cdiaghg:chol :      0.16s CPU      0.04s WALL (     133 calls)
     cdiaghg:inve :      0.03s CPU      0.01s WALL (     133 calls)
     cdiaghg:para :      0.38s CPU      0.10s WALL (     266 calls)
     h_psi        :      8.63s CPU      2.31s WALL (     136 calls)
     s_psi        :      0.11s CPU      0.03s WALL (     136 calls)
     g_psi        :      0.01s CPU      0.00s WALL (      91 calls)

     Called by h_psi:
     h_psi:calbec :      0.26s CPU      0.07s WALL (     136 calls)
     vloc_psi     :      8.17s CPU      2.18s WALL (     136 calls)
     add_vuspsi   :      0.16s CPU      0.04s WALL (     136 calls)

     General routines
     calbec       :      0.34s CPU      0.09s WALL (     178 calls)
     fft          :      2.00s CPU      0.59s WALL (     193 calls)
     ffts         :      1.06s CPU      0.30s WALL (      29 calls)
     fftw         :      8.74s CPU      2.32s WALL (   14882 calls)
     interpolate  :      1.11s CPU      0.32s WALL (      15 calls)
 
     Parallel routines

     PAW routines
     PAW_pot      :     10.50s CPU      2.77s WALL (      15 calls)
     PAW_symme    :      0.05s CPU      0.01s WALL (      29 calls)
 
     PWSCF        :     39.77s CPU     11.24s WALL

 
   This run was terminated on:  14:38:18   4Jun2023            

=------------------------------------------------------------------------------=
   JOB DONE.
=------------------------------------------------------------------------------=
