
     Program PWSCF v.7.0 starts on  4Jun2023 at 12:56:39 

     This program is part of the open-source Quantum ESPRESSO suite
     for quantum simulation of materials; please cite
         "P. Giannozzi et al., J. Phys.:Condens. Matter 21 395502 (2009);
         "P. Giannozzi et al., J. Phys.:Condens. Matter 29 465901 (2017);
         "P. Giannozzi et al., J. Chem. Phys. 152 154105 (2020);
          URL http://www.quantum-espresso.org", 
     in publications or presentations arising from this work. More details at
     http://www.quantum-espresso.org/quote

     Parallel version (MPI & OpenMP), running on      32 processor cores
     Number of MPI processes:                 8
     Threads/MPI process:                     4

     MPI processes distributed on     1 nodes
     K-points division:     npool     =       2
     R & G space division:  proc/nbgrp/npool/nimage =       4
     142182 MiB available memory on the printing compute node when the environment starts
 
     Reading input from espresso_507.pwi
Warning: card &CELL ignored
Warning: card / ignored

     Current dimensions of program PWSCF are:
     Max number of different atomic species (ntypx) = 10
     Max number of k-points (npk) =  40000
     Max angular momentum in pseudopotentials (lmaxx) =  4
     file O.pbe-n-kjpaw_psl.0.1.UPF: wavefunction(s)  2P renormalized
     Message from routine setup:
     using ibrav=0 with symmetry is DISCOURAGED, use correct ibrav instead

     Subspace diagonalization in iterative solution of the eigenvalue problem:
     one sub-group per band group will be used
     scalapack distributed-memory algorithm (size of sub-group:  2*  2 procs)

 
     Parallelization info
     --------------------
     sticks:   dense  smooth     PW     G-vecs:    dense   smooth      PW
     Min         475     240     74                10263     3645     634
     Max         476     241     75                10264     3646     635
     Sum        1903     961    299                41055    14583    2539
 
     Using Slab Decomposition
 


     bravais-lattice index     =            0
     lattice parameter (alat)  =      13.5708  a.u.
     unit-cell volume          =     654.4340 (a.u.)^3
     number of atoms/cell      =            6
     number of atomic types    =            3
     number of electrons       =        48.00
     number of Kohn-Sham states=           64
     kinetic-energy cutoff     =      30.0000  Ry
     charge density cutoff     =     240.0000  Ry
     scf convergence threshold =      1.0E-06
     mixing beta               =       0.7000
     number of iterations used =            8  plain     mixing
     Exchange-correlation=  SLA  PW   PBX  PBC
                           (   1   4   3   4   0   0   0)

     celldm(1)=  13.570809  celldm(2)=   0.000000  celldm(3)=   0.000000
     celldm(4)=   0.000000  celldm(5)=   0.000000  celldm(6)=   0.000000

     crystal axes: (cart. coord. in units of alat)
               a(1) = (   1.000000   0.000000   0.000000 )  
               a(2) = (   0.840054   0.542502   0.000000 )  
               a(3) = (   0.840054   0.247673   0.482666 )  

     reciprocal axes: (cart. coord. in units 2 pi/alat)
               b(1) = (  1.000000 -1.548481 -0.945866 )  
               b(2) = (  0.000000  1.843310 -0.945866 )  
               b(3) = (  0.000000  0.000000  2.071824 )  


     PseudoPot. # 1 for La read from file:
     /home/pragov/projects/rrg-bengioy-ad/pragov/crystal_structure_design/SSSP/La.GGA-PBE-paw-v1.0.UPF
     MD5 check sum: 436541e95c1ad8901025bd0b0ed42ae2
     Pseudo is Projector augmented-wave + core cor, Zval = 11.0
     Generated using ATOMPAW code
     Shape of augmentation charge: BESSEL
     Using radial grid of 1101 points,  8 beta functions with: 
                l(1) =   0
                l(2) =   0
                l(3) =   1
                l(4) =   1
                l(5) =   2
                l(6) =   2
                l(7) =   3
                l(8) =   3
     Q(r) pseudized with 0 coefficients 


     PseudoPot. # 2 for O  read from file:
     /home/pragov/projects/rrg-bengioy-ad/pragov/crystal_structure_design/SSSP/O.pbe-n-kjpaw_psl.0.1.UPF
     MD5 check sum: 0234752ac141de4415c5fc33072bef88
     Pseudo is Projector augmented-wave + core cor, Zval =  6.0
     Generated using "atomic" code by A. Dal Corso  v.5.0.99 svn rev. 10869
     Shape of augmentation charge: BESSEL
     Using radial grid of 1095 points,  4 beta functions with: 
                l(1) =   0
                l(2) =   0
                l(3) =   1
                l(4) =   1
     Q(r) pseudized with 0 coefficients 


     PseudoPot. # 3 for F  read from file:
     /home/pragov/projects/rrg-bengioy-ad/pragov/crystal_structure_design/SSSP/f_pbe_v1.4.uspp.F.UPF
     MD5 check sum: 4c38b6a325caf53ec0e86aed9459de46
     Pseudo is Ultrasoft, Zval =  7.0
     Generated by new atomic code, or converted to UPF format
     Using radial grid of  799 points,  4 beta functions with: 
                l(1) =   0
                l(2) =   0
                l(3) =   1
                l(4) =   1
     Q(r) pseudized with  8 coefficients,  rinner =    0.950   0.950   0.950


     atomic species   valence    mass     pseudopotential
        La            11.00   138.90547     La( 1.00)
        O              6.00    15.99900     O ( 1.00)
        F              7.00    18.99840     F ( 1.00)

      2 Sym. Ops., with inversion, found


                                    s                        frac. trans.

      isym =  1     identity                                     

 cryst.   s( 1) = (     1          0          0      )
                  (     0          1          0      )
                  (     0          0          1      )

 cart.    s( 1) = (  1.0000000 -0.0000000  0.0000000 )
                  (  0.0000000  1.0000000  0.0000000 )
                  (  0.0000000  0.0000000  1.0000000 )


      isym =  2     inversion                                    

 cryst.   s( 2) = (    -1          0          0      )
                  (     0         -1          0      )
                  (     0          0         -1      )

 cart.    s( 2) = ( -1.0000000  0.0000000 -0.0000000 )
                  (  0.0000000 -1.0000000 -0.0000000 )
                  (  0.0000000  0.0000000 -1.0000000 )


   Cartesian axes

     site n.     atom                  positions (alat units)
         1           La  tau(   1) = (   1.9866870   0.5857338   0.3577867  )
         2           La  tau(   2) = (   0.6934219   0.2044412   0.1248798  )
         3           O   tau(   3) = (   1.6705922   0.4925398   0.3008605  )
         4           O   tau(   4) = (   1.0095166   0.2976352   0.1818060  )
         5           F   tau(   5) = (   0.3450855   0.1017414   0.0621472  )
         6           F   tau(   6) = (   2.3350234   0.6884337   0.4205193  )

   Crystallographic axes

     site n.     atom                  positions (cryst. coord.)
         1           La  tau(   1) = (  0.7412710  0.7412710  0.7412710  )
         2           La  tau(   2) = (  0.2587290  0.2587290  0.2587290  )
         3           O   tau(   3) = (  0.6233300  0.6233300  0.6233300  )
         4           O   tau(   4) = (  0.3766700  0.3766700  0.3766700  )
         5           F   tau(   5) = (  0.1287580  0.1287580  0.1287580  )
         6           F   tau(   6) = (  0.8712420  0.8712420  0.8712420  )

     number of k points=    14
                       cart. coord. in units 2pi/alat
        k(    1) = (   0.0000000   0.0000000   0.0000000), wk =   0.0740741
        k(    2) = (   0.0000000   0.0000000   0.6906080), wk =   0.1481481
        k(    3) = (   0.0000000   0.6144368  -0.3152887), wk =   0.1481481
        k(    4) = (   0.0000000   0.6144368   0.3753193), wk =   0.1481481
        k(    5) = (   0.0000000   0.6144368  -1.0058967), wk =   0.1481481
        k(    6) = (   0.3333333  -0.5161603  -0.3152887), wk =   0.1481481
        k(    7) = (   0.3333333  -0.5161603   0.3753193), wk =   0.1481481
        k(    8) = (   0.3333333  -0.5161603  -1.0058967), wk =   0.1481481
        k(    9) = (   0.3333333   0.0982765  -0.6305774), wk =   0.1481481
        k(   10) = (   0.3333333   0.0982765   0.0600306), wk =   0.1481481
        k(   11) = (   0.3333333   0.0982765  -1.3211854), wk =   0.1481481
        k(   12) = (   0.3333333  -1.1305971   0.0000000), wk =   0.1481481
        k(   13) = (   0.3333333  -1.1305971   0.6906080), wk =   0.1481481
        k(   14) = (   0.3333333  -1.1305971  -0.6906080), wk =   0.1481481

                       cryst. coord.
        k(    1) = (   0.0000000   0.0000000   0.0000000), wk =   0.0740741
        k(    2) = (   0.0000000   0.0000000   0.3333333), wk =   0.1481481
        k(    3) = (   0.0000000   0.3333333   0.0000000), wk =   0.1481481
        k(    4) = (   0.0000000   0.3333333   0.3333333), wk =   0.1481481
        k(    5) = (   0.0000000   0.3333333  -0.3333333), wk =   0.1481481
        k(    6) = (   0.3333333  -0.0000000  -0.0000000), wk =   0.1481481
        k(    7) = (   0.3333333  -0.0000000   0.3333333), wk =   0.1481481
        k(    8) = (   0.3333333  -0.0000000  -0.3333333), wk =   0.1481481
        k(    9) = (   0.3333333   0.3333333   0.0000000), wk =   0.1481481
        k(   10) = (   0.3333333   0.3333333   0.3333333), wk =   0.1481481
        k(   11) = (   0.3333333   0.3333333  -0.3333333), wk =   0.1481481
        k(   12) = (   0.3333333  -0.3333333   0.0000000), wk =   0.1481481
        k(   13) = (   0.3333333  -0.3333333   0.3333333), wk =   0.1481481
        k(   14) = (   0.3333333  -0.3333333  -0.3333333), wk =   0.1481481

     Dense  grid:    41055 G-vectors     FFT dimensions: (  72,  72,  72)

     Smooth grid:    14583 G-vectors     FFT dimensions: (  48,  48,  48)

     Dynamical RAM for                 wfc:       0.44 MB

     Dynamical RAM for     wfc (w. buffer):       3.55 MB

     Dynamical RAM for           str. fact:       0.47 MB

     Dynamical RAM for           local pot:       0.00 MB

     Dynamical RAM for          nlocal pot:       0.67 MB

     Dynamical RAM for                qrad:       8.96 MB

     Dynamical RAM for          rho,v,vnew:       2.61 MB

     Dynamical RAM for               rhoin:       0.87 MB

     Dynamical RAM for            rho*nmix:       2.51 MB

     Dynamical RAM for           G-vectors:       0.62 MB

     Dynamical RAM for          h,s,v(r/c):       0.19 MB

     Dynamical RAM for          <psi|beta>:       0.09 MB

     Dynamical RAM for                 psi:       0.89 MB

     Dynamical RAM for                hpsi:       0.89 MB

     Dynamical RAM for                spsi:       0.89 MB

     Dynamical RAM for      wfcinit/wfcrot:       1.26 MB

     Dynamical RAM for           addusdens:      43.69 MB

     Estimated static dynamical RAM per process >      21.91 MB

     Estimated max dynamical RAM per process >      68.11 MB

     Estimated total dynamical RAM >     534.84 MB

     Check: negative core charge=   -0.000007

     Initial potential from superposition of free atoms

     starting charge      47.9829, renormalised to      48.0000
     Starting wfcs are   80 randomized atomic wfcs
     Checking if some PAW data can be deallocated... 
       PAW data deallocated on    4 nodes for type:  1
       PAW data deallocated on    6 nodes for type:  2

     total cpu time spent up to now is        2.9 secs

     Self-consistent Calculation

     iteration #  1     ecut=    30.00 Ry     beta= 0.70
     Davidson diagonalization with overlap

---- Real-time Memory Report at c_bands before calling an iterative solver
           216 MiB given to the printing process from OS
             0 MiB allocation reported by mallinfo(arena+hblkhd)
        141390 MiB available memory on the node where the printing process lives
------------------
     ethr =  1.00E-02,  avg # of iterations =  7.4

     total cpu time spent up to now is        4.5 secs

     total energy              =   -1097.25434094 Ry
     estimated scf accuracy    <       1.41912389 Ry

     iteration #  2     ecut=    30.00 Ry     beta= 0.70
     Davidson diagonalization with overlap

---- Real-time Memory Report at c_bands before calling an iterative solver
           279 MiB given to the printing process from OS
             0 MiB allocation reported by mallinfo(arena+hblkhd)
        141240 MiB available memory on the node where the printing process lives
------------------
     ethr =  2.96E-03,  avg # of iterations =  2.0

     total cpu time spent up to now is        5.6 secs

     total energy              =   -1096.45821349 Ry
     estimated scf accuracy    <       6.72419229 Ry

     iteration #  3     ecut=    30.00 Ry     beta= 0.70
     Davidson diagonalization with overlap

---- Real-time Memory Report at c_bands before calling an iterative solver
           285 MiB given to the printing process from OS
             0 MiB allocation reported by mallinfo(arena+hblkhd)
        141197 MiB available memory on the node where the printing process lives
------------------
     ethr =  2.96E-03,  avg # of iterations =  2.1

     total cpu time spent up to now is        6.6 secs

     total energy              =   -1097.95234210 Ry
     estimated scf accuracy    <       0.25603512 Ry

     iteration #  4     ecut=    30.00 Ry     beta= 0.70
     Davidson diagonalization with overlap

---- Real-time Memory Report at c_bands before calling an iterative solver
           289 MiB given to the printing process from OS
             0 MiB allocation reported by mallinfo(arena+hblkhd)
        141172 MiB available memory on the node where the printing process lives
------------------
     ethr =  5.33E-04,  avg # of iterations =  1.5

     total cpu time spent up to now is        7.7 secs

     total energy              =   -1097.96089651 Ry
     estimated scf accuracy    <       0.06824288 Ry

     iteration #  5     ecut=    30.00 Ry     beta= 0.70
     Davidson diagonalization with overlap

---- Real-time Memory Report at c_bands before calling an iterative solver
           289 MiB given to the printing process from OS
             0 MiB allocation reported by mallinfo(arena+hblkhd)
        141171 MiB available memory on the node where the printing process lives
------------------
     ethr =  1.42E-04,  avg # of iterations =  2.2

     total cpu time spent up to now is        8.7 secs

     total energy              =   -1097.95467881 Ry
     estimated scf accuracy    <       0.02506472 Ry

     iteration #  6     ecut=    30.00 Ry     beta= 0.70
     Davidson diagonalization with overlap

---- Real-time Memory Report at c_bands before calling an iterative solver
           289 MiB given to the printing process from OS
             0 MiB allocation reported by mallinfo(arena+hblkhd)
        141170 MiB available memory on the node where the printing process lives
------------------
     ethr =  5.22E-05,  avg # of iterations =  4.1

     total cpu time spent up to now is        9.8 secs

     total energy              =   -1097.95930531 Ry
     estimated scf accuracy    <       0.00007404 Ry

     iteration #  7     ecut=    30.00 Ry     beta= 0.70
     Davidson diagonalization with overlap

---- Real-time Memory Report at c_bands before calling an iterative solver
           289 MiB given to the printing process from OS
             0 MiB allocation reported by mallinfo(arena+hblkhd)
        141172 MiB available memory on the node where the printing process lives
------------------
     ethr =  1.54E-07,  avg # of iterations =  9.0

     total cpu time spent up to now is       11.4 secs

     total energy              =   -1097.95933275 Ry
     estimated scf accuracy    <       0.00004309 Ry

     iteration #  8     ecut=    30.00 Ry     beta= 0.70
     Davidson diagonalization with overlap

---- Real-time Memory Report at c_bands before calling an iterative solver
           291 MiB given to the printing process from OS
             0 MiB allocation reported by mallinfo(arena+hblkhd)
        141154 MiB available memory on the node where the printing process lives
------------------
     ethr =  8.98E-08,  avg # of iterations =  1.0

     total cpu time spent up to now is       12.4 secs

     total energy              =   -1097.95933106 Ry
     estimated scf accuracy    <       0.00001054 Ry

     iteration #  9     ecut=    30.00 Ry     beta= 0.70
     Davidson diagonalization with overlap

---- Real-time Memory Report at c_bands before calling an iterative solver
           292 MiB given to the printing process from OS
             0 MiB allocation reported by mallinfo(arena+hblkhd)
        141153 MiB available memory on the node where the printing process lives
------------------
     ethr =  2.20E-08,  avg # of iterations =  2.0

     total cpu time spent up to now is       13.5 secs

     End of self-consistent calculation

          k = 0.0000 0.0000 0.0000 (  1811 PWs)   bands (ev):

   -21.7095 -21.5393 -13.9229 -13.5726  -8.3393  -7.3325  -5.2497  -5.2497
    -5.0589  -5.0589  -5.0217  -4.1977   3.8644   4.0162   4.0162   4.6373
     4.6373   4.9706   6.8400   6.8460   6.8460   7.0094   7.0094   7.7536
    12.7666  13.4139  13.4139  13.4553  13.5398  13.5399  13.5442  13.5442
    13.5552  13.5910  13.5911  13.6054  13.6207  13.7715  13.9943  14.3991
    14.3991  14.9388  14.9388  15.6452  16.0875  17.9160  17.9160  18.4642
    18.4642  19.1140  20.4689  22.9517  23.0049  23.0049  25.9985  25.9985
    26.3498  28.3276  28.3276  28.4281  30.1555  30.1555  31.1056  31.3026

     occupation numbers 
     1.0000   1.0000   1.0000   1.0000   1.0000   1.0000   1.0000   1.0000
     1.0000   1.0000   1.0000   1.0000   1.0000   1.0000   1.0000   1.0000
     1.0000   1.0000   1.0000   1.0000   1.0000   1.0000   1.0000   1.0000
     0.0000   0.0000   0.0000   0.0000   0.0000   0.0000   0.0000   0.0000
     0.0000   0.0000   0.0000   0.0000   0.0000   0.0000   0.0000   0.0000
     0.0000   0.0000   0.0000   0.0000   0.0000   0.0000   0.0000   0.0000
     0.0000   0.0000   0.0000   0.0000   0.0000   0.0000   0.0000   0.0000
     0.0000   0.0000   0.0000   0.0000   0.0000   0.0000   0.0000   0.0000

          k = 0.0000 0.0000 0.6906 (  1810 PWs)   bands (ev):

   -21.5901 -21.4998 -13.9190 -13.7306  -8.6793  -8.2866  -5.4089  -5.2941
    -5.2372  -5.0517  -4.3372  -3.8336   4.1978   4.2816   4.3276   4.8963
     4.9606   5.0612   6.4191   6.8834   6.9699   7.3223   7.5642   7.7227
    12.7548  13.2810  13.3106  13.4028  13.4108  13.4476  13.4632  13.5406
    13.6073  13.6216  13.6368  13.6468  13.6558  13.8608  14.2192  14.4085
    14.7490  15.3227  15.5281  16.1996  16.6385  16.9623  17.6599  17.9727
    18.0758  20.1090  21.3935  21.9937  22.8348  23.8230  24.6771  25.6929
    26.7935  26.9514  27.6166  27.7656  27.8075  28.7916  29.6850  30.3842

     occupation numbers 
     1.0000   1.0000   1.0000   1.0000   1.0000   1.0000   1.0000   1.0000
     1.0000   1.0000   1.0000   1.0000   1.0000   1.0000   1.0000   1.0000
     1.0000   1.0000   1.0000   1.0000   1.0000   1.0000   1.0000   1.0000
     0.0000   0.0000   0.0000   0.0000   0.0000   0.0000   0.0000   0.0000
     0.0000   0.0000   0.0000   0.0000   0.0000   0.0000   0.0000   0.0000
     0.0000   0.0000   0.0000   0.0000   0.0000   0.0000   0.0000   0.0000
     0.0000   0.0000   0.0000   0.0000   0.0000   0.0000   0.0000   0.0000
     0.0000   0.0000   0.0000   0.0000   0.0000   0.0000   0.0000   0.0000

          k = 0.0000 0.6144-0.3153 (  1810 PWs)   bands (ev):

   -21.5901 -21.4998 -13.9190 -13.7306  -8.6793  -8.2866  -5.4089  -5.2941
    -5.2372  -5.0517  -4.3372  -3.8336   4.1978   4.2816   4.3276   4.8963
     4.9606   5.0612   6.4191   6.8834   6.9699   7.3223   7.5642   7.7227
    12.7548  13.2810  13.3105  13.4028  13.4108  13.4476  13.4632  13.5406
    13.6073  13.6216  13.6368  13.6468  13.6559  13.8609  14.2192  14.4085
    14.7490  15.3227  15.5281  16.1996  16.6385  16.9623  17.6599  17.9728
    18.0758  20.1090  21.3935  21.9937  22.8348  23.8230  24.6771  25.6929
    26.7935  26.9514  27.6166  27.7656  27.8075  28.7916  29.6850  30.3844

     occupation numbers 
     1.0000   1.0000   1.0000   1.0000   1.0000   1.0000   1.0000   1.0000
     1.0000   1.0000   1.0000   1.0000   1.0000   1.0000   1.0000   1.0000
     1.0000   1.0000   1.0000   1.0000   1.0000   1.0000   1.0000   1.0000
     0.0000   0.0000   0.0000   0.0000   0.0000   0.0000   0.0000   0.0000
     0.0000   0.0000   0.0000   0.0000   0.0000   0.0000   0.0000   0.0000
     0.0000   0.0000   0.0000   0.0000   0.0000   0.0000   0.0000   0.0000
     0.0000   0.0000   0.0000   0.0000   0.0000   0.0000   0.0000   0.0000
     0.0000   0.0000   0.0000   0.0000   0.0000   0.0000   0.0000   0.0000

          k = 0.0000 0.6144 0.3753 (  1823 PWs)   bands (ev):

   -21.5898 -21.4999 -13.9243 -13.7302  -8.6461  -8.2730  -5.4521  -5.3662
    -5.1901  -5.1788  -4.2659  -3.7352   4.0505   4.2120   4.2772   4.9678
     5.0259   5.0900   6.6327   6.9426   6.9505   7.2000   7.5348   7.6690
    12.8481  13.2306  13.2549  13.3791  13.4279  13.4604  13.4623  13.5366
    13.6099  13.6185  13.6581  13.6880  13.6995  13.8115  14.1078  14.6032
    14.7891  15.1669  15.6717  15.8664  16.9766  17.2981  17.6832  17.8681
    17.9577  19.6168  20.6704  21.9727  23.8562  23.9507  25.0955  25.2446
    25.7787  26.2821  27.6151  28.0058  28.2051  29.3803  30.2673  30.8359

     occupation numbers 
     1.0000   1.0000   1.0000   1.0000   1.0000   1.0000   1.0000   1.0000
     1.0000   1.0000   1.0000   1.0000   1.0000   1.0000   1.0000   1.0000
     1.0000   1.0000   1.0000   1.0000   1.0000   1.0000   1.0000   1.0000
     0.0000   0.0000   0.0000   0.0000   0.0000   0.0000   0.0000   0.0000
     0.0000   0.0000   0.0000   0.0000   0.0000   0.0000   0.0000   0.0000
     0.0000   0.0000   0.0000   0.0000   0.0000   0.0000   0.0000   0.0000
     0.0000   0.0000   0.0000   0.0000   0.0000   0.0000   0.0000   0.0000
     0.0000   0.0000   0.0000   0.0000   0.0000   0.0000   0.0000   0.0000

          k = 0.0000 0.6144-1.0059 (  1821 PWs)   bands (ev):

   -21.5041 -21.5041 -13.8649 -13.8636  -8.7366  -8.7252  -5.5559  -5.3608
    -5.2803  -5.1738  -3.8108  -3.7529   4.1963   4.3800   4.3972   4.9806
     4.9939   5.2907   6.8439   7.0664   7.0740   7.2270   7.2651   8.1853
    12.4498  13.1158  13.2926  13.3897  13.3949  13.4306  13.4606  13.4635
    13.4866  13.6212  13.6438  13.6852  13.8296  13.8749  13.9024  14.6997
    14.9552  15.4248  15.5698  15.7619  16.5665  16.6899  17.7620  17.7997
    19.6764  20.7085  21.6892  21.9970  22.4226  24.1944  24.3591  25.9134
    26.5254  26.5979  26.9679  27.1115  27.6129  28.3795  29.3562  29.5852

     occupation numbers 
     1.0000   1.0000   1.0000   1.0000   1.0000   1.0000   1.0000   1.0000
     1.0000   1.0000   1.0000   1.0000   1.0000   1.0000   1.0000   1.0000
     1.0000   1.0000   1.0000   1.0000   1.0000   1.0000   1.0000   1.0000
     0.0000   0.0000   0.0000   0.0000   0.0000   0.0000   0.0000   0.0000
     0.0000   0.0000   0.0000   0.0000   0.0000   0.0000   0.0000   0.0000
     0.0000   0.0000   0.0000   0.0000   0.0000   0.0000   0.0000   0.0000
     0.0000   0.0000   0.0000   0.0000   0.0000   0.0000   0.0000   0.0000
     0.0000   0.0000   0.0000   0.0000   0.0000   0.0000   0.0000   0.0000

          k = 0.3333-0.5162-0.3153 (  1810 PWs)   bands (ev):

   -21.5901 -21.4998 -13.9190 -13.7306  -8.6793  -8.2866  -5.4089  -5.2941
    -5.2372  -5.0517  -4.3372  -3.8335   4.1978   4.2816   4.3276   4.8963
     4.9606   5.0612   6.4191   6.8834   6.9699   7.3223   7.5642   7.7227
    12.7548  13.2810  13.3106  13.4028  13.4108  13.4476  13.4632  13.5406
    13.6073  13.6216  13.6368  13.6468  13.6558  13.8608  14.2192  14.4085
    14.7490  15.3227  15.5281  16.1996  16.6385  16.9623  17.6599  17.9728
    18.0758  20.1090  21.3935  21.9937  22.8348  23.8230  24.6771  25.6929
    26.7935  26.9514  27.6166  27.7656  27.8075  28.7916  29.6848  30.3839

     occupation numbers 
     1.0000   1.0000   1.0000   1.0000   1.0000   1.0000   1.0000   1.0000
     1.0000   1.0000   1.0000   1.0000   1.0000   1.0000   1.0000   1.0000
     1.0000   1.0000   1.0000   1.0000   1.0000   1.0000   1.0000   1.0000
     0.0000   0.0000   0.0000   0.0000   0.0000   0.0000   0.0000   0.0000
     0.0000   0.0000   0.0000   0.0000   0.0000   0.0000   0.0000   0.0000
     0.0000   0.0000   0.0000   0.0000   0.0000   0.0000   0.0000   0.0000
     0.0000   0.0000   0.0000   0.0000   0.0000   0.0000   0.0000   0.0000
     0.0000   0.0000   0.0000   0.0000   0.0000   0.0000   0.0000   0.0000

          k = 0.3333-0.5162 0.3753 (  1823 PWs)   bands (ev):

   -21.5898 -21.4999 -13.9243 -13.7302  -8.6461  -8.2730  -5.4521  -5.3662
    -5.1901  -5.1788  -4.2659  -3.7352   4.0505   4.2120   4.2772   4.9678
     5.0259   5.0900   6.6327   6.9426   6.9505   7.2000   7.5348   7.6690
    12.8481  13.2306  13.2549  13.3790  13.4279  13.4604  13.4623  13.5366
    13.6099  13.6185  13.6581  13.6880  13.6995  13.8115  14.1078  14.6032
    14.7891  15.1669  15.6717  15.8664  16.9767  17.2981  17.6831  17.8681
    17.9577  19.6168  20.6704  21.9727  23.8562  23.9507  25.0955  25.2446
    25.7787  26.2821  27.6150  28.0058  28.2051  29.3803  30.2673  30.8358

     occupation numbers 
     1.0000   1.0000   1.0000   1.0000   1.0000   1.0000   1.0000   1.0000
     1.0000   1.0000   1.0000   1.0000   1.0000   1.0000   1.0000   1.0000
     1.0000   1.0000   1.0000   1.0000   1.0000   1.0000   1.0000   1.0000
     0.0000   0.0000   0.0000   0.0000   0.0000   0.0000   0.0000   0.0000
     0.0000   0.0000   0.0000   0.0000   0.0000   0.0000   0.0000   0.0000
     0.0000   0.0000   0.0000   0.0000   0.0000   0.0000   0.0000   0.0000
     0.0000   0.0000   0.0000   0.0000   0.0000   0.0000   0.0000   0.0000
     0.0000   0.0000   0.0000   0.0000   0.0000   0.0000   0.0000   0.0000

          k = 0.3333-0.5162-1.0059 (  1821 PWs)   bands (ev):

   -21.5041 -21.5041 -13.8649 -13.8636  -8.7366  -8.7252  -5.5559  -5.3608
    -5.2803  -5.1738  -3.8108  -3.7529   4.1963   4.3800   4.3972   4.9806
     4.9939   5.2907   6.8439   7.0664   7.0740   7.2270   7.2651   8.1853
    12.4498  13.1158  13.2926  13.3897  13.3949  13.4306  13.4606  13.4635
    13.4866  13.6212  13.6438  13.6852  13.8296  13.8749  13.9024  14.6997
    14.9552  15.4248  15.5698  15.7619  16.5665  16.6899  17.7621  17.7997
    19.6764  20.7085  21.6892  21.9970  22.4226  24.1944  24.3591  25.9134
    26.5254  26.5979  26.9679  27.1115  27.6129  28.3796  29.3563  29.5854

     occupation numbers 
     1.0000   1.0000   1.0000   1.0000   1.0000   1.0000   1.0000   1.0000
     1.0000   1.0000   1.0000   1.0000   1.0000   1.0000   1.0000   1.0000
     1.0000   1.0000   1.0000   1.0000   1.0000   1.0000   1.0000   1.0000
     0.0000   0.0000   0.0000   0.0000   0.0000   0.0000   0.0000   0.0000
     0.0000   0.0000   0.0000   0.0000   0.0000   0.0000   0.0000   0.0000
     0.0000   0.0000   0.0000   0.0000   0.0000   0.0000   0.0000   0.0000
     0.0000   0.0000   0.0000   0.0000   0.0000   0.0000   0.0000   0.0000
     0.0000   0.0000   0.0000   0.0000   0.0000   0.0000   0.0000   0.0000

          k = 0.3333 0.0983-0.6306 (  1823 PWs)   bands (ev):

   -21.5898 -21.4999 -13.9243 -13.7302  -8.6461  -8.2729  -5.4521  -5.3662
    -5.1901  -5.1788  -4.2659  -3.7352   4.0505   4.2120   4.2772   4.9678
     5.0259   5.0900   6.6327   6.9426   6.9505   7.2000   7.5348   7.6690
    12.8481  13.2306  13.2549  13.3791  13.4279  13.4604  13.4623  13.5366
    13.6098  13.6185  13.6581  13.6880  13.6995  13.8115  14.1078  14.6032
    14.7891  15.1669  15.6717  15.8664  16.9767  17.2981  17.6831  17.8681
    17.9577  19.6168  20.6704  21.9727  23.8562  23.9507  25.0955  25.2446
    25.7787  26.2821  27.6151  28.0058  28.2051  29.3803  30.2673  30.8358

     occupation numbers 
     1.0000   1.0000   1.0000   1.0000   1.0000   1.0000   1.0000   1.0000
     1.0000   1.0000   1.0000   1.0000   1.0000   1.0000   1.0000   1.0000
     1.0000   1.0000   1.0000   1.0000   1.0000   1.0000   1.0000   1.0000
     0.0000   0.0000   0.0000   0.0000   0.0000   0.0000   0.0000   0.0000
     0.0000   0.0000   0.0000   0.0000   0.0000   0.0000   0.0000   0.0000
     0.0000   0.0000   0.0000   0.0000   0.0000   0.0000   0.0000   0.0000
     0.0000   0.0000   0.0000   0.0000   0.0000   0.0000   0.0000   0.0000
     0.0000   0.0000   0.0000   0.0000   0.0000   0.0000   0.0000   0.0000

          k = 0.3333 0.0983 0.0600 (  1840 PWs)   bands (ev):

   -21.6812 -21.5695 -13.9138 -13.5730  -8.3620  -7.3328  -5.2243  -5.2243
    -5.0869  -5.0869  -4.9374  -4.2899   4.0572   4.1060   4.1060   4.5586
     4.5586   4.9909   6.5973   6.8133   6.8133   6.9759   6.9759   7.5940
    12.9279  13.4156  13.4156  13.4750  13.4750  13.5317  13.5558  13.5620
    13.5620  13.6056  13.6102  13.6102  13.6193  13.8234  14.3908  14.3909
    14.3971  15.0232  15.0232  15.2859  16.5971  18.0171  18.0171  18.1513
    18.3553  18.3553  20.6856  21.8307  23.6149  23.6149  25.1966  25.1966
    27.9320  27.9320  28.0841  29.6955  29.6955  29.8662  30.8276  31.3975

     occupation numbers 
     1.0000   1.0000   1.0000   1.0000   1.0000   1.0000   1.0000   1.0000
     1.0000   1.0000   1.0000   1.0000   1.0000   1.0000   1.0000   1.0000
     1.0000   1.0000   1.0000   1.0000   1.0000   1.0000   1.0000   1.0000
     0.0000   0.0000   0.0000   0.0000   0.0000   0.0000   0.0000   0.0000
     0.0000   0.0000   0.0000   0.0000   0.0000   0.0000   0.0000   0.0000
     0.0000   0.0000   0.0000   0.0000   0.0000   0.0000   0.0000   0.0000
     0.0000   0.0000   0.0000   0.0000   0.0000   0.0000   0.0000   0.0000
     0.0000   0.0000   0.0000   0.0000   0.0000   0.0000   0.0000   0.0000

          k = 0.3333 0.0983-1.3212 (  1806 PWs)   bands (ev):

   -21.5699 -21.5205 -13.9207 -13.7301  -8.6499  -8.2745  -5.4259  -5.4139
    -5.2191  -5.1036  -4.2805  -3.7532   4.1394   4.3080   4.3787   4.8979
     4.9754   5.0135   6.5340   6.7960   6.8802   7.3471   7.5857   7.7220
    12.8824  13.2399  13.2833  13.3994  13.4185  13.4501  13.4651  13.5026
    13.5959  13.6072  13.6458  13.6727  13.6743  13.8643  14.0463  14.5637
    14.6835  15.6415  15.7587  16.1744  16.8903  17.3581  17.7402  17.7794
    17.8751  18.3815  21.1057  23.1961  23.3154  23.4987  24.2348  25.9464
    26.5247  26.6052  26.8314  28.3485  28.3948  28.8669  29.9219  30.5786

     occupation numbers 
     1.0000   1.0000   1.0000   1.0000   1.0000   1.0000   1.0000   1.0000
     1.0000   1.0000   1.0000   1.0000   1.0000   1.0000   1.0000   1.0000
     1.0000   1.0000   1.0000   1.0000   1.0000   1.0000   1.0000   1.0000
     0.0000   0.0000   0.0000   0.0000   0.0000   0.0000   0.0000   0.0000
     0.0000   0.0000   0.0000   0.0000   0.0000   0.0000   0.0000   0.0000
     0.0000   0.0000   0.0000   0.0000   0.0000   0.0000   0.0000   0.0000
     0.0000   0.0000   0.0000   0.0000   0.0000   0.0000   0.0000   0.0000
     0.0000   0.0000   0.0000   0.0000   0.0000   0.0000   0.0000   0.0000

          k = 0.3333-1.1306 0.0000 (  1821 PWs)   bands (ev):

   -21.5041 -21.5041 -13.8649 -13.8636  -8.7366  -8.7252  -5.5559  -5.3608
    -5.2803  -5.1738  -3.8108  -3.7529   4.1963   4.3800   4.3972   4.9806
     4.9939   5.2907   6.8439   7.0664   7.0740   7.2270   7.2651   8.1853
    12.4498  13.1158  13.2926  13.3897  13.3949  13.4306  13.4606  13.4635
    13.4866  13.6212  13.6438  13.6852  13.8296  13.8749  13.9024  14.6997
    14.9552  15.4248  15.5698  15.7619  16.5665  16.6899  17.7621  17.7997
    19.6764  20.7085  21.6892  21.9970  22.4226  24.1944  24.3591  25.9134
    26.5254  26.5979  26.9679  27.1115  27.6129  28.3795  29.3562  29.5852

     occupation numbers 
     1.0000   1.0000   1.0000   1.0000   1.0000   1.0000   1.0000   1.0000
     1.0000   1.0000   1.0000   1.0000   1.0000   1.0000   1.0000   1.0000
     1.0000   1.0000   1.0000   1.0000   1.0000   1.0000   1.0000   1.0000
     0.0000   0.0000   0.0000   0.0000   0.0000   0.0000   0.0000   0.0000
     0.0000   0.0000   0.0000   0.0000   0.0000   0.0000   0.0000   0.0000
     0.0000   0.0000   0.0000   0.0000   0.0000   0.0000   0.0000   0.0000
     0.0000   0.0000   0.0000   0.0000   0.0000   0.0000   0.0000   0.0000
     0.0000   0.0000   0.0000   0.0000   0.0000   0.0000   0.0000   0.0000

          k = 0.3333-1.1306 0.6906 (  1806 PWs)   bands (ev):

   -21.5699 -21.5205 -13.9207 -13.7301  -8.6499  -8.2745  -5.4258  -5.4139
    -5.2191  -5.1035  -4.2805  -3.7532   4.1394   4.3080   4.3787   4.8979
     4.9754   5.0135   6.5339   6.7960   6.8802   7.3471   7.5857   7.7220
    12.8824  13.2399  13.2833  13.3993  13.4185  13.4501  13.4650  13.5026
    13.5959  13.6072  13.6459  13.6727  13.6743  13.8643  14.0463  14.5637
    14.6835  15.6415  15.7587  16.1744  16.8903  17.3581  17.7402  17.7794
    17.8751  18.3815  21.1057  23.1961  23.3154  23.4987  24.2348  25.9464
    26.5247  26.6052  26.8314  28.3485  28.3948  28.8669  29.9219  30.5786

     occupation numbers 
     1.0000   1.0000   1.0000   1.0000   1.0000   1.0000   1.0000   1.0000
     1.0000   1.0000   1.0000   1.0000   1.0000   1.0000   1.0000   1.0000
     1.0000   1.0000   1.0000   1.0000   1.0000   1.0000   1.0000   1.0000
     0.0000   0.0000   0.0000   0.0000   0.0000   0.0000   0.0000   0.0000
     0.0000   0.0000   0.0000   0.0000   0.0000   0.0000   0.0000   0.0000
     0.0000   0.0000   0.0000   0.0000   0.0000   0.0000   0.0000   0.0000
     0.0000   0.0000   0.0000   0.0000   0.0000   0.0000   0.0000   0.0000
     0.0000   0.0000   0.0000   0.0000   0.0000   0.0000   0.0000   0.0000

          k = 0.3333-1.1306-0.6906 (  1806 PWs)   bands (ev):

   -21.5699 -21.5205 -13.9207 -13.7301  -8.6500  -8.2745  -5.4258  -5.4139
    -5.2191  -5.1036  -4.2805  -3.7532   4.1394   4.3080   4.3787   4.8979
     4.9754   5.0135   6.5339   6.7960   6.8802   7.3471   7.5857   7.7220
    12.8824  13.2399  13.2833  13.3993  13.4185  13.4501  13.4650  13.5026
    13.5959  13.6072  13.6458  13.6727  13.6743  13.8643  14.0463  14.5637
    14.6835  15.6415  15.7587  16.1744  16.8903  17.3581  17.7402  17.7795
    17.8751  18.3815  21.1057  23.1961  23.3154  23.4986  24.2348  25.9464
    26.5247  26.6052  26.8314  28.3485  28.3948  28.8670  29.9219  30.5786

     occupation numbers 
     1.0000   1.0000   1.0000   1.0000   1.0000   1.0000   1.0000   1.0000
     1.0000   1.0000   1.0000   1.0000   1.0000   1.0000   1.0000   1.0000
     1.0000   1.0000   1.0000   1.0000   1.0000   1.0000   1.0000   1.0000
     0.0000   0.0000   0.0000   0.0000   0.0000   0.0000   0.0000   0.0000
     0.0000   0.0000   0.0000   0.0000   0.0000   0.0000   0.0000   0.0000
     0.0000   0.0000   0.0000   0.0000   0.0000   0.0000   0.0000   0.0000
     0.0000   0.0000   0.0000   0.0000   0.0000   0.0000   0.0000   0.0000
     0.0000   0.0000   0.0000   0.0000   0.0000   0.0000   0.0000   0.0000

     highest occupied, lowest unoccupied level (ev):     8.1853   12.4498

!    total energy              =   -1097.95933315 Ry
     estimated scf accuracy    <       0.00000038 Ry

     The total energy is the sum of the following terms:
     one-electron contribution =     -66.02383336 Ry
     hartree contribution      =      66.24774858 Ry
     xc contribution           =     -51.44132132 Ry
     ewald contribution        =    -231.49500725 Ry
     one-center paw contrib.   =    -815.24691980 Ry
      -> PAW hartree energy AE =      34.95656759 Ry
      -> PAW hartree energy PS =     -35.00827831 Ry
      -> PAW xc energy AE      =    -405.35828309 Ry
      -> PAW xc energy PS      =       7.31064718 Ry
      -> total E_H with PAW    =      66.19603786 Ry
      -> total E_XC with PAW   =    -449.48895723 Ry

     convergence has been achieved in   9 iterations

     Writing all to output data dir calculations_bands_val/myprefix.save/
 
     init_run     :      8.64s CPU      2.58s WALL (       1 calls)
     electrons    :     40.06s CPU     10.57s WALL (       1 calls)

     Called by init_run:
     wfcinit      :      1.37s CPU      0.36s WALL (       1 calls)
     wfcinit:atom :      0.00s CPU      0.00s WALL (       7 calls)
     wfcinit:wfcr :      1.31s CPU      0.34s WALL (       7 calls)
     potinit      :      2.82s CPU      0.78s WALL (       1 calls)
     hinit0       :      3.48s CPU      1.16s WALL (       1 calls)

     Called by electrons:
     c_bands      :     23.59s CPU      6.14s WALL (       9 calls)
     sum_band     :      5.33s CPU      1.47s WALL (       9 calls)
     v_of_rho     :      1.04s CPU      0.27s WALL (      10 calls)
     v_h          :      0.06s CPU      0.01s WALL (      10 calls)
     v_xc         :      0.98s CPU      0.26s WALL (      10 calls)
     newd         :      1.54s CPU      0.43s WALL (      10 calls)
     PAW_pot      :      9.68s CPU      2.54s WALL (      10 calls)
     mix_rho      :      0.14s CPU      0.04s WALL (       9 calls)

     Called by c_bands:
     init_us_2    :      0.10s CPU      0.03s WALL (     133 calls)
     init_us_2:cp :      0.10s CPU      0.03s WALL (     133 calls)
     cegterg      :     22.22s CPU      5.78s WALL (      63 calls)

     Called by sum_band:
     sum_band:wei :      0.00s CPU      0.00s WALL (       9 calls)
     sum_band:loo :      3.65s CPU      0.95s WALL (       9 calls)
     sum_band:buf :      0.02s CPU      0.01s WALL (      63 calls)
     sum_band:ini :      0.05s CPU      0.01s WALL (      63 calls)
     sum_band:cal :      0.09s CPU      0.02s WALL (      63 calls)
     sum_band:bec :      0.02s CPU      0.00s WALL (      63 calls)
     addusdens    :      1.19s CPU      0.39s WALL (       9 calls)
     addusd:skk   :      0.00s CPU      0.00s WALL (      27 calls)
     addusd:dgemm :      0.17s CPU      0.13s WALL (      27 calls)
     addusd:qvan2 :      0.68s CPU      0.17s WALL (      27 calls)

     Called by *egterg:
     cdiaghg      :      4.69s CPU      1.22s WALL (     278 calls)
     cegterg:over :      0.54s CPU      0.14s WALL (     215 calls)
     cegterg:upda :      0.25s CPU      0.07s WALL (     215 calls)
     cegterg:last :      0.39s CPU      0.10s WALL (     119 calls)
     cdiaghg:chol :      0.32s CPU      0.08s WALL (     278 calls)
     cdiaghg:inve :      0.07s CPU      0.02s WALL (     278 calls)
     cdiaghg:para :      0.69s CPU      0.18s WALL (     556 calls)
     h_psi        :     17.21s CPU      4.47s WALL (     285 calls)
     s_psi        :      0.11s CPU      0.03s WALL (     285 calls)
     g_psi        :      0.01s CPU      0.00s WALL (     215 calls)

     Called by h_psi:
     h_psi:calbec :      0.28s CPU      0.08s WALL (     285 calls)
     vloc_psi     :     16.75s CPU      4.35s WALL (     285 calls)
     add_vuspsi   :      0.14s CPU      0.04s WALL (     285 calls)

     General routines
     calbec       :      0.36s CPU      0.10s WALL (     348 calls)
     fft          :      2.12s CPU      0.71s WALL (     128 calls)
     ffts         :      1.15s CPU      0.35s WALL (      19 calls)
     fftw         :     18.38s CPU      4.78s WALL (   23656 calls)
     interpolate  :      1.18s CPU      0.36s WALL (      10 calls)
 
     Parallel routines

     PAW routines
     PAW_pot      :      9.68s CPU      2.54s WALL (      10 calls)
     PAW_symme    :      0.06s CPU      0.02s WALL (      19 calls)
 
     PWSCF        :     49.98s CPU     13.78s WALL

 
   This run was terminated on:  12:56:52   4Jun2023            

=------------------------------------------------------------------------------=
   JOB DONE.
=------------------------------------------------------------------------------=
