
     Program PWSCF v.7.0 starts on  4Jun2023 at 11:42:20 

     This program is part of the open-source Quantum ESPRESSO suite
     for quantum simulation of materials; please cite
         "P. Giannozzi et al., J. Phys.:Condens. Matter 21 395502 (2009);
         "P. Giannozzi et al., J. Phys.:Condens. Matter 29 465901 (2017);
         "P. Giannozzi et al., J. Chem. Phys. 152 154105 (2020);
          URL http://www.quantum-espresso.org", 
     in publications or presentations arising from this work. More details at
     http://www.quantum-espresso.org/quote

     Parallel version (MPI & OpenMP), running on      32 processor cores
     Number of MPI processes:                 8
     Threads/MPI process:                     4

     MPI processes distributed on     1 nodes
     K-points division:     npool     =       2
     R & G space division:  proc/nbgrp/npool/nimage =       4
     144049 MiB available memory on the printing compute node when the environment starts
 
     Reading input from espresso_269.pwi
Warning: card &CELL ignored
Warning: card / ignored

     Current dimensions of program PWSCF are:
     Max number of different atomic species (ntypx) = 10
     Max number of k-points (npk) =  40000
     Max angular momentum in pseudopotentials (lmaxx) =  4
     file Ba.pbe-spn-kjpaw_psl.1.0.0.UPF: wavefunction(s)  5S 6S renormalized
     file O.pbe-n-kjpaw_psl.0.1.UPF: wavefunction(s)  2P renormalized
     Message from routine setup:
     using ibrav=0 with symmetry is DISCOURAGED, use correct ibrav instead

     Subspace diagonalization in iterative solution of the eigenvalue problem:
     one sub-group per band group will be used
     scalapack distributed-memory algorithm (size of sub-group:  2*  2 procs)

 
     Parallelization info
     --------------------
     sticks:   dense  smooth     PW     G-vecs:    dense   smooth      PW
     Min         674     337    103                18608     6578    1102
     Max         675     338    104                18609     6579    1103
     Sum        2697    1349    413                74433    26313    4409
 
     Using Slab Decomposition
 


     bravais-lattice index     =            0
     lattice parameter (alat)  =      11.8650  a.u.
     unit-cell volume          =    1184.7327 (a.u.)^3
     number of atoms/cell      =           10
     number of atomic types    =            3
     number of electrons       =        80.00
     number of Kohn-Sham states=           64
     kinetic-energy cutoff     =      30.0000  Ry
     charge density cutoff     =     240.0000  Ry
     scf convergence threshold =      1.0E-06
     mixing beta               =       0.7000
     number of iterations used =            8  plain     mixing
     Exchange-correlation= SLA  PW   PBX  PBC
                           (   1   4   3   4   0   0   0)

     celldm(1)=  11.865026  celldm(2)=   0.000000  celldm(3)=   0.000000
     celldm(4)=   0.000000  celldm(5)=   0.000000  celldm(6)=   0.000000

     crystal axes: (cart. coord. in units of alat)
               a(1) = (   1.000000   0.000000   0.000000 )  
               a(2) = (  -0.006241   0.999981   0.000000 )  
               a(3) = (  -0.492940  -0.503906   0.709288 )  

     reciprocal axes: (cart. coord. in units 2 pi/alat)
               b(1) = (  1.000000  0.006241  0.699412 )  
               b(2) = (  0.000000  1.000019  0.710452 )  
               b(3) = (  0.000000  0.000000  1.409864 )  


     PseudoPot. # 1 for Ba read from file:
     /home/pragov/projects/rrg-bengioy-ad/pragov/crystal_structure_design/SSSP/Ba.pbe-spn-kjpaw_psl.1.0.0.UPF
     MD5 check sum: c432291d3e53af55f19d5e8866385beb
     Pseudo is Projector augmented-wave + core cor, Zval = 10.0
     Generated using "atomic" code by A. Dal Corso  v.5.1
     Shape of augmentation charge: PSQ
     Using radial grid of 1251 points,  7 beta functions with: 
                l(1) =   0
                l(2) =   0
                l(3) =   0
                l(4) =   1
                l(5) =   1
                l(6) =   2
                l(7) =   2
     Q(r) pseudized with 0 coefficients 


     PseudoPot. # 2 for Ce read from file:
     /home/pragov/projects/rrg-bengioy-ad/pragov/crystal_structure_design/SSSP/Ce.GGA-PBE-paw-v1.0.UPF
     MD5 check sum: f2b950f613061344c13339c8d844425d
     Pseudo is Projector augmented-wave + core cor, Zval = 12.0
     Generated using ATOMPAW code
     Shape of augmentation charge: BESSEL
     Using radial grid of 1102 points,  8 beta functions with: 
                l(1) =   0
                l(2) =   0
                l(3) =   1
                l(4) =   1
                l(5) =   2
                l(6) =   2
                l(7) =   3
                l(8) =   3
     Q(r) pseudized with 0 coefficients 


     PseudoPot. # 3 for O  read from file:
     /home/pragov/projects/rrg-bengioy-ad/pragov/crystal_structure_design/SSSP/O.pbe-n-kjpaw_psl.0.1.UPF
     MD5 check sum: 0234752ac141de4415c5fc33072bef88
     Pseudo is Projector augmented-wave + core cor, Zval =  6.0
     Generated using "atomic" code by A. Dal Corso  v.5.0.99 svn rev. 10869
     Shape of augmentation charge: BESSEL
     Using radial grid of 1095 points,  4 beta functions with: 
                l(1) =   0
                l(2) =   0
                l(3) =   1
                l(4) =   1
     Q(r) pseudized with 0 coefficients 


     atomic species   valence    mass     pseudopotential
        Ba            10.00   137.32700     Ba( 1.00)
        Ce            12.00   140.11600     Ce( 1.00)
        O              6.00    15.99900     O ( 1.00)

      2 Sym. Ops., with inversion, found


                                    s                        frac. trans.

      isym =  1     identity                                     

 cryst.   s( 1) = (     1          0          0      )
                  (     0          1          0      )
                  (     0          0          1      )

 cart.    s( 1) = (  1.0000000 -0.0000000  0.0000000 )
                  (  0.0000000  1.0000000 -0.0000000 )
                  (  0.0000000  0.0000000  1.0000000 )


      isym =  2     inversion                                    

 cryst.   s( 2) = (    -1          0          0      )
                  (     0         -1          0      )
                  (     0          0         -1      )

 cart.    s( 2) = ( -1.0000000  0.0000000 -0.0000000 )
                  (  0.0000000 -1.0000000  0.0000000 )
                  (  0.0000000  0.0000000 -1.0000000 )


   Cartesian axes

     site n.     atom                  positions (alat units)
         1           Ba  tau(   1) = (   0.2471867   0.2512404   0.7020244  )
         2           Ba  tau(   2) = (   0.2536325   0.2448346   0.0072638  )
         3           Ce  tau(   3) = (   0.7504096   0.2480375   0.3546441  )
         4           Ce  tau(   4) = (   0.2535302  -0.2519528   0.3546441  )
         5           O   tau(   5) = (   0.2907895   0.7957405   0.0000000  )
         6           O   tau(   6) = (   0.4533788   0.4522775   0.3546441  )
         7           O   tau(   7) = (   0.7029693   0.2042400   0.0000000  )
         8           O   tau(   8) = (   0.0474403   0.0437975   0.3546441  )
         9           O   tau(   9) = (   0.5430681  -0.0428002   0.4121333  )
        10           O   tau(  10) = (  -0.0422490   0.5388752   0.2971549  )

   Crystallographic axes

     site n.     atom                  positions (cryst. coord.)
         1           Ba  tau(   1) = (  0.7397590  0.7500000  0.9897590  )
         2           Ba  tau(   2) = (  0.2602410  0.2500000  0.0102410  )
         3           Ce  tau(   3) = (  1.0000000  0.5000000  0.5000000  )
         4           Ce  tau(   4) = (  0.5000000 -0.0000000  0.5000000  )
         5           O   tau(   5) = (  0.2957560  0.7957560  0.0000000  )
         6           O   tau(   6) = (  0.7042440  0.7042440  0.5000000  )
         7           O   tau(   7) = (  0.7042440  0.2042440  0.0000000  )
         8           O   tau(   8) = (  0.2957560  0.2957560  0.5000000  )
         9           O   tau(   9) = (  0.8310520  0.2500000  0.5810520  )
        10           O   tau(  10) = (  0.1689480  0.7500000  0.4189480  )

     number of k points=    14
                       cart. coord. in units 2pi/alat
        k(    1) = (   0.0000000   0.0000000   0.0000000), wk =   0.0740741
        k(    2) = (   0.0000000   0.0000000   0.4699547), wk =   0.1481481
        k(    3) = (   0.0000000   0.3333398   0.2368174), wk =   0.1481481
        k(    4) = (   0.0000000   0.3333398   0.7067721), wk =   0.1481481
        k(    5) = (   0.0000000   0.3333398  -0.2331373), wk =   0.1481481
        k(    6) = (   0.3333333   0.0020804   0.2331373), wk =   0.1481481
        k(    7) = (   0.3333333   0.0020804   0.7030920), wk =   0.1481481
        k(    8) = (   0.3333333   0.0020804  -0.2368174), wk =   0.1481481
        k(    9) = (   0.3333333   0.3354203   0.4699547), wk =   0.1481481
        k(   10) = (   0.3333333   0.3354203   0.9399094), wk =   0.1481481
        k(   11) = (   0.3333333   0.3354203   0.0000000), wk =   0.1481481
        k(   12) = (   0.3333333  -0.3312594  -0.0036801), wk =   0.1481481
        k(   13) = (   0.3333333  -0.3312594   0.4662746), wk =   0.1481481
        k(   14) = (   0.3333333  -0.3312594  -0.4736348), wk =   0.1481481

                       cryst. coord.
        k(    1) = (   0.0000000   0.0000000   0.0000000), wk =   0.0740741
        k(    2) = (   0.0000000   0.0000000   0.3333333), wk =   0.1481481
        k(    3) = (   0.0000000   0.3333333  -0.0000000), wk =   0.1481481
        k(    4) = (   0.0000000   0.3333333   0.3333333), wk =   0.1481481
        k(    5) = (   0.0000000   0.3333333  -0.3333333), wk =   0.1481481
        k(    6) = (   0.3333333  -0.0000000  -0.0000000), wk =   0.1481481
        k(    7) = (   0.3333333  -0.0000000   0.3333333), wk =   0.1481481
        k(    8) = (   0.3333333  -0.0000000  -0.3333333), wk =   0.1481481
        k(    9) = (   0.3333333   0.3333333  -0.0000000), wk =   0.1481481
        k(   10) = (   0.3333333   0.3333333   0.3333333), wk =   0.1481481
        k(   11) = (   0.3333333   0.3333333  -0.3333333), wk =   0.1481481
        k(   12) = (   0.3333333  -0.3333333   0.0000000), wk =   0.1481481
        k(   13) = (   0.3333333  -0.3333333   0.3333333), wk =   0.1481481
        k(   14) = (   0.3333333  -0.3333333  -0.3333333), wk =   0.1481481

     Dense  grid:    74433 G-vectors     FFT dimensions: (  60,  60,  60)

     Smooth grid:    26313 G-vectors     FFT dimensions: (  45,  45,  45)

     Dynamical RAM for                 wfc:       0.80 MB

     Dynamical RAM for     wfc (w. buffer):       6.41 MB

     Dynamical RAM for           str. fact:       0.85 MB

     Dynamical RAM for           local pot:       0.00 MB

     Dynamical RAM for          nlocal pot:       1.88 MB

     Dynamical RAM for                qrad:       8.96 MB

     Dynamical RAM for          rho,v,vnew:       2.09 MB

     Dynamical RAM for               rhoin:       0.70 MB

     Dynamical RAM for            rho*nmix:       4.54 MB

     Dynamical RAM for           G-vectors:       1.11 MB

     Dynamical RAM for          h,s,v(r/c):       0.19 MB

     Dynamical RAM for          <psi|beta>:       0.15 MB

     Dynamical RAM for                 psi:       1.60 MB

     Dynamical RAM for                hpsi:       1.60 MB

     Dynamical RAM for                spsi:       1.60 MB

     Dynamical RAM for      wfcinit/wfcrot:       2.68 MB

     Dynamical RAM for           addusdens:      79.79 MB

     Estimated static dynamical RAM per process >      25.20 MB

     Estimated max dynamical RAM per process >     109.53 MB

     Estimated total dynamical RAM >     858.03 MB

     Check: negative core charge=   -0.000009

     Initial potential from superposition of free atoms

     starting charge      79.9520, renormalised to      80.0000
     Starting wfcs are   98 randomized atomic wfcs
     Checking if some PAW data can be deallocated... 
       PAW data deallocated on    7 nodes for type:  1
       PAW data deallocated on    7 nodes for type:  2
       PAW data deallocated on    2 nodes for type:  3

     total cpu time spent up to now is        4.0 secs

     Self-consistent Calculation

     iteration #  1     ecut=    30.00 Ry     beta= 0.70
     Davidson diagonalization with overlap

---- Real-time Memory Report at c_bands before calling an iterative solver
           241 MiB given to the printing process from OS
             0 MiB allocation reported by mallinfo(arena+hblkhd)
        143181 MiB available memory on the node where the printing process lives
------------------
     ethr =  1.00E-02,  avg # of iterations =  6.5

     negative rho (up, down):  1.609E-02 0.000E+00

     total cpu time spent up to now is        5.9 secs

     total energy              =   -2084.38321520 Ry
     estimated scf accuracy    <       4.19563589 Ry

     iteration #  2     ecut=    30.00 Ry     beta= 0.70
     Davidson diagonalization with overlap

---- Real-time Memory Report at c_bands before calling an iterative solver
           312 MiB given to the printing process from OS
             0 MiB allocation reported by mallinfo(arena+hblkhd)
        143033 MiB available memory on the node where the printing process lives
------------------
     ethr =  5.24E-03,  avg # of iterations =  5.0

     negative rho (up, down):  1.505E-02 0.000E+00

     total cpu time spent up to now is        7.8 secs

     total energy              =   -2069.28602077 Ry
     estimated scf accuracy    <     248.98783032 Ry

     iteration #  3     ecut=    30.00 Ry     beta= 0.70
     Davidson diagonalization with overlap

---- Real-time Memory Report at c_bands before calling an iterative solver
           314 MiB given to the printing process from OS
             0 MiB allocation reported by mallinfo(arena+hblkhd)
        143001 MiB available memory on the node where the printing process lives
------------------
     ethr =  5.24E-03,  avg # of iterations =  2.4

     negative rho (up, down):  9.502E-03 0.000E+00

     total cpu time spent up to now is        9.6 secs

     total energy              =   -2087.32989297 Ry
     estimated scf accuracy    <       2.79433831 Ry

     iteration #  4     ecut=    30.00 Ry     beta= 0.70
     Davidson diagonalization with overlap

---- Real-time Memory Report at c_bands before calling an iterative solver
           316 MiB given to the printing process from OS
             0 MiB allocation reported by mallinfo(arena+hblkhd)
        142998 MiB available memory on the node where the printing process lives
------------------
     ethr =  3.49E-03,  avg # of iterations =  2.0

     negative rho (up, down):  1.597E-03 0.000E+00

     total cpu time spent up to now is       11.2 secs

     total energy              =   -2087.80633725 Ry
     estimated scf accuracy    <       0.96141520 Ry

     iteration #  5     ecut=    30.00 Ry     beta= 0.70
     Davidson diagonalization with overlap

---- Real-time Memory Report at c_bands before calling an iterative solver
           316 MiB given to the printing process from OS
             0 MiB allocation reported by mallinfo(arena+hblkhd)
        142993 MiB available memory on the node where the printing process lives
------------------
     ethr =  1.20E-03,  avg # of iterations =  1.2

     total cpu time spent up to now is       12.7 secs

     total energy              =   -2087.63873064 Ry
     estimated scf accuracy    <       0.80698924 Ry

     iteration #  6     ecut=    30.00 Ry     beta= 0.70
     Davidson diagonalization with overlap

---- Real-time Memory Report at c_bands before calling an iterative solver
           318 MiB given to the printing process from OS
             0 MiB allocation reported by mallinfo(arena+hblkhd)
        142987 MiB available memory on the node where the printing process lives
------------------
     ethr =  1.01E-03,  avg # of iterations =  1.1

     total cpu time spent up to now is       14.2 secs

     total energy              =   -2087.60083188 Ry
     estimated scf accuracy    <       0.51233547 Ry

     iteration #  7     ecut=    30.00 Ry     beta= 0.70
     Davidson diagonalization with overlap

---- Real-time Memory Report at c_bands before calling an iterative solver
           318 MiB given to the printing process from OS
             0 MiB allocation reported by mallinfo(arena+hblkhd)
        142984 MiB available memory on the node where the printing process lives
------------------
     ethr =  6.40E-04,  avg # of iterations =  1.4

     total cpu time spent up to now is       15.7 secs

     total energy              =   -2087.56272488 Ry
     estimated scf accuracy    <       0.34570191 Ry

     iteration #  8     ecut=    30.00 Ry     beta= 0.70
     Davidson diagonalization with overlap

---- Real-time Memory Report at c_bands before calling an iterative solver
           318 MiB given to the printing process from OS
             0 MiB allocation reported by mallinfo(arena+hblkhd)
        142985 MiB available memory on the node where the printing process lives
------------------
     ethr =  4.32E-04,  avg # of iterations =  1.9

     total cpu time spent up to now is       17.2 secs

     total energy              =   -2087.50720440 Ry
     estimated scf accuracy    <       0.20628042 Ry

     iteration #  9     ecut=    30.00 Ry     beta= 0.70
     Davidson diagonalization with overlap

---- Real-time Memory Report at c_bands before calling an iterative solver
           318 MiB given to the printing process from OS
             0 MiB allocation reported by mallinfo(arena+hblkhd)
        142981 MiB available memory on the node where the printing process lives
------------------
     ethr =  2.58E-04,  avg # of iterations =  1.8

     total cpu time spent up to now is       18.7 secs

     total energy              =   -2087.51960893 Ry
     estimated scf accuracy    <       0.02549300 Ry

     iteration # 10     ecut=    30.00 Ry     beta= 0.70
     Davidson diagonalization with overlap

---- Real-time Memory Report at c_bands before calling an iterative solver
           318 MiB given to the printing process from OS
             0 MiB allocation reported by mallinfo(arena+hblkhd)
        142972 MiB available memory on the node where the printing process lives
------------------
     ethr =  3.19E-05,  avg # of iterations =  9.4

     total cpu time spent up to now is       21.5 secs

     total energy              =   -2087.51576896 Ry
     estimated scf accuracy    <       0.01458685 Ry

     iteration # 11     ecut=    30.00 Ry     beta= 0.70
     Davidson diagonalization with overlap

---- Real-time Memory Report at c_bands before calling an iterative solver
           322 MiB given to the printing process from OS
             0 MiB allocation reported by mallinfo(arena+hblkhd)
        142935 MiB available memory on the node where the printing process lives
------------------
     ethr =  1.82E-05,  avg # of iterations =  3.0

     total cpu time spent up to now is       23.5 secs

     total energy              =   -2087.51722333 Ry
     estimated scf accuracy    <       0.00039895 Ry

     iteration # 12     ecut=    30.00 Ry     beta= 0.70
     Davidson diagonalization with overlap

---- Real-time Memory Report at c_bands before calling an iterative solver
           323 MiB given to the printing process from OS
             0 MiB allocation reported by mallinfo(arena+hblkhd)
        143001 MiB available memory on the node where the printing process lives
------------------
     ethr =  4.99E-07,  avg # of iterations =  5.6

     total cpu time spent up to now is       25.4 secs

     total energy              =   -2087.51734644 Ry
     estimated scf accuracy    <       0.00005920 Ry

     iteration # 13     ecut=    30.00 Ry     beta= 0.70
     Davidson diagonalization with overlap

---- Real-time Memory Report at c_bands before calling an iterative solver
           323 MiB given to the printing process from OS
             0 MiB allocation reported by mallinfo(arena+hblkhd)
        142989 MiB available memory on the node where the printing process lives
------------------
     ethr =  7.40E-08,  avg # of iterations =  2.9

     total cpu time spent up to now is       28.0 secs

     total energy              =   -2087.51734578 Ry
     estimated scf accuracy    <       0.00007209 Ry

     iteration # 14     ecut=    30.00 Ry     beta= 0.70
     Davidson diagonalization with overlap

---- Real-time Memory Report at c_bands before calling an iterative solver
           323 MiB given to the printing process from OS
             0 MiB allocation reported by mallinfo(arena+hblkhd)
        142997 MiB available memory on the node where the printing process lives
------------------
     ethr =  7.40E-08,  avg # of iterations =  2.3

     total cpu time spent up to now is       29.6 secs

     total energy              =   -2087.51728318 Ry
     estimated scf accuracy    <       0.00049078 Ry

     iteration # 15     ecut=    30.00 Ry     beta= 0.70
     Davidson diagonalization with overlap

---- Real-time Memory Report at c_bands before calling an iterative solver
           324 MiB given to the printing process from OS
             0 MiB allocation reported by mallinfo(arena+hblkhd)
        142999 MiB available memory on the node where the printing process lives
------------------
     ethr =  7.40E-08,  avg # of iterations =  2.1

     total cpu time spent up to now is       31.1 secs

     total energy              =   -2087.51735817 Ry
     estimated scf accuracy    <       0.00002483 Ry

     iteration # 16     ecut=    30.00 Ry     beta= 0.70
     Davidson diagonalization with overlap

---- Real-time Memory Report at c_bands before calling an iterative solver
           324 MiB given to the printing process from OS
             0 MiB allocation reported by mallinfo(arena+hblkhd)
        142995 MiB available memory on the node where the printing process lives
------------------
     ethr =  3.10E-08,  avg # of iterations =  1.0

     total cpu time spent up to now is       32.7 secs

     total energy              =   -2087.51736380 Ry
     estimated scf accuracy    <       0.00000481 Ry

     iteration # 17     ecut=    30.00 Ry     beta= 0.70
     Davidson diagonalization with overlap

---- Real-time Memory Report at c_bands before calling an iterative solver
           324 MiB given to the printing process from OS
             0 MiB allocation reported by mallinfo(arena+hblkhd)
        142998 MiB available memory on the node where the printing process lives
------------------
     ethr =  6.01E-09,  avg # of iterations =  1.0

     total cpu time spent up to now is       34.5 secs

     total energy              =   -2087.51736365 Ry
     estimated scf accuracy    <       0.00000119 Ry

     iteration # 18     ecut=    30.00 Ry     beta= 0.70
     Davidson diagonalization with overlap

---- Real-time Memory Report at c_bands before calling an iterative solver
           324 MiB given to the printing process from OS
             0 MiB allocation reported by mallinfo(arena+hblkhd)
        143002 MiB available memory on the node where the printing process lives
------------------
     ethr =  1.49E-09,  avg # of iterations =  1.1

     total cpu time spent up to now is       36.2 secs

     End of self-consistent calculation

          k = 0.0000 0.0000 0.0000 (  3299 PWs)   bands (ev):

   -23.5986 -23.5298 -16.8790 -16.8197  -9.2131  -9.1076  -9.0338  -7.4402
    -7.4072  -7.0733  -6.6585  -6.6390  -6.5928  -3.6956  -3.6945  -3.6366
    -2.3826  -2.2076  -2.1101  -1.9899  -1.8818  -1.8760   5.7321   5.7525
     6.4608   6.5036   6.5152   6.9396   7.3812   7.5913   7.6362   7.6897
     7.7535   7.7600   8.0458   8.1114   8.1663   8.4849   8.5710   8.6088
    10.7769  10.8319  10.8775  10.9118  10.9165  10.9663  10.9690  10.9848
    11.2588  11.2839  11.2875  11.9210  11.9525  12.0502  13.0340  13.2160
    13.4521  13.5482  13.8713  14.0908  14.5092  14.7315  14.7517  16.2451

     occupation numbers 
     1.0000   1.0000   1.0000   1.0000   1.0000   1.0000   1.0000   1.0000
     1.0000   1.0000   1.0000   1.0000   1.0000   1.0000   1.0000   1.0000
     1.0000   1.0000   1.0000   1.0000   1.0000   1.0000   1.0000   1.0000
     1.0000   1.0000   1.0000   1.0000   1.0000   1.0000   1.0000   1.0000
     1.0000   1.0000   1.0000   1.0000   1.0000   1.0000   1.0000   1.0000
     0.0000   0.0000   0.0000   0.0000   0.0000   0.0000   0.0000   0.0000
     0.0000   0.0000   0.0000   0.0000   0.0000   0.0000   0.0000   0.0000
     0.0000   0.0000   0.0000   0.0000   0.0000   0.0000   0.0000   0.0000

          k = 0.0000 0.0000 0.4700 (  3298 PWs)   bands (ev):

   -23.5809 -23.5467 -16.8671 -16.8352  -9.1937  -9.0891  -8.9043  -8.1685
    -7.3827  -7.2478  -6.6195  -6.5632  -5.5013  -4.3114  -3.6963  -3.6659
    -2.2143  -2.0407  -2.0050  -1.9628  -1.9399  -1.8409   5.7530   5.8391
     6.4199   6.5116   6.6540   6.8223   7.2113   7.2882   7.3013   7.3243
     7.4630   7.5493   7.7096   7.9419   7.9533   8.3176   8.4253   8.4631
    10.7940  10.8030  10.8967  10.9388  10.9502  11.0508  11.0556  11.1865
    11.2331  11.2907  11.3974  11.4902  11.9174  11.9438  13.9243  13.9566
    14.2571  14.3453  14.6908  14.7898  15.2100  15.5156  15.5970  15.9287

     occupation numbers 
     1.0000   1.0000   1.0000   1.0000   1.0000   1.0000   1.0000   1.0000
     1.0000   1.0000   1.0000   1.0000   1.0000   1.0000   1.0000   1.0000
     1.0000   1.0000   1.0000   1.0000   1.0000   1.0000   1.0000   1.0000
     1.0000   1.0000   1.0000   1.0000   1.0000   1.0000   1.0000   1.0000
     1.0000   1.0000   1.0000   1.0000   1.0000   1.0000   1.0000   1.0000
     0.0000   0.0000   0.0000   0.0000   0.0000   0.0000   0.0000   0.0000
     0.0000   0.0000   0.0000   0.0000   0.0000   0.0000   0.0000   0.0000
     0.0000   0.0000   0.0000   0.0000   0.0000   0.0000   0.0000   0.0000

          k = 0.0000 0.3333 0.2368 (  3289 PWs)   bands (ev):

   -23.5811 -23.5468 -16.8662 -16.8353  -8.9683  -8.8783  -8.7981  -8.2646
    -8.1811  -8.0443  -5.5935  -5.5371  -5.4730  -4.3023  -4.2261  -4.2078
    -2.2226  -2.0384  -2.0315  -1.9977  -1.9163  -1.9141   6.2634   6.3732
     6.4079   6.6062   6.6619   6.9325   7.0930   7.1398   7.2538   7.4245
     7.6087   7.7332   7.7930   7.9732   7.9960   8.0368   8.1950   8.3072
    10.7951  10.8089  10.9310  10.9603  11.0144  11.0860  11.1139  11.1543
    11.1730  11.1803  11.2332  11.5929  11.6032  11.6648  13.7924  14.0184
    14.2614  14.4632  14.6757  14.7052  14.8767  14.9732  15.2106  16.0152

     occupation numbers 
     1.0000   1.0000   1.0000   1.0000   1.0000   1.0000   1.0000   1.0000
     1.0000   1.0000   1.0000   1.0000   1.0000   1.0000   1.0000   1.0000
     1.0000   1.0000   1.0000   1.0000   1.0000   1.0000   1.0000   1.0000
     1.0000   1.0000   1.0000   1.0000   1.0000   1.0000   1.0000   1.0000
     1.0000   1.0000   1.0000   1.0000   1.0000   1.0000   1.0000   1.0000
     0.0000   0.0000   0.0000   0.0000   0.0000   0.0000   0.0000   0.0000
     0.0000   0.0000   0.0000   0.0000   0.0000   0.0000   0.0000   0.0000
     0.0000   0.0000   0.0000   0.0000   0.0000   0.0000   0.0000   0.0000

          k = 0.0000 0.3333 0.7068 (  3265 PWs)   bands (ev):

   -23.5638 -23.5636 -16.8545 -16.8487  -9.1901  -8.9421  -8.8161  -8.2138
    -8.0856  -7.3483  -6.5940  -5.5338  -5.4738  -4.2757  -4.2451  -3.7167
    -2.1214  -2.0498  -1.9931  -1.9623  -1.8872  -1.8703   5.9641   6.0660
     6.3356   6.4142   6.7181   6.9021   6.9450   7.1320   7.1805   7.3166
     7.5483   7.6515   7.7788   7.8202   7.9252   7.9674   8.3576   8.4001
    10.7971  10.8054  10.9478  10.9664  10.9898  11.0295  11.0740  11.1527
    11.2335  11.3518  11.3827  11.5666  11.6039  11.8484  14.3889  14.4414
    14.5560  14.7831  15.0115  15.0187  15.3582  15.4590  15.6657  15.7035

     occupation numbers 
     1.0000   1.0000   1.0000   1.0000   1.0000   1.0000   1.0000   1.0000
     1.0000   1.0000   1.0000   1.0000   1.0000   1.0000   1.0000   1.0000
     1.0000   1.0000   1.0000   1.0000   1.0000   1.0000   1.0000   1.0000
     1.0000   1.0000   1.0000   1.0000   1.0000   1.0000   1.0000   1.0000
     1.0000   1.0000   1.0000   1.0000   1.0000   1.0000   1.0000   1.0000
     0.0000   0.0000   0.0000   0.0000   0.0000   0.0000   0.0000   0.0000
     0.0000   0.0000   0.0000   0.0000   0.0000   0.0000   0.0000   0.0000
     0.0000   0.0000   0.0000   0.0000   0.0000   0.0000   0.0000   0.0000

          k = 0.0000 0.3333-0.2331 (  3289 PWs)   bands (ev):

   -23.5811 -23.5468 -16.8671 -16.8343  -8.9630  -8.8825  -8.8053  -8.2155
    -8.2027  -8.0679  -5.5892  -5.5321  -5.4814  -4.2936  -4.2324  -4.2002
    -2.2492  -2.1285  -2.0043  -1.9855  -1.9164  -1.8366   6.2138   6.3665
     6.4183   6.5837   6.6099   6.8702   7.0205   7.0815   7.3039   7.5254
     7.6604   7.7607   7.8062   7.8570   8.0349   8.0973   8.1913   8.3882
    10.7913  10.8087  10.9470  10.9559  10.9924  11.0979  11.0980  11.1448
    11.1819  11.1983  11.2448  11.6042  11.6415  11.6651  13.8152  14.0007
    14.0439  14.4220  14.7398  14.7500  15.0284  15.0645  15.1506  15.7330

     occupation numbers 
     1.0000   1.0000   1.0000   1.0000   1.0000   1.0000   1.0000   1.0000
     1.0000   1.0000   1.0000   1.0000   1.0000   1.0000   1.0000   1.0000
     1.0000   1.0000   1.0000   1.0000   1.0000   1.0000   1.0000   1.0000
     1.0000   1.0000   1.0000   1.0000   1.0000   1.0000   1.0000   1.0000
     1.0000   1.0000   1.0000   1.0000   1.0000   1.0000   1.0000   1.0000
     0.0000   0.0000   0.0000   0.0000   0.0000   0.0000   0.0000   0.0000
     0.0000   0.0000   0.0000   0.0000   0.0000   0.0000   0.0000   0.0000
     0.0000   0.0000   0.0000   0.0000   0.0000   0.0000   0.0000   0.0000

          k = 0.3333 0.0021 0.2331 (  3289 PWs)   bands (ev):

   -23.5811 -23.5468 -16.8671 -16.8343  -8.9630  -8.8825  -8.8053  -8.2155
    -8.2027  -8.0679  -5.5892  -5.5321  -5.4814  -4.2936  -4.2324  -4.2002
    -2.2492  -2.1285  -2.0043  -1.9855  -1.9164  -1.8366   6.2138   6.3665
     6.4183   6.5837   6.6099   6.8702   7.0205   7.0815   7.3039   7.5254
     7.6604   7.7607   7.8062   7.8570   8.0349   8.0973   8.1913   8.3882
    10.7913  10.8087  10.9470  10.9559  10.9924  11.0979  11.0980  11.1448
    11.1819  11.1983  11.2448  11.6042  11.6415  11.6651  13.8152  14.0007
    14.0439  14.4220  14.7398  14.7500  15.0285  15.0645  15.1506  15.7331

     occupation numbers 
     1.0000   1.0000   1.0000   1.0000   1.0000   1.0000   1.0000   1.0000
     1.0000   1.0000   1.0000   1.0000   1.0000   1.0000   1.0000   1.0000
     1.0000   1.0000   1.0000   1.0000   1.0000   1.0000   1.0000   1.0000
     1.0000   1.0000   1.0000   1.0000   1.0000   1.0000   1.0000   1.0000
     1.0000   1.0000   1.0000   1.0000   1.0000   1.0000   1.0000   1.0000
     0.0000   0.0000   0.0000   0.0000   0.0000   0.0000   0.0000   0.0000
     0.0000   0.0000   0.0000   0.0000   0.0000   0.0000   0.0000   0.0000
     0.0000   0.0000   0.0000   0.0000   0.0000   0.0000   0.0000   0.0000

          k = 0.3333 0.0021 0.7031 (  3265 PWs)   bands (ev):

   -23.5638 -23.5636 -16.8545 -16.8487  -9.1901  -8.9421  -8.8161  -8.2138
    -8.0856  -7.3483  -6.5940  -5.5338  -5.4738  -4.2757  -4.2451  -3.7167
    -2.1214  -2.0498  -1.9931  -1.9623  -1.8872  -1.8703   5.9641   6.0660
     6.3355   6.4142   6.7181   6.9021   6.9450   7.1320   7.1805   7.3166
     7.5483   7.6515   7.7788   7.8202   7.9252   7.9674   8.3576   8.4001
    10.7971  10.8054  10.9478  10.9664  10.9899  11.0294  11.0740  11.1527
    11.2335  11.3518  11.3827  11.5666  11.6038  11.8484  14.3889  14.4414
    14.5560  14.7831  15.0115  15.0187  15.3582  15.4590  15.6657  15.7034

     occupation numbers 
     1.0000   1.0000   1.0000   1.0000   1.0000   1.0000   1.0000   1.0000
     1.0000   1.0000   1.0000   1.0000   1.0000   1.0000   1.0000   1.0000
     1.0000   1.0000   1.0000   1.0000   1.0000   1.0000   1.0000   1.0000
     1.0000   1.0000   1.0000   1.0000   1.0000   1.0000   1.0000   1.0000
     1.0000   1.0000   1.0000   1.0000   1.0000   1.0000   1.0000   1.0000
     0.0000   0.0000   0.0000   0.0000   0.0000   0.0000   0.0000   0.0000
     0.0000   0.0000   0.0000   0.0000   0.0000   0.0000   0.0000   0.0000
     0.0000   0.0000   0.0000   0.0000   0.0000   0.0000   0.0000   0.0000

          k = 0.3333 0.0021-0.2368 (  3289 PWs)   bands (ev):

   -23.5811 -23.5468 -16.8662 -16.8353  -8.9683  -8.8783  -8.7981  -8.2646
    -8.1811  -8.0443  -5.5935  -5.5371  -5.4730  -4.3023  -4.2261  -4.2078
    -2.2226  -2.0384  -2.0315  -1.9977  -1.9163  -1.9141   6.2634   6.3732
     6.4079   6.6062   6.6619   6.9325   7.0930   7.1398   7.2538   7.4245
     7.6087   7.7332   7.7930   7.9732   7.9960   8.0368   8.1950   8.3072
    10.7951  10.8089  10.9310  10.9603  11.0144  11.0860  11.1139  11.1543
    11.1730  11.1803  11.2332  11.5929  11.6032  11.6648  13.7924  14.0184
    14.2614  14.4632  14.6757  14.7052  14.8767  14.9732  15.2106  16.0155

     occupation numbers 
     1.0000   1.0000   1.0000   1.0000   1.0000   1.0000   1.0000   1.0000
     1.0000   1.0000   1.0000   1.0000   1.0000   1.0000   1.0000   1.0000
     1.0000   1.0000   1.0000   1.0000   1.0000   1.0000   1.0000   1.0000
     1.0000   1.0000   1.0000   1.0000   1.0000   1.0000   1.0000   1.0000
     1.0000   1.0000   1.0000   1.0000   1.0000   1.0000   1.0000   1.0000
     0.0000   0.0000   0.0000   0.0000   0.0000   0.0000   0.0000   0.0000
     0.0000   0.0000   0.0000   0.0000   0.0000   0.0000   0.0000   0.0000
     0.0000   0.0000   0.0000   0.0000   0.0000   0.0000   0.0000   0.0000

          k = 0.3333 0.3354 0.4700 (  3265 PWs)   bands (ev):

   -23.5638 -23.5636 -16.8545 -16.8487  -9.1901  -8.9421  -8.8161  -8.2138
    -8.0856  -7.3483  -6.5940  -5.5338  -5.4738  -4.2757  -4.2451  -3.7167
    -2.1214  -2.0498  -1.9931  -1.9623  -1.8872  -1.8703   5.9640   6.0660
     6.3355   6.4142   6.7181   6.9021   6.9450   7.1320   7.1805   7.3166
     7.5483   7.6516   7.7788   7.8202   7.9252   7.9674   8.3576   8.4001
    10.7971  10.8054  10.9478  10.9663  10.9899  11.0294  11.0740  11.1527
    11.2334  11.3519  11.3827  11.5666  11.6039  11.8483  14.3889  14.4414
    14.5561  14.7831  15.0115  15.0187  15.3582  15.4590  15.6657  15.7034

     occupation numbers 
     1.0000   1.0000   1.0000   1.0000   1.0000   1.0000   1.0000   1.0000
     1.0000   1.0000   1.0000   1.0000   1.0000   1.0000   1.0000   1.0000
     1.0000   1.0000   1.0000   1.0000   1.0000   1.0000   1.0000   1.0000
     1.0000   1.0000   1.0000   1.0000   1.0000   1.0000   1.0000   1.0000
     1.0000   1.0000   1.0000   1.0000   1.0000   1.0000   1.0000   1.0000
     0.0000   0.0000   0.0000   0.0000   0.0000   0.0000   0.0000   0.0000
     0.0000   0.0000   0.0000   0.0000   0.0000   0.0000   0.0000   0.0000
     0.0000   0.0000   0.0000   0.0000   0.0000   0.0000   0.0000   0.0000

          k = 0.3333 0.3354 0.9399 (  3265 PWs)   bands (ev):

   -23.5638 -23.5636 -16.8545 -16.8487  -9.1901  -8.9421  -8.8161  -8.2138
    -8.0856  -7.3483  -6.5940  -5.5338  -5.4738  -4.2757  -4.2451  -3.7167
    -2.1214  -2.0498  -1.9931  -1.9623  -1.8872  -1.8703   5.9640   6.0660
     6.3355   6.4142   6.7181   6.9021   6.9450   7.1320   7.1805   7.3166
     7.5483   7.6516   7.7788   7.8202   7.9252   7.9674   8.3576   8.4001
    10.7971  10.8054  10.9478  10.9664  10.9899  11.0294  11.0740  11.1527
    11.2334  11.3519  11.3827  11.5666  11.6039  11.8483  14.3889  14.4414
    14.5560  14.7831  15.0115  15.0187  15.3582  15.4590  15.6657  15.7035

     occupation numbers 
     1.0000   1.0000   1.0000   1.0000   1.0000   1.0000   1.0000   1.0000
     1.0000   1.0000   1.0000   1.0000   1.0000   1.0000   1.0000   1.0000
     1.0000   1.0000   1.0000   1.0000   1.0000   1.0000   1.0000   1.0000
     1.0000   1.0000   1.0000   1.0000   1.0000   1.0000   1.0000   1.0000
     1.0000   1.0000   1.0000   1.0000   1.0000   1.0000   1.0000   1.0000
     0.0000   0.0000   0.0000   0.0000   0.0000   0.0000   0.0000   0.0000
     0.0000   0.0000   0.0000   0.0000   0.0000   0.0000   0.0000   0.0000
     0.0000   0.0000   0.0000   0.0000   0.0000   0.0000   0.0000   0.0000

          k = 0.3333 0.3354 0.0000 (  3304 PWs)   bands (ev):

   -23.5810 -23.5466 -16.8695 -16.8327  -9.2426  -9.1621  -8.8056  -8.0518
    -7.3830  -7.3392  -6.6243  -6.6083  -5.4530  -4.3195  -3.7531  -3.6060
    -2.1132  -2.0720  -1.9976  -1.9435  -1.9333  -1.9088   5.7109   5.8476
     6.2869   6.5992   6.7609   6.7706   7.1215   7.1898   7.2690   7.2959
     7.4293   7.5297   7.7966   7.9246   8.0196   8.3009   8.3845   8.4851
    10.7930  10.8107  10.9145  10.9393  10.9411  11.0693  11.1054  11.1257
    11.2057  11.3137  11.4066  11.4730  11.8868  11.9968  13.6983  14.1097
    14.5196  14.5689  14.9099  14.9710  15.1055  15.1611  15.4120  15.9484

     occupation numbers 
     1.0000   1.0000   1.0000   1.0000   1.0000   1.0000   1.0000   1.0000
     1.0000   1.0000   1.0000   1.0000   1.0000   1.0000   1.0000   1.0000
     1.0000   1.0000   1.0000   1.0000   1.0000   1.0000   1.0000   1.0000
     1.0000   1.0000   1.0000   1.0000   1.0000   1.0000   1.0000   1.0000
     1.0000   1.0000   1.0000   1.0000   1.0000   1.0000   1.0000   1.0000
     0.0000   0.0000   0.0000   0.0000   0.0000   0.0000   0.0000   0.0000
     0.0000   0.0000   0.0000   0.0000   0.0000   0.0000   0.0000   0.0000
     0.0000   0.0000   0.0000   0.0000   0.0000   0.0000   0.0000   0.0000

          k = 0.3333-0.3313-0.0037 (  3298 PWs)   bands (ev):

   -23.5809 -23.5467 -16.8671 -16.8352  -9.1937  -9.0891  -8.9044  -8.1685
    -7.3826  -7.2478  -6.6195  -6.5632  -5.5013  -4.3114  -3.6963  -3.6659
    -2.2143  -2.0407  -2.0050  -1.9628  -1.9399  -1.8409   5.7530   5.8391
     6.4199   6.5116   6.6541   6.8223   7.2113   7.2882   7.3013   7.3243
     7.4631   7.5493   7.7096   7.9419   7.9533   8.3176   8.4253   8.4631
    10.7940  10.8030  10.8968  10.9387  10.9502  11.0508  11.0557  11.1865
    11.2331  11.2907  11.3973  11.4902  11.9174  11.9439  13.9243  13.9566
    14.2571  14.3453  14.6908  14.7898  15.2100  15.5156  15.5970  15.9295

     occupation numbers 
     1.0000   1.0000   1.0000   1.0000   1.0000   1.0000   1.0000   1.0000
     1.0000   1.0000   1.0000   1.0000   1.0000   1.0000   1.0000   1.0000
     1.0000   1.0000   1.0000   1.0000   1.0000   1.0000   1.0000   1.0000
     1.0000   1.0000   1.0000   1.0000   1.0000   1.0000   1.0000   1.0000
     1.0000   1.0000   1.0000   1.0000   1.0000   1.0000   1.0000   1.0000
     0.0000   0.0000   0.0000   0.0000   0.0000   0.0000   0.0000   0.0000
     0.0000   0.0000   0.0000   0.0000   0.0000   0.0000   0.0000   0.0000
     0.0000   0.0000   0.0000   0.0000   0.0000   0.0000   0.0000   0.0000

          k = 0.3333-0.3313 0.4663 (  3254 PWs)   bands (ev):

   -23.5638 -23.5636 -16.8577 -16.8454  -9.0725  -8.9561  -8.9343  -8.2322
    -8.1653  -7.2238  -6.5400  -5.5475  -5.4928  -4.3442  -4.2164  -3.7253
    -2.1322  -2.0845  -1.9844  -1.9214  -1.8926  -1.8426   6.0408   6.0956
     6.3271   6.3352   6.7165   6.8516   6.9662   7.0161   7.0981   7.4447
     7.4843   7.5567   7.7798   7.9183   8.0480   8.0555   8.1991   8.4346
    10.7902  10.8135  10.9452  10.9946  11.0013  11.0123  11.0696  11.1291
    11.2437  11.3777  11.3885  11.5600  11.6149  11.8295  14.3803  14.3926
    14.4794  14.7453  15.1208  15.1250  15.5096  15.5825  15.7626  15.9503

     occupation numbers 
     1.0000   1.0000   1.0000   1.0000   1.0000   1.0000   1.0000   1.0000
     1.0000   1.0000   1.0000   1.0000   1.0000   1.0000   1.0000   1.0000
     1.0000   1.0000   1.0000   1.0000   1.0000   1.0000   1.0000   1.0000
     1.0000   1.0000   1.0000   1.0000   1.0000   1.0000   1.0000   1.0000
     1.0000   1.0000   1.0000   1.0000   1.0000   1.0000   1.0000   1.0000
     0.0000   0.0000   0.0000   0.0000   0.0000   0.0000   0.0000   0.0000
     0.0000   0.0000   0.0000   0.0000   0.0000   0.0000   0.0000   0.0000
     0.0000   0.0000   0.0000   0.0000   0.0000   0.0000   0.0000   0.0000

          k = 0.3333-0.3313-0.4736 (  3278 PWs)   bands (ev):

   -23.5638 -23.5636 -16.8539 -16.8493  -9.0630  -9.0017  -8.8949  -8.2205
    -8.1819  -7.2239  -6.5395  -5.5272  -5.5052  -4.3432  -4.2199  -3.7488
    -2.0524  -2.0057  -1.9817  -1.9743  -1.9658  -1.8674   6.0370   6.0892
     6.3303   6.4683   6.7207   6.9262   6.9595   7.0338   7.0803   7.3671
     7.3915   7.7023   7.7735   7.8948   7.9251   7.9858   8.1481   8.4340
    10.7980  10.8092  10.9533  10.9777  11.0043  11.0287  11.0600  11.1319
    11.2499  11.3624  11.3636  11.5272  11.6079  11.8377  14.2179  14.5012
    14.7038  14.8006  14.8069  15.1094  15.3591  15.6316  15.7565  16.1962

     occupation numbers 
     1.0000   1.0000   1.0000   1.0000   1.0000   1.0000   1.0000   1.0000
     1.0000   1.0000   1.0000   1.0000   1.0000   1.0000   1.0000   1.0000
     1.0000   1.0000   1.0000   1.0000   1.0000   1.0000   1.0000   1.0000
     1.0000   1.0000   1.0000   1.0000   1.0000   1.0000   1.0000   1.0000
     1.0000   1.0000   1.0000   1.0000   1.0000   1.0000   1.0000   1.0000
     0.0000   0.0000   0.0000   0.0000   0.0000   0.0000   0.0000   0.0000
     0.0000   0.0000   0.0000   0.0000   0.0000   0.0000   0.0000   0.0000
     0.0000   0.0000   0.0000   0.0000   0.0000   0.0000   0.0000   0.0000

     highest occupied, lowest unoccupied level (ev):     8.6088   10.7769

!    total energy              =   -2087.51736382 Ry

     total all-electron energy =    -34410.784955 Ry
     estimated scf accuracy    <       0.00000003 Ry

     The total energy is the sum of the following terms:
     one-electron contribution =     -73.59483863 Ry
     hartree contribution      =      91.88775650 Ry
     xc contribution           =    -106.11093343 Ry
     ewald contribution        =    -376.26261105 Ry
     one-center paw contrib.   =   -1623.43673722 Ry
      -> PAW hartree energy AE =      57.36342380 Ry
      -> PAW hartree energy PS =     -57.14005059 Ry
      -> PAW xc energy AE      =    -788.44584992 Ry
      -> PAW xc energy PS      =      38.31263189 Ry
      -> total E_H with PAW    =      92.11112971 Ry
      -> total E_XC with PAW   =    -856.24415146 Ry

     convergence has been achieved in  18 iterations

     Writing all to output data dir calculations_bands_val/myprefix.save/
 
     init_run     :     10.21s CPU      3.57s WALL (       1 calls)
     electrons    :    108.90s CPU     32.34s WALL (       1 calls)

     Called by init_run:
     wfcinit      :      1.54s CPU      0.41s WALL (       1 calls)
     wfcinit:atom :      0.01s CPU      0.00s WALL (       7 calls)
     wfcinit:wfcr :      1.43s CPU      0.37s WALL (       7 calls)
     potinit      :      2.75s CPU      0.89s WALL (       1 calls)
     hinit0       :      4.53s CPU      1.74s WALL (       1 calls)

     Called by electrons:
     c_bands      :     56.84s CPU     15.04s WALL (      18 calls)
     sum_band     :     15.05s CPU      4.27s WALL (      18 calls)
     v_of_rho     :      1.20s CPU      0.32s WALL (      19 calls)
     v_h          :      0.08s CPU      0.02s WALL (      19 calls)
     v_xc         :      1.12s CPU      0.30s WALL (      19 calls)
     newd         :      6.27s CPU      1.76s WALL (      19 calls)
     PAW_pot      :     30.58s CPU     11.35s WALL (      19 calls)
     mix_rho      :      0.40s CPU      0.11s WALL (      18 calls)

     Called by c_bands:
     init_us_2    :      0.31s CPU      0.09s WALL (     259 calls)
     init_us_2:cp :      0.30s CPU      0.08s WALL (     259 calls)
     cegterg      :     51.56s CPU     13.60s WALL (     126 calls)

     Called by sum_band:
     sum_band:wei :      0.02s CPU      0.01s WALL (      18 calls)
     sum_band:loo :      8.60s CPU      2.23s WALL (      18 calls)
     sum_band:buf :      0.13s CPU      0.04s WALL (     126 calls)
     sum_band:ini :      0.14s CPU      0.04s WALL (     126 calls)
     sum_band:cal :      0.37s CPU      0.10s WALL (     126 calls)
     sum_band:bec :      0.07s CPU      0.02s WALL (     126 calls)
     addusdens    :      4.46s CPU      1.52s WALL (      18 calls)
     addusd:skk   :      0.02s CPU      0.01s WALL (      54 calls)
     addusd:dgemm :      0.82s CPU      0.59s WALL (      54 calls)
     addusd:qvan2 :      3.35s CPU      0.84s WALL (      54 calls)

     Called by *egterg:
     cdiaghg      :      8.99s CPU      2.36s WALL (     489 calls)
     cegterg:over :      1.93s CPU      0.51s WALL (     363 calls)
     cegterg:upda :      0.82s CPU      0.22s WALL (     363 calls)
     cegterg:last :      1.21s CPU      0.31s WALL (     223 calls)
     cdiaghg:chol :      0.60s CPU      0.16s WALL (     489 calls)
     cdiaghg:inve :      0.13s CPU      0.03s WALL (     489 calls)
     cdiaghg:para :      1.38s CPU      0.36s WALL (     978 calls)
     h_psi        :     38.18s CPU     10.07s WALL (     496 calls)
     s_psi        :      0.56s CPU      0.15s WALL (     496 calls)
     g_psi        :      0.05s CPU      0.01s WALL (     363 calls)

     Called by h_psi:
     h_psi:calbec :      1.19s CPU      0.32s WALL (     496 calls)
     vloc_psi     :     36.09s CPU      9.50s WALL (     496 calls)
     add_vuspsi   :      0.75s CPU      0.20s WALL (     496 calls)

     General routines
     calbec       :      1.54s CPU      0.41s WALL (     622 calls)
     fft          :      2.29s CPU      0.67s WALL (     245 calls)
     ffts         :      0.51s CPU      0.13s WALL (      37 calls)
     fftw         :     38.86s CPU     10.19s WALL (   46998 calls)
     interpolate  :      0.54s CPU      0.14s WALL (      19 calls)
 
     Parallel routines

     PAW routines
     PAW_pot      :     30.58s CPU     11.35s WALL (      19 calls)
     PAW_symme    :      0.04s CPU      0.01s WALL (      37 calls)
 
     PWSCF        :   2m 1.62s CPU     37.26s WALL

 
   This run was terminated on:  11:42:58   4Jun2023            

=------------------------------------------------------------------------------=
   JOB DONE.
=------------------------------------------------------------------------------=
