
     Program PWSCF v.7.0 starts on  4Jun2023 at 14:37:49 

     This program is part of the open-source Quantum ESPRESSO suite
     for quantum simulation of materials; please cite
         "P. Giannozzi et al., J. Phys.:Condens. Matter 21 395502 (2009);
         "P. Giannozzi et al., J. Phys.:Condens. Matter 29 465901 (2017);
         "P. Giannozzi et al., J. Chem. Phys. 152 154105 (2020);
          URL http://www.quantum-espresso.org", 
     in publications or presentations arising from this work. More details at
     http://www.quantum-espresso.org/quote

     Parallel version (MPI & OpenMP), running on      32 processor cores
     Number of MPI processes:                 8
     Threads/MPI process:                     4

     MPI processes distributed on     1 nodes
     K-points division:     npool     =       2
     R & G space division:  proc/nbgrp/npool/nimage =       4
     143343 MiB available memory on the printing compute node when the environment starts
 
     Reading input from espresso_756.pwi
Warning: card &CELL ignored
Warning: card / ignored

     Current dimensions of program PWSCF are:
     Max number of different atomic species (ntypx) = 10
     Max number of k-points (npk) =  40000
     Max angular momentum in pseudopotentials (lmaxx) =  4
     Message from routine setup:
     using ibrav=0 with symmetry is DISCOURAGED, use correct ibrav instead

     Subspace diagonalization in iterative solution of the eigenvalue problem:
     one sub-group per band group will be used
     scalapack distributed-memory algorithm (size of sub-group:  2*  2 procs)

 
     Parallelization info
     --------------------
     sticks:   dense  smooth     PW     G-vecs:    dense   smooth      PW
     Min         799     400    109                22013     7788    1159
     Max         800     402    110                22014     7789    1162
     Sum        3197    1605    437                88053    31153    4643
 
     Using Slab Decomposition
 


     bravais-lattice index     =            0
     lattice parameter (alat)  =      12.9516  a.u.
     unit-cell volume          =    1402.0163 (a.u.)^3
     number of atoms/cell      =            6
     number of atomic types    =            2
     number of electrons       =        48.00
     number of Kohn-Sham states=           64
     kinetic-energy cutoff     =      30.0000  Ry
     charge density cutoff     =     240.0000  Ry
     scf convergence threshold =      1.0E-06
     mixing beta               =       0.7000
     number of iterations used =            8  plain     mixing
     Exchange-correlation=  SLA  PW   PBX  PBC
                           (   1   4   3   4   0   0   0)

     celldm(1)=  12.951580  celldm(2)=   0.000000  celldm(3)=   0.000000
     celldm(4)=   0.000000  celldm(5)=   0.000000  celldm(6)=   0.000000

     crystal axes: (cart. coord. in units of alat)
               a(1) = (   1.000000   0.000000   0.000000 )  
               a(2) = (   0.000000   1.000000   0.000000 )  
               a(3) = (   0.000000   0.000000   0.645334 )  

     reciprocal axes: (cart. coord. in units 2 pi/alat)
               b(1) = (  1.000000  0.000000  0.000000 )  
               b(2) = (  0.000000  1.000000  0.000000 )  
               b(3) = (  0.000000  0.000000  1.549584 )  


     PseudoPot. # 1 for Ca read from file:
     /home/pragov/projects/rrg-bengioy-ad/pragov/crystal_structure_design/SSSP/Ca_pbe_v1.uspp.F.UPF
     MD5 check sum: 403a4c14b9e4d4dfdc3024c9a3812218
     Pseudo is Ultrasoft + core correction, Zval = 10.0
     Generated by new atomic code, or converted to UPF format
     Using radial grid of  845 points,  6 beta functions with: 
                l(1) =   0
                l(2) =   0
                l(3) =   1
                l(4) =   1
                l(5) =   2
                l(6) =   2
     Q(r) pseudized with  8 coefficients,  rinner =    1.500   1.500   1.500
                                                       1.500   1.500

     PseudoPot. # 2 for Br read from file:
     /home/pragov/projects/rrg-bengioy-ad/pragov/crystal_structure_design/SSSP/br_pbe_v1.4.uspp.F.UPF
     MD5 check sum: d3ffb7b29f6225aa16fe06858fb2a80b
     Pseudo is Ultrasoft + core correction, Zval =  7.0
     Generated by new atomic code, or converted to UPF format
     Using radial grid of  879 points,  6 beta functions with: 
                l(1) =   0
                l(2) =   0
                l(3) =   1
                l(4) =   1
                l(5) =   2
                l(6) =   2
     Q(r) pseudized with  8 coefficients,  rinner =    1.100   1.100   1.100
                                                       1.100   1.100

     atomic species   valence    mass     pseudopotential
        Ca            10.00    40.07800     Ca( 1.00)
        Br             7.00    79.90400     Br( 1.00)

     16 Sym. Ops., with inversion, found ( 8 have fractional translation)


                                    s                        frac. trans.

      isym =  1     identity                                     

 cryst.   s( 1) = (     1          0          0      )
                  (     0          1          0      )
                  (     0          0          1      )

 cart.    s( 1) = (  1.0000000  0.0000000  0.0000000 )
                  (  0.0000000  1.0000000  0.0000000 )
                  (  0.0000000  0.0000000  1.0000000 )


      isym =  2     180 deg rotation - cart. axis [0,0,1]        

 cryst.   s( 2) = (    -1          0          0      )
                  (     0         -1          0      )
                  (     0          0          1      )

 cart.    s( 2) = ( -1.0000000  0.0000000  0.0000000 )
                  (  0.0000000 -1.0000000  0.0000000 )
                  (  0.0000000  0.0000000  1.0000000 )


      isym =  3     180 deg rotation - cart. axis [0,1,0]        

 cryst.   s( 3) = (    -1          0          0      )    f =(  0.5000000 )
                  (     0          1          0      )       ( -0.5000000 )
                  (     0          0         -1      )       (  0.5000000 )

 cart.    s( 3) = ( -1.0000000  0.0000000  0.0000000 )    f =(  0.5000000 )
                  (  0.0000000  1.0000000  0.0000000 )       ( -0.5000000 )
                  (  0.0000000  0.0000000 -1.0000000 )       (  0.3226672 )


      isym =  4     180 deg rotation - cart. axis [1,0,0]        

 cryst.   s( 4) = (     1          0          0      )    f =( -0.5000000 )
                  (     0         -1          0      )       (  0.5000000 )
                  (     0          0         -1      )       (  0.5000000 )

 cart.    s( 4) = (  1.0000000  0.0000000  0.0000000 )    f =( -0.5000000 )
                  (  0.0000000 -1.0000000  0.0000000 )       (  0.5000000 )
                  (  0.0000000  0.0000000 -1.0000000 )       (  0.3226672 )


      isym =  5     180 deg rotation - cart. axis [1,1,0]        

 cryst.   s( 5) = (     0          1          0      )
                  (     1          0          0      )
                  (     0          0         -1      )

 cart.    s( 5) = (  0.0000000  1.0000000  0.0000000 )
                  (  1.0000000  0.0000000  0.0000000 )
                  (  0.0000000  0.0000000 -1.0000000 )


      isym =  6     180 deg rotation - cart. axis [1,-1,0]       

 cryst.   s( 6) = (     0         -1          0      )
                  (    -1          0          0      )
                  (     0          0         -1      )

 cart.    s( 6) = (  0.0000000 -1.0000000  0.0000000 )
                  ( -1.0000000  0.0000000  0.0000000 )
                  (  0.0000000  0.0000000 -1.0000000 )


      isym =  7      90 deg rotation - cart. axis [0,0,-1]       

 cryst.   s( 7) = (     0         -1          0      )    f =( -0.5000000 )
                  (     1          0          0      )       (  0.5000000 )
                  (     0          0          1      )       ( -0.5000000 )

 cart.    s( 7) = (  0.0000000  1.0000000  0.0000000 )    f =( -0.5000000 )
                  ( -1.0000000  0.0000000  0.0000000 )       (  0.5000000 )
                  (  0.0000000  0.0000000  1.0000000 )       ( -0.3226672 )


      isym =  8      90 deg rotation - cart. axis [0,0,1]        

 cryst.   s( 8) = (     0          1          0      )    f =(  0.5000000 )
                  (    -1          0          0      )       ( -0.5000000 )
                  (     0          0          1      )       ( -0.5000000 )

 cart.    s( 8) = (  0.0000000 -1.0000000  0.0000000 )    f =(  0.5000000 )
                  (  1.0000000  0.0000000  0.0000000 )       ( -0.5000000 )
                  (  0.0000000  0.0000000  1.0000000 )       ( -0.3226672 )


      isym =  9     inversion                                    

 cryst.   s( 9) = (    -1          0          0      )
                  (     0         -1          0      )
                  (     0          0         -1      )

 cart.    s( 9) = ( -1.0000000  0.0000000  0.0000000 )
                  (  0.0000000 -1.0000000  0.0000000 )
                  (  0.0000000  0.0000000 -1.0000000 )


      isym = 10     inv. 180 deg rotation - cart. axis [0,0,1]   

 cryst.   s(10) = (     1          0          0      )
                  (     0          1          0      )
                  (     0          0         -1      )

 cart.    s(10) = (  1.0000000  0.0000000  0.0000000 )
                  (  0.0000000  1.0000000  0.0000000 )
                  (  0.0000000  0.0000000 -1.0000000 )


      isym = 11     inv. 180 deg rotation - cart. axis [0,1,0]   

 cryst.   s(11) = (     1          0          0      )    f =( -0.5000000 )
                  (     0         -1          0      )       (  0.5000000 )
                  (     0          0          1      )       ( -0.5000000 )

 cart.    s(11) = (  1.0000000  0.0000000  0.0000000 )    f =( -0.5000000 )
                  (  0.0000000 -1.0000000  0.0000000 )       (  0.5000000 )
                  (  0.0000000  0.0000000  1.0000000 )       ( -0.3226672 )


      isym = 12     inv. 180 deg rotation - cart. axis [1,0,0]   

 cryst.   s(12) = (    -1          0          0      )    f =(  0.5000000 )
                  (     0          1          0      )       ( -0.5000000 )
                  (     0          0          1      )       ( -0.5000000 )

 cart.    s(12) = ( -1.0000000  0.0000000  0.0000000 )    f =(  0.5000000 )
                  (  0.0000000  1.0000000  0.0000000 )       ( -0.5000000 )
                  (  0.0000000  0.0000000  1.0000000 )       ( -0.3226672 )


      isym = 13     inv. 180 deg rotation - cart. axis [1,1,0]   

 cryst.   s(13) = (     0         -1          0      )
                  (    -1          0          0      )
                  (     0          0          1      )

 cart.    s(13) = (  0.0000000 -1.0000000  0.0000000 )
                  ( -1.0000000  0.0000000  0.0000000 )
                  (  0.0000000  0.0000000  1.0000000 )


      isym = 14     inv. 180 deg rotation - cart. axis [1,-1,0]  

 cryst.   s(14) = (     0          1          0      )
                  (     1          0          0      )
                  (     0          0          1      )

 cart.    s(14) = (  0.0000000  1.0000000  0.0000000 )
                  (  1.0000000  0.0000000  0.0000000 )
                  (  0.0000000  0.0000000  1.0000000 )


      isym = 15     inv.  90 deg rotation - cart. axis [0,0,-1]  

 cryst.   s(15) = (     0          1          0      )    f =(  0.5000000 )
                  (    -1          0          0      )       ( -0.5000000 )
                  (     0          0         -1      )       (  0.5000000 )

 cart.    s(15) = (  0.0000000 -1.0000000  0.0000000 )    f =(  0.5000000 )
                  (  1.0000000  0.0000000  0.0000000 )       ( -0.5000000 )
                  (  0.0000000  0.0000000 -1.0000000 )       (  0.3226672 )


      isym = 16     inv.  90 deg rotation - cart. axis [0,0,1]   

 cryst.   s(16) = (     0         -1          0      )    f =( -0.5000000 )
                  (     1          0          0      )       (  0.5000000 )
                  (     0          0         -1      )       (  0.5000000 )

 cart.    s(16) = (  0.0000000  1.0000000  0.0000000 )    f =( -0.5000000 )
                  ( -1.0000000  0.0000000  0.0000000 )       (  0.5000000 )
                  (  0.0000000  0.0000000 -1.0000000 )       (  0.3226672 )


   Cartesian axes

     site n.     atom                  positions (alat units)
         1           Ca  tau(   1) = (   0.0000000   0.0000000   0.0000000  )
         2           Ca  tau(   2) = (   0.5000000   0.5000000   0.3226672  )
         3           Br  tau(   3) = (   0.8030740   0.1969260   0.3226672  )
         4           Br  tau(   4) = (   0.6969260   0.6969260   0.0000000  )
         5           Br  tau(   5) = (   0.3030740   0.3030740   0.0000000  )
         6           Br  tau(   6) = (   0.1969260   0.8030740   0.3226672  )

   Crystallographic axes

     site n.     atom                  positions (cryst. coord.)
         1           Ca  tau(   1) = (  0.0000000  0.0000000  0.0000000  )
         2           Ca  tau(   2) = (  0.5000000  0.5000000  0.5000000  )
         3           Br  tau(   3) = (  0.8030740  0.1969260  0.5000000  )
         4           Br  tau(   4) = (  0.6969260  0.6969260  0.0000000  )
         5           Br  tau(   5) = (  0.3030740  0.3030740  0.0000000  )
         6           Br  tau(   6) = (  0.1969260  0.8030740  0.5000000  )

     number of k points=     6
                       cart. coord. in units 2pi/alat
        k(    1) = (   0.0000000   0.0000000   0.0000000), wk =   0.0740741
        k(    2) = (   0.0000000   0.0000000   0.5165281), wk =   0.1481481
        k(    3) = (   0.0000000   0.3333333   0.0000000), wk =   0.2962963
        k(    4) = (   0.0000000   0.3333333   0.5165281), wk =   0.5925926
        k(    5) = (   0.3333333   0.3333333   0.0000000), wk =   0.2962963
        k(    6) = (   0.3333333   0.3333333   0.5165281), wk =   0.5925926

                       cryst. coord.
        k(    1) = (   0.0000000   0.0000000   0.0000000), wk =   0.0740741
        k(    2) = (   0.0000000   0.0000000   0.3333333), wk =   0.1481481
        k(    3) = (   0.0000000   0.3333333   0.0000000), wk =   0.2962963
        k(    4) = (   0.0000000   0.3333333   0.3333333), wk =   0.5925926
        k(    5) = (   0.3333333   0.3333333   0.0000000), wk =   0.2962963
        k(    6) = (   0.3333333   0.3333333   0.3333333), wk =   0.5925926

     Dense  grid:    88053 G-vectors     FFT dimensions: (  64,  64,  48)

     Smooth grid:    31153 G-vectors     FFT dimensions: (  48,  48,  30)

     Dynamical RAM for                 wfc:       0.95 MB

     Dynamical RAM for     wfc (w. buffer):       3.80 MB

     Dynamical RAM for           str. fact:       0.67 MB

     Dynamical RAM for           local pot:       0.00 MB

     Dynamical RAM for          nlocal pot:       1.60 MB

     Dynamical RAM for                qrad:       2.49 MB

     Dynamical RAM for          rho,v,vnew:       2.13 MB

     Dynamical RAM for               rhoin:       0.71 MB

     Dynamical RAM for            rho*nmix:       5.37 MB

     Dynamical RAM for           G-vectors:       1.32 MB

     Dynamical RAM for          h,s,v(r/c):       0.19 MB

     Dynamical RAM for          <psi|beta>:       0.11 MB

     Dynamical RAM for                 psi:       1.90 MB

     Dynamical RAM for                hpsi:       1.90 MB

     Dynamical RAM for                spsi:       1.90 MB

     Dynamical RAM for      wfcinit/wfcrot:       1.99 MB

     Dynamical RAM for           addusdens:      32.08 MB

     Estimated static dynamical RAM per process >      15.60 MB

     Estimated max dynamical RAM per process >      53.06 MB

     Estimated total dynamical RAM >     402.96 MB

     Check: negative core charge=   -0.000001

     Initial potential from superposition of free atoms

     starting charge      47.9890, renormalised to      48.0000
     Starting wfcs are   36 randomized atomic wfcs +   28 random wfcs

     total cpu time spent up to now is        1.4 secs

     Self-consistent Calculation

     iteration #  1     ecut=    30.00 Ry     beta= 0.70
     Davidson diagonalization with overlap

---- Real-time Memory Report at c_bands before calling an iterative solver
           182 MiB given to the printing process from OS
             0 MiB allocation reported by mallinfo(arena+hblkhd)
        142743 MiB available memory on the node where the printing process lives
------------------
     ethr =  1.00E-02,  avg # of iterations =  6.3

     Threshold (ethr) on eigenvalues was too large:
     Diagonalizing with lowered threshold

     Davidson diagonalization with overlap

---- Real-time Memory Report at c_bands before calling an iterative solver
           218 MiB given to the printing process from OS
             0 MiB allocation reported by mallinfo(arena+hblkhd)
        142490 MiB available memory on the node where the printing process lives
------------------
     ethr =  1.87E-04,  avg # of iterations =  6.2

     total cpu time spent up to now is        2.5 secs

     total energy              =    -338.11889669 Ry
     estimated scf accuracy    <       0.08850205 Ry

     iteration #  2     ecut=    30.00 Ry     beta= 0.70
     Davidson diagonalization with overlap

---- Real-time Memory Report at c_bands before calling an iterative solver
           227 MiB given to the printing process from OS
             0 MiB allocation reported by mallinfo(arena+hblkhd)
        142373 MiB available memory on the node where the printing process lives
------------------
     ethr =  1.84E-04,  avg # of iterations =  2.0

     total cpu time spent up to now is        2.9 secs

     total energy              =    -338.13625725 Ry
     estimated scf accuracy    <       0.01415386 Ry

     iteration #  3     ecut=    30.00 Ry     beta= 0.70
     Davidson diagonalization with overlap

---- Real-time Memory Report at c_bands before calling an iterative solver
           230 MiB given to the printing process from OS
             0 MiB allocation reported by mallinfo(arena+hblkhd)
        142348 MiB available memory on the node where the printing process lives
------------------
     ethr =  2.95E-05,  avg # of iterations =  3.0

     total cpu time spent up to now is        3.3 secs

     total energy              =    -338.14026147 Ry
     estimated scf accuracy    <       0.00118608 Ry

     iteration #  4     ecut=    30.00 Ry     beta= 0.70
     Davidson diagonalization with overlap

---- Real-time Memory Report at c_bands before calling an iterative solver
           232 MiB given to the printing process from OS
             0 MiB allocation reported by mallinfo(arena+hblkhd)
        142346 MiB available memory on the node where the printing process lives
------------------
     ethr =  2.47E-06,  avg # of iterations =  7.7

     total cpu time spent up to now is        3.8 secs

     total energy              =    -338.14046718 Ry
     estimated scf accuracy    <       0.00004077 Ry

     iteration #  5     ecut=    30.00 Ry     beta= 0.70
     Davidson diagonalization with overlap

---- Real-time Memory Report at c_bands before calling an iterative solver
           232 MiB given to the printing process from OS
             0 MiB allocation reported by mallinfo(arena+hblkhd)
        142329 MiB available memory on the node where the printing process lives
------------------
     ethr =  8.49E-08,  avg # of iterations =  2.0

     total cpu time spent up to now is        4.2 secs

     End of self-consistent calculation

          k = 0.0000 0.0000 0.0000 (  3943 PWs)   bands (ev):

   -37.6096 -37.6092 -18.6283 -18.6283 -18.6076 -18.6076 -18.5935 -18.5909
   -11.4098 -11.0834 -11.0320 -11.0320  -1.0777   0.0020   0.0951   0.3814
     0.3814   0.5604   0.6072   0.6072   1.3211   1.5843   1.5843   1.8470
     6.2942   6.3125   6.7066   7.1412   7.1496   7.1496   7.5821   8.1636
     8.3910   8.3910   8.7378   8.7378   9.4043  10.1102  10.8419  10.8536
    11.7782  11.9270  12.2847  12.2847  12.7255  13.9366  13.9366  14.4049
    14.6796  14.6796  14.9793  15.2068  15.4752  15.4752  15.5601  15.7529
    16.0843  16.7319  17.1116  17.1116  17.2251  17.9913  17.9914  18.0752

     occupation numbers 
     1.0000   1.0000   1.0000   1.0000   1.0000   1.0000   1.0000   1.0000
     1.0000   1.0000   1.0000   1.0000   1.0000   1.0000   1.0000   1.0000
     1.0000   1.0000   1.0000   1.0000   1.0000   1.0000   1.0000   1.0000
     0.0000   0.0000   0.0000   0.0000   0.0000   0.0000   0.0000   0.0000
     0.0000   0.0000   0.0000   0.0000   0.0000   0.0000   0.0000   0.0000
     0.0000   0.0000   0.0000   0.0000   0.0000   0.0000   0.0000   0.0000
     0.0000   0.0000   0.0000   0.0000   0.0000   0.0000   0.0000   0.0000
     0.0000   0.0000   0.0000   0.0000   0.0000   0.0000   0.0000   0.0000

          k = 0.0000 0.0000 0.5165 (  3890 PWs)   bands (ev):

   -37.6087 -37.6085 -18.6260 -18.6249 -18.6172 -18.6172 -18.6064 -18.6064
   -11.2362 -11.0687 -11.0514 -11.0514  -0.6438  -0.0037   0.0105   0.2470
     0.2470   0.2592   0.5390   0.6857   0.6857   1.2364   1.2364   1.4433
     7.0367   7.0978   7.1944   7.1944   7.3177   7.6367   7.7287   8.0986
     8.3419   8.3419   8.9512   9.8889  10.4566  10.6922  10.6922  10.9879
    11.5983  11.5983  11.7443  11.7767  11.7901  13.1418  13.5279  13.5279
    14.4319  14.4319  14.5863  14.5970  15.3381  15.9633  15.9633  15.9987
    16.5510  16.5510  17.6066  18.0968  18.0968  18.1951  18.4612  18.5501

     occupation numbers 
     1.0000   1.0000   1.0000   1.0000   1.0000   1.0000   1.0000   1.0000
     1.0000   1.0000   1.0000   1.0000   1.0000   1.0000   1.0000   1.0000
     1.0000   1.0000   1.0000   1.0000   1.0000   1.0000   1.0000   1.0000
     0.0000   0.0000   0.0000   0.0000   0.0000   0.0000   0.0000   0.0000
     0.0000   0.0000   0.0000   0.0000   0.0000   0.0000   0.0000   0.0000
     0.0000   0.0000   0.0000   0.0000   0.0000   0.0000   0.0000   0.0000
     0.0000   0.0000   0.0000   0.0000   0.0000   0.0000   0.0000   0.0000
     0.0000   0.0000   0.0000   0.0000   0.0000   0.0000   0.0000   0.0000

          k = 0.0000 0.3333 0.0000 (  3892 PWs)   bands (ev):

   -37.6095 -37.6093 -18.6238 -18.6237 -18.6124 -18.6123 -18.5928 -18.5915
   -11.3309 -11.1671 -11.0335 -11.0327  -0.7977  -0.2848   0.2671   0.5174
     0.5370   0.5649   0.5676   0.8237   0.9969   1.1519   1.4883   1.6489
     6.5424   6.6963   7.1481   7.2920   7.3406   7.4919   7.5952   7.9520
     8.3843   8.4880   8.5662   8.6256   8.9462   9.9171  10.8799  11.2271
    11.7556  11.8732  12.1209  12.3262  12.4437  13.0571  13.2935  13.4518
    13.9857  14.0678  14.9760  14.9932  15.0414  15.7460  15.8351  15.9736
    16.8124  17.3792  17.6642  17.9731  18.1360  18.1941  18.6427  18.9933

     occupation numbers 
     1.0000   1.0000   1.0000   1.0000   1.0000   1.0000   1.0000   1.0000
     1.0000   1.0000   1.0000   1.0000   1.0000   1.0000   1.0000   1.0000
     1.0000   1.0000   1.0000   1.0000   1.0000   1.0000   1.0000   1.0000
     0.0000   0.0000   0.0000   0.0000   0.0000   0.0000   0.0000   0.0000
     0.0000   0.0000   0.0000   0.0000   0.0000   0.0000   0.0000   0.0000
     0.0000   0.0000   0.0000   0.0000   0.0000   0.0000   0.0000   0.0000
     0.0000   0.0000   0.0000   0.0000   0.0000   0.0000   0.0000   0.0000
     0.0000   0.0000   0.0000   0.0000   0.0000   0.0000   0.0000   0.0000

          k = 0.0000 0.3333 0.5165 (  3893 PWs)   bands (ev):

   -37.6086 -37.6085 -18.6295 -18.6289 -18.6126 -18.6118 -18.6080 -18.6072
   -11.1914 -11.1004 -11.0625 -11.0553  -0.4809  -0.1209  -0.1105  -0.0620
     0.2974   0.3792   0.5800   0.6465   0.9115   1.2133   1.2932   1.4610
     6.7502   6.9393   7.3417   7.3639   7.5534   7.6419   7.7207   7.9621
     8.3793   8.8581   8.9544  10.0609  10.0690  10.3835  10.4675  10.8543
    11.5260  11.5576  11.7021  11.7356  12.0098  12.2893  12.6475  13.0624
    14.8684  14.9137  15.0863  15.1317  15.3474  15.7206  15.8902  16.3480
    16.9964  17.0322  17.6721  18.1342  18.7728  18.9176  19.0937  19.1800

     occupation numbers 
     1.0000   1.0000   1.0000   1.0000   1.0000   1.0000   1.0000   1.0000
     1.0000   1.0000   1.0000   1.0000   1.0000   1.0000   1.0000   1.0000
     1.0000   1.0000   1.0000   1.0000   1.0000   1.0000   1.0000   1.0000
     0.0000   0.0000   0.0000   0.0000   0.0000   0.0000   0.0000   0.0000
     0.0000   0.0000   0.0000   0.0000   0.0000   0.0000   0.0000   0.0000
     0.0000   0.0000   0.0000   0.0000   0.0000   0.0000   0.0000   0.0000
     0.0000   0.0000   0.0000   0.0000   0.0000   0.0000   0.0000   0.0000
     0.0000   0.0000   0.0000   0.0000   0.0000   0.0000   0.0000   0.0000

          k = 0.3333 0.3333 0.0000 (  3884 PWs)   bands (ev):

   -37.6095 -37.6094 -18.6288 -18.6241 -18.6120 -18.6072 -18.5925 -18.5919
   -11.2856 -11.2008 -11.0422 -11.0384  -0.6888  -0.4414   0.3205   0.5389
     0.5617   0.5859   0.7899   0.8702   1.0211   1.0473   1.2977   1.4866
     6.5273   6.6977   7.1734   7.2305   7.3300   7.4930   7.7256   7.7381
     8.4327   8.6991   8.7240   9.0606   9.1856  10.1574  10.5218  10.5980
    11.5450  11.6041  11.9840  12.8150  12.8254  12.8956  13.0791  13.7852
    13.8446  13.9383  14.0684  14.4430  15.1195  15.3208  15.6856  16.6567
    16.7301  17.0699  17.3033  17.5049  18.4233  18.5157  19.0439  19.5333

     occupation numbers 
     1.0000   1.0000   1.0000   1.0000   1.0000   1.0000   1.0000   1.0000
     1.0000   1.0000   1.0000   1.0000   1.0000   1.0000   1.0000   1.0000
     1.0000   1.0000   1.0000   1.0000   1.0000   1.0000   1.0000   1.0000
     0.0000   0.0000   0.0000   0.0000   0.0000   0.0000   0.0000   0.0000
     0.0000   0.0000   0.0000   0.0000   0.0000   0.0000   0.0000   0.0000
     0.0000   0.0000   0.0000   0.0000   0.0000   0.0000   0.0000   0.0000
     0.0000   0.0000   0.0000   0.0000   0.0000   0.0000   0.0000   0.0000
     0.0000   0.0000   0.0000   0.0000   0.0000   0.0000   0.0000   0.0000

          k = 0.3333 0.3333 0.5165 (  3884 PWs)   bands (ev):

   -37.6086 -37.6086 -18.6292 -18.6255 -18.6174 -18.6123 -18.6075 -18.6062
   -11.1663 -11.1194 -11.0628 -11.0605  -0.6062  -0.4582  -0.0521  -0.0366
     0.3383   0.5175   0.6919   0.7192   1.0473   1.2596   1.3195   1.4627
     6.8335   7.0323   7.1954   7.2386   7.4473   7.5270   7.8159   8.1661
     8.2347   8.5739   8.9001   9.5315   9.7180   9.7652  10.7526  11.3829
    11.5901  11.8544  11.8751  11.9139  12.4172  12.5019  12.5782  13.7117
    13.8908  14.3097  14.8411  15.2306  15.5908  15.9295  16.4241  16.6410
    16.8568  17.6170  17.9637  18.2568  18.7230  18.8053  18.8354  19.1639

     occupation numbers 
     1.0000   1.0000   1.0000   1.0000   1.0000   1.0000   1.0000   1.0000
     1.0000   1.0000   1.0000   1.0000   1.0000   1.0000   1.0000   1.0000
     1.0000   1.0000   1.0000   1.0000   1.0000   1.0000   1.0000   1.0000
     0.0000   0.0000   0.0000   0.0000   0.0000   0.0000   0.0000   0.0000
     0.0000   0.0000   0.0000   0.0000   0.0000   0.0000   0.0000   0.0000
     0.0000   0.0000   0.0000   0.0000   0.0000   0.0000   0.0000   0.0000
     0.0000   0.0000   0.0000   0.0000   0.0000   0.0000   0.0000   0.0000
     0.0000   0.0000   0.0000   0.0000   0.0000   0.0000   0.0000   0.0000

     highest occupied, lowest unoccupied level (ev):     1.8470    6.2942

!    total energy              =    -338.14047696 Ry
     estimated scf accuracy    <       0.00000077 Ry

     The total energy is the sum of the following terms:
     one-electron contribution =    -105.75428466 Ry
     hartree contribution      =      65.67666128 Ry
     xc contribution           =    -128.50931676 Ry
     ewald contribution        =    -169.55353682 Ry

     convergence has been achieved in   5 iterations

     Writing all to output data dir calculations_bands_val/myprefix.save/
 
     init_run     :      3.91s CPU      1.17s WALL (       1 calls)
     electrons    :     10.61s CPU      2.82s WALL (       1 calls)

     Called by init_run:
     wfcinit      :      0.39s CPU      0.10s WALL (       1 calls)
     wfcinit:atom :      0.00s CPU      0.00s WALL (       3 calls)
     wfcinit:wfcr :      0.36s CPU      0.10s WALL (       3 calls)
     potinit      :      1.21s CPU      0.36s WALL (       1 calls)
     hinit0       :      1.95s CPU      0.58s WALL (       1 calls)

     Called by electrons:
     c_bands      :      7.37s CPU      1.91s WALL (       6 calls)
     sum_band     :      2.07s CPU      0.60s WALL (       6 calls)
     v_of_rho     :      0.39s CPU      0.10s WALL (       6 calls)
     v_h          :      0.03s CPU      0.01s WALL (       6 calls)
     v_xc         :      0.36s CPU      0.09s WALL (       6 calls)
     newd         :      1.01s CPU      0.28s WALL (       6 calls)
     mix_rho      :      0.07s CPU      0.02s WALL (       6 calls)

     Called by c_bands:
     init_us_2    :      0.04s CPU      0.01s WALL (      39 calls)
     init_us_2:cp :      0.04s CPU      0.01s WALL (      39 calls)
     cegterg      :      6.89s CPU      1.78s WALL (      18 calls)

     Called by sum_band:
     sum_band:wei :      0.01s CPU      0.00s WALL (       6 calls)
     sum_band:loo :      0.93s CPU      0.24s WALL (       6 calls)
     sum_band:buf :      0.02s CPU      0.00s WALL (      18 calls)
     sum_band:ini :      0.02s CPU      0.00s WALL (      18 calls)
     sum_band:cal :      0.04s CPU      0.01s WALL (      18 calls)
     sum_band:bec :      0.01s CPU      0.00s WALL (      18 calls)
     addusdens    :      0.89s CPU      0.29s WALL (       6 calls)
     addusd:skk   :      0.00s CPU      0.00s WALL (      12 calls)
     addusd:dgemm :      0.20s CPU      0.12s WALL (      12 calls)
     addusd:qvan2 :      0.65s CPU      0.16s WALL (      12 calls)

     Called by *egterg:
     cdiaghg      :      1.52s CPU      0.40s WALL (     103 calls)
     cegterg:over :      0.25s CPU      0.07s WALL (      88 calls)
     cegterg:upda :      0.18s CPU      0.05s WALL (      88 calls)
     cegterg:last :      0.28s CPU      0.07s WALL (      42 calls)
     cdiaghg:chol :      0.11s CPU      0.03s WALL (     103 calls)
     cdiaghg:inve :      0.02s CPU      0.01s WALL (     103 calls)
     cdiaghg:para :      0.23s CPU      0.06s WALL (     206 calls)
     h_psi        :      4.74s CPU      1.23s WALL (     109 calls)
     s_psi        :      0.09s CPU      0.02s WALL (     109 calls)
     g_psi        :      0.01s CPU      0.00s WALL (      88 calls)

     Called by h_psi:
     h_psi:calbec :      0.16s CPU      0.04s WALL (     109 calls)
     vloc_psi     :      4.44s CPU      1.15s WALL (     109 calls)
     add_vuspsi   :      0.12s CPU      0.03s WALL (     109 calls)

     General routines
     calbec       :      0.20s CPU      0.05s WALL (     127 calls)
     fft          :      1.37s CPU      0.37s WALL (      77 calls)
     ffts         :      0.93s CPU      0.29s WALL (      12 calls)
     fftw         :      4.36s CPU      1.13s WALL (    7372 calls)
     interpolate  :      0.95s CPU      0.29s WALL (       6 calls)
 
     Parallel routines
 
     PWSCF        :     15.62s CPU      4.53s WALL

 
   This run was terminated on:  14:37:53   4Jun2023            

=------------------------------------------------------------------------------=
   JOB DONE.
=------------------------------------------------------------------------------=
