
     Program PWSCF v.7.0 starts on  4Jun2023 at 12:34:46 

     This program is part of the open-source Quantum ESPRESSO suite
     for quantum simulation of materials; please cite
         "P. Giannozzi et al., J. Phys.:Condens. Matter 21 395502 (2009);
         "P. Giannozzi et al., J. Phys.:Condens. Matter 29 465901 (2017);
         "P. Giannozzi et al., J. Chem. Phys. 152 154105 (2020);
          URL http://www.quantum-espresso.org", 
     in publications or presentations arising from this work. More details at
     http://www.quantum-espresso.org/quote

     Parallel version (MPI & OpenMP), running on      32 processor cores
     Number of MPI processes:                 8
     Threads/MPI process:                     4

     MPI processes distributed on     1 nodes
     K-points division:     npool     =       2
     R & G space division:  proc/nbgrp/npool/nimage =       4
     142232 MiB available memory on the printing compute node when the environment starts
 
     Reading input from espresso_440.pwi
Warning: card &CELL ignored
Warning: card / ignored

     Current dimensions of program PWSCF are:
     Max number of different atomic species (ntypx) = 10
     Max number of k-points (npk) =  40000
     Max angular momentum in pseudopotentials (lmaxx) =  4
     file Mg.pbe-n-kjpaw_psl.0.3.0.UPF: wavefunction(s)  3S renormalized
     Message from routine setup:
     using ibrav=0 with symmetry is DISCOURAGED, use correct ibrav instead

     Subspace diagonalization in iterative solution of the eigenvalue problem:
     one sub-group per band group will be used
     scalapack distributed-memory algorithm (size of sub-group:  2*  2 procs)

 
     Parallelization info
     --------------------
     sticks:   dense  smooth     PW     G-vecs:    dense   smooth      PW
     Min         419     209     68                 7204     2547     476
     Max         420     210     69                 7205     2549     477
     Sum        1677     837    275                28817    10191    1907
 
     Using Slab Decomposition
 


     bravais-lattice index     =            0
     lattice parameter (alat)  =      14.8607  a.u.
     unit-cell volume          =     460.5698 (a.u.)^3
     number of atoms/cell      =            3
     number of atomic types    =            1
     number of electrons       =         6.00
     number of Kohn-Sham states=           64
     kinetic-energy cutoff     =      30.0000  Ry
     charge density cutoff     =     240.0000  Ry
     scf convergence threshold =      1.0E-06
     mixing beta               =       0.7000
     number of iterations used =            8  plain     mixing
     Exchange-correlation= SLA  PW   PBX  PBC
                           (   1   4   3   4   0   0   0)

     celldm(1)=  14.860658  celldm(2)=   0.000000  celldm(3)=   0.000000
     celldm(4)=   0.000000  celldm(5)=   0.000000  celldm(6)=   0.000000

     crystal axes: (cart. coord. in units of alat)
               a(1) = (   1.000000   0.000000   0.000000 )  
               a(2) = (   0.916624   0.399749   0.000000 )  
               a(3) = (   0.916624   0.191180   0.351070 )  

     reciprocal axes: (cart. coord. in units 2 pi/alat)
               b(1) = (  1.000000 -2.292997 -1.362263 )  
               b(2) = (  0.000000  2.501567 -1.362263 )  
               b(3) = (  0.000000  0.000000  2.848437 )  


     PseudoPot. # 1 for Mg read from file:
     /home/pragov/projects/rrg-bengioy-ad/pragov/crystal_structure_design/SSSP/Mg.pbe-n-kjpaw_psl.0.3.0.UPF
     MD5 check sum: 24ecedc7f3e3cbe212e682f4413594e4
     Pseudo is Projector augmented-wave + core cor, Zval =  2.0
     Generated using "atomic" code by A. Dal Corso  v.5.0.99 svn rev. 10869
     Shape of augmentation charge: PSQ
     Using radial grid of 1129 points,  4 beta functions with: 
                l(1) =   0
                l(2) =   0
                l(3) =   1
                l(4) =   1
     Q(r) pseudized with 0 coefficients 


     atomic species   valence    mass     pseudopotential
        Mg             2.00    24.30500     Mg( 1.00)

      2 Sym. Ops., with inversion, found


                                    s                        frac. trans.

      isym =  1     identity                                     

 cryst.   s( 1) = (     1          0          0      )
                  (     0          1          0      )
                  (     0          0          1      )

 cart.    s( 1) = (  1.0000000  0.0000000  0.0000000 )
                  (  0.0000000  1.0000000  0.0000000 )
                  (  0.0000000  0.0000000  1.0000000 )


      isym =  2     inversion                                    

 cryst.   s( 2) = (    -1          0          0      )
                  (     0         -1          0      )
                  (     0          0         -1      )

 cart.    s( 2) = ( -1.0000000 -0.0000000 -0.0000000 )
                  (  0.0000000 -1.0000000 -0.0000000 )
                  (  0.0000000  0.0000000 -1.0000000 )


   Cartesian axes

     site n.     atom                  positions (alat units)
         1           Mg  tau(   1) = (   0.0000000   0.0000000   0.0000000  )
         2           Mg  tau(   2) = (   0.6295705   0.1313092   0.0780105  )
         3           Mg  tau(   3) = (   2.2036782   0.4596202   0.2730592  )

   Crystallographic axes

     site n.     atom                  positions (cryst. coord.)
         1           Mg  tau(   1) = (  0.0000000  0.0000000  0.0000000  )
         2           Mg  tau(   2) = (  0.2222080  0.2222080  0.2222080  )
         3           Mg  tau(   3) = (  0.7777920  0.7777920  0.7777920  )

     number of k points=    14
                       cart. coord. in units 2pi/alat
        k(    1) = (   0.0000000   0.0000000   0.0000000), wk =   0.0740741
        k(    2) = (   0.0000000   0.0000000   0.9494789), wk =   0.1481481
        k(    3) = (   0.0000000   0.8338556  -0.4540876), wk =   0.1481481
        k(    4) = (   0.0000000   0.8338556   0.4953913), wk =   0.1481481
        k(    5) = (   0.0000000   0.8338556  -1.4035666), wk =   0.1481481
        k(    6) = (   0.3333333  -0.7643324  -0.4540876), wk =   0.1481481
        k(    7) = (   0.3333333  -0.7643324   0.4953913), wk =   0.1481481
        k(    8) = (   0.3333333  -0.7643324  -1.4035666), wk =   0.1481481
        k(    9) = (   0.3333333   0.0695232  -0.9081753), wk =   0.1481481
        k(   10) = (   0.3333333   0.0695232   0.0413036), wk =   0.1481481
        k(   11) = (   0.3333333   0.0695232  -1.8576542), wk =   0.1481481
        k(   12) = (   0.3333333  -1.5981880   0.0000000), wk =   0.1481481
        k(   13) = (   0.3333333  -1.5981880   0.9494789), wk =   0.1481481
        k(   14) = (   0.3333333  -1.5981880  -0.9494789), wk =   0.1481481

                       cryst. coord.
        k(    1) = (   0.0000000   0.0000000   0.0000000), wk =   0.0740741
        k(    2) = (   0.0000000   0.0000000   0.3333333), wk =   0.1481481
        k(    3) = (   0.0000000   0.3333333   0.0000000), wk =   0.1481481
        k(    4) = (   0.0000000   0.3333333   0.3333333), wk =   0.1481481
        k(    5) = (   0.0000000   0.3333333  -0.3333333), wk =   0.1481481
        k(    6) = (   0.3333333   0.0000000  -0.0000000), wk =   0.1481481
        k(    7) = (   0.3333333   0.0000000   0.3333333), wk =   0.1481481
        k(    8) = (   0.3333333   0.0000000  -0.3333333), wk =   0.1481481
        k(    9) = (   0.3333333   0.3333333   0.0000000), wk =   0.1481481
        k(   10) = (   0.3333333   0.3333333   0.3333333), wk =   0.1481481
        k(   11) = (   0.3333333   0.3333333  -0.3333333), wk =   0.1481481
        k(   12) = (   0.3333333  -0.3333333  -0.0000000), wk =   0.1481481
        k(   13) = (   0.3333333  -0.3333333   0.3333333), wk =   0.1481481
        k(   14) = (   0.3333333  -0.3333333  -0.3333333), wk =   0.1481481

     Dense  grid:    28817 G-vectors     FFT dimensions: (  75,  75,  75)

     Smooth grid:    10191 G-vectors     FFT dimensions: (  54,  54,  54)

     Dynamical RAM for                 wfc:       0.31 MB

     Dynamical RAM for     wfc (w. buffer):       2.49 MB

     Dynamical RAM for           str. fact:       0.11 MB

     Dynamical RAM for           local pot:       0.00 MB

     Dynamical RAM for          nlocal pot:       0.12 MB

     Dynamical RAM for                qrad:       0.36 MB

     Dynamical RAM for          rho,v,vnew:       2.78 MB

     Dynamical RAM for               rhoin:       0.93 MB

     Dynamical RAM for            rho*nmix:       1.76 MB

     Dynamical RAM for           G-vectors:       0.43 MB

     Dynamical RAM for          h,s,v(r/c):       0.19 MB

     Dynamical RAM for          <psi|beta>:       0.02 MB

     Dynamical RAM for                 psi:       0.62 MB

     Dynamical RAM for                hpsi:       0.62 MB

     Dynamical RAM for                spsi:       0.62 MB

     Dynamical RAM for      wfcinit/wfcrot:       0.72 MB

     Dynamical RAM for           addusdens:       2.58 MB

     Estimated static dynamical RAM per process >      11.50 MB

     Estimated max dynamical RAM per process >      15.85 MB

     Estimated total dynamical RAM >     119.73 MB

     Initial potential from superposition of free atoms

     starting charge       5.9972, renormalised to       6.0000
     Starting wfcs are   12 randomized atomic wfcs +   52 random wfcs
     Checking if some PAW data can be deallocated... 

     total cpu time spent up to now is        1.0 secs

     Self-consistent Calculation

     iteration #  1     ecut=    30.00 Ry     beta= 0.70
     Davidson diagonalization with overlap

---- Real-time Memory Report at c_bands before calling an iterative solver
           195 MiB given to the printing process from OS
             0 MiB allocation reported by mallinfo(arena+hblkhd)
        141605 MiB available memory on the node where the printing process lives
------------------
     ethr =  1.00E-02,  avg # of iterations =  6.7

     Threshold (ethr) on eigenvalues was too large:
     Diagonalizing with lowered threshold

     Davidson diagonalization with overlap

---- Real-time Memory Report at c_bands before calling an iterative solver
           232 MiB given to the printing process from OS
             0 MiB allocation reported by mallinfo(arena+hblkhd)
        141312 MiB available memory on the node where the printing process lives
------------------
     ethr =  1.91E-04,  avg # of iterations =  3.0

     total cpu time spent up to now is        4.0 secs

     total energy              =    -100.81029931 Ry
     estimated scf accuracy    <       0.01148958 Ry

     iteration #  2     ecut=    30.00 Ry     beta= 0.70
     Davidson diagonalization with overlap

---- Real-time Memory Report at c_bands before calling an iterative solver
           247 MiB given to the printing process from OS
             0 MiB allocation reported by mallinfo(arena+hblkhd)
        141200 MiB available memory on the node where the printing process lives
------------------
     ethr =  1.91E-04,  avg # of iterations =  1.0

     total cpu time spent up to now is        4.9 secs

     total energy              =    -100.80803190 Ry
     estimated scf accuracy    <       0.00469040 Ry

     iteration #  3     ecut=    30.00 Ry     beta= 0.70
     Davidson diagonalization with overlap

---- Real-time Memory Report at c_bands before calling an iterative solver
           254 MiB given to the printing process from OS
             0 MiB allocation reported by mallinfo(arena+hblkhd)
        141147 MiB available memory on the node where the printing process lives
------------------
     ethr =  7.82E-05,  avg # of iterations =  2.8

     total cpu time spent up to now is        5.8 secs

     total energy              =    -100.80527829 Ry
     estimated scf accuracy    <       0.06099985 Ry

     iteration #  4     ecut=    30.00 Ry     beta= 0.70
     Davidson diagonalization with overlap

---- Real-time Memory Report at c_bands before calling an iterative solver
           254 MiB given to the printing process from OS
             0 MiB allocation reported by mallinfo(arena+hblkhd)
        141145 MiB available memory on the node where the printing process lives
------------------
     ethr =  7.82E-05,  avg # of iterations =  1.9

     total cpu time spent up to now is        6.7 secs

     total energy              =    -100.81041889 Ry
     estimated scf accuracy    <       0.00001780 Ry

     iteration #  5     ecut=    30.00 Ry     beta= 0.70
     Davidson diagonalization with overlap

---- Real-time Memory Report at c_bands before calling an iterative solver
           254 MiB given to the printing process from OS
             0 MiB allocation reported by mallinfo(arena+hblkhd)
        141145 MiB available memory on the node where the printing process lives
------------------
     ethr =  2.97E-07,  avg # of iterations =  7.7

     total cpu time spent up to now is        8.2 secs

     total energy              =    -100.81042850 Ry
     estimated scf accuracy    <       0.00000139 Ry

     iteration #  6     ecut=    30.00 Ry     beta= 0.70
     Davidson diagonalization with overlap

---- Real-time Memory Report at c_bands before calling an iterative solver
           256 MiB given to the printing process from OS
             0 MiB allocation reported by mallinfo(arena+hblkhd)
        141133 MiB available memory on the node where the printing process lives
------------------
     ethr =  2.32E-08,  avg # of iterations =  1.9

     total cpu time spent up to now is        9.0 secs

     End of self-consistent calculation

          k = 0.0000 0.0000 0.0000 (  1255 PWs)   bands (ev):

    -3.3209  -0.7642  -0.7636   6.5859   6.5880  14.6050  14.6050  14.6996
    14.6996  15.0124  15.0124  15.8673  15.9260  15.9260  17.0915  17.2877
    17.9841  17.9871  17.9871  18.9101  19.0883  19.0883  19.3256  20.0528
    20.0528  20.6865  21.3987  21.3987  22.5292  23.9794  25.3645  25.3645
    28.5235  28.5235  28.8107  29.9623  30.7751  30.7751  31.8899  31.8899
    33.7628  35.5280  35.9463  37.1445  37.6181  40.4232  40.4232  41.1047
    41.1047  44.5200  44.7247  45.0660  45.0660  47.3327  47.8657  47.8657
    48.6783  48.6783  50.6474  50.6474  50.7856  50.8986  50.8986  51.3765

     occupation numbers 
     1.0000   1.0000   1.0000   0.0000   0.0000   0.0000   0.0000   0.0000
     0.0000   0.0000   0.0000   0.0000   0.0000   0.0000   0.0000   0.0000
     0.0000   0.0000   0.0000   0.0000   0.0000   0.0000   0.0000   0.0000
     0.0000   0.0000   0.0000   0.0000   0.0000   0.0000   0.0000   0.0000
     0.0000   0.0000   0.0000   0.0000   0.0000   0.0000   0.0000   0.0000
     0.0000   0.0000   0.0000   0.0000   0.0000   0.0000   0.0000   0.0000
     0.0000   0.0000   0.0000   0.0000   0.0000   0.0000   0.0000   0.0000
     0.0000   0.0000   0.0000   0.0000   0.0000   0.0000   0.0000   0.0000

          k = 0.0000 0.0000 0.9495 (  1279 PWs)   bands (ev):

    -1.1393   0.8044   1.8900   5.1312   6.4642   7.7490   8.5278   9.5322
    11.2250  11.4691  11.8035  12.7375  13.5693  15.1949  16.3042  16.5936
    17.4160  17.6535  19.5204  21.8516  22.0251  23.0807  23.1796  23.9444
    24.6391  24.9089  25.1582  25.3832  26.9938  27.7003  28.1256  29.7266
    30.1987  30.6372  31.0161  32.9499  33.4259  34.7832  34.8004  35.2568
    35.8900  36.1950  36.3435  37.0870  37.3382  38.2945  38.6623  39.2080
    39.8168  40.7611  41.5921  41.7514  42.4208  42.9796  44.1385  44.3523
    45.0475  45.5921  45.8608  46.6806  47.4244  47.6917  48.4140  48.7565

     occupation numbers 
     1.0000   1.0000   1.0000   0.0000   0.0000   0.0000   0.0000   0.0000
     0.0000   0.0000   0.0000   0.0000   0.0000   0.0000   0.0000   0.0000
     0.0000   0.0000   0.0000   0.0000   0.0000   0.0000   0.0000   0.0000
     0.0000   0.0000   0.0000   0.0000   0.0000   0.0000   0.0000   0.0000
     0.0000   0.0000   0.0000   0.0000   0.0000   0.0000   0.0000   0.0000
     0.0000   0.0000   0.0000   0.0000   0.0000   0.0000   0.0000   0.0000
     0.0000   0.0000   0.0000   0.0000   0.0000   0.0000   0.0000   0.0000
     0.0000   0.0000   0.0000   0.0000   0.0000   0.0000   0.0000   0.0000

          k = 0.0000 0.8339-0.4541 (  1279 PWs)   bands (ev):

    -1.1393   0.8044   1.8900   5.1312   6.4642   7.7490   8.5278   9.5322
    11.2250  11.4691  11.8035  12.7375  13.5693  15.1949  16.3042  16.5936
    17.4160  17.6534  19.5204  21.8516  22.0251  23.0807  23.1796  23.9443
    24.6391  24.9089  25.1582  25.3832  26.9938  27.7003  28.1256  29.7266
    30.1986  30.6372  31.0161  32.9499  33.4259  34.7833  34.8004  35.2568
    35.8901  36.1950  36.3435  37.0870  37.3382  38.2945  38.6623  39.2080
    39.8168  40.7611  41.5921  41.7514  42.4208  42.9796  44.1385  44.3523
    45.0475  45.5921  45.8608  46.6806  47.4244  47.6917  48.4140  48.7566

     occupation numbers 
     1.0000   1.0000   1.0000   0.0000   0.0000   0.0000   0.0000   0.0000
     0.0000   0.0000   0.0000   0.0000   0.0000   0.0000   0.0000   0.0000
     0.0000   0.0000   0.0000   0.0000   0.0000   0.0000   0.0000   0.0000
     0.0000   0.0000   0.0000   0.0000   0.0000   0.0000   0.0000   0.0000
     0.0000   0.0000   0.0000   0.0000   0.0000   0.0000   0.0000   0.0000
     0.0000   0.0000   0.0000   0.0000   0.0000   0.0000   0.0000   0.0000
     0.0000   0.0000   0.0000   0.0000   0.0000   0.0000   0.0000   0.0000
     0.0000   0.0000   0.0000   0.0000   0.0000   0.0000   0.0000   0.0000

          k = 0.0000 0.8339 0.4954 (  1270 PWs)   bands (ev):

    -1.0456   0.3467   2.5068   5.4630   5.7608   6.7759   9.8641  10.3851
    10.7668  10.8267  12.5134  12.7832  13.4672  13.9133  14.8299  17.7964
    18.6891  19.0865  20.5062  20.6088  21.1936  22.3871  22.5148  22.7101
    23.3793  25.4407  25.7317  25.9158  27.0580  28.5647  28.7920  30.5938
    30.6158  30.7443  32.4927  33.7761  34.0352  34.0675  34.3122  34.3777
    34.9839  35.1923  35.7979  36.4872  37.5220  37.6759  38.4669  38.9934
    39.1704  39.5555  40.8762  42.0188  42.2555  43.0551  43.6484  45.2700
    45.9895  46.9553  47.5578  48.0568  48.7896  49.0445  49.3276  49.4532

     occupation numbers 
     1.0000   1.0000   1.0000   0.0000   0.0000   0.0000   0.0000   0.0000
     0.0000   0.0000   0.0000   0.0000   0.0000   0.0000   0.0000   0.0000
     0.0000   0.0000   0.0000   0.0000   0.0000   0.0000   0.0000   0.0000
     0.0000   0.0000   0.0000   0.0000   0.0000   0.0000   0.0000   0.0000
     0.0000   0.0000   0.0000   0.0000   0.0000   0.0000   0.0000   0.0000
     0.0000   0.0000   0.0000   0.0000   0.0000   0.0000   0.0000   0.0000
     0.0000   0.0000   0.0000   0.0000   0.0000   0.0000   0.0000   0.0000
     0.0000   0.0000   0.0000   0.0000   0.0000   0.0000   0.0000   0.0000

          k = 0.0000 0.8339-1.4036 (  1271 PWs)   bands (ev):

     2.9645   3.1894   3.2442   3.7268   4.2538   5.5438   5.6997   7.1084
     7.6757   9.6582  10.4396  12.8100  12.8869  15.9835  16.3978  19.6709
    19.6763  20.7806  21.3015  21.3305  21.8984  22.2287  23.4184  23.7495
    23.8304  24.0644  25.1130  26.4944  27.8646  29.0510  29.6687  30.6422
    30.9576  31.7291  33.6230  33.7359  34.9065  35.9919  36.7547  36.8043
    37.4012  38.9260  38.9315  39.4799  39.6067  39.9275  40.1252  40.7255
    40.9469  41.2593  41.2753  41.8213  42.4540  42.6026  42.7974  43.2572
    43.4454  44.3689  44.8973  45.3783  45.8196  46.1266  46.3684  47.1360

     occupation numbers 
     1.0000   1.0000   1.0000   0.0000   0.0000   0.0000   0.0000   0.0000
     0.0000   0.0000   0.0000   0.0000   0.0000   0.0000   0.0000   0.0000
     0.0000   0.0000   0.0000   0.0000   0.0000   0.0000   0.0000   0.0000
     0.0000   0.0000   0.0000   0.0000   0.0000   0.0000   0.0000   0.0000
     0.0000   0.0000   0.0000   0.0000   0.0000   0.0000   0.0000   0.0000
     0.0000   0.0000   0.0000   0.0000   0.0000   0.0000   0.0000   0.0000
     0.0000   0.0000   0.0000   0.0000   0.0000   0.0000   0.0000   0.0000
     0.0000   0.0000   0.0000   0.0000   0.0000   0.0000   0.0000   0.0000

          k = 0.3333-0.7643-0.4541 (  1279 PWs)   bands (ev):

    -1.1393   0.8044   1.8900   5.1312   6.4642   7.7490   8.5278   9.5322
    11.2250  11.4691  11.8035  12.7375  13.5693  15.1949  16.3042  16.5936
    17.4160  17.6534  19.5204  21.8516  22.0251  23.0807  23.1796  23.9443
    24.6391  24.9089  25.1582  25.3832  26.9938  27.7003  28.1256  29.7266
    30.1986  30.6372  31.0161  32.9499  33.4259  34.7833  34.8004  35.2568
    35.8901  36.1950  36.3435  37.0870  37.3382  38.2945  38.6623  39.2080
    39.8168  40.7611  41.5921  41.7514  42.4208  42.9796  44.1385  44.3523
    45.0475  45.5921  45.8608  46.6806  47.4244  47.6917  48.4140  48.7567

     occupation numbers 
     1.0000   1.0000   1.0000   0.0000   0.0000   0.0000   0.0000   0.0000
     0.0000   0.0000   0.0000   0.0000   0.0000   0.0000   0.0000   0.0000
     0.0000   0.0000   0.0000   0.0000   0.0000   0.0000   0.0000   0.0000
     0.0000   0.0000   0.0000   0.0000   0.0000   0.0000   0.0000   0.0000
     0.0000   0.0000   0.0000   0.0000   0.0000   0.0000   0.0000   0.0000
     0.0000   0.0000   0.0000   0.0000   0.0000   0.0000   0.0000   0.0000
     0.0000   0.0000   0.0000   0.0000   0.0000   0.0000   0.0000   0.0000
     0.0000   0.0000   0.0000   0.0000   0.0000   0.0000   0.0000   0.0000

          k = 0.3333-0.7643 0.4954 (  1270 PWs)   bands (ev):

    -1.0456   0.3467   2.5068   5.4630   5.7608   6.7759   9.8641  10.3851
    10.7668  10.8267  12.5134  12.7832  13.4672  13.9133  14.8299  17.7964
    18.6891  19.0865  20.5062  20.6088  21.1936  22.3871  22.5148  22.7101
    23.3793  25.4407  25.7317  25.9158  27.0580  28.5647  28.7920  30.5938
    30.6158  30.7443  32.4927  33.7761  34.0352  34.0675  34.3122  34.3777
    34.9839  35.1923  35.7979  36.4872  37.5220  37.6759  38.4669  38.9934
    39.1704  39.5554  40.8762  42.0188  42.2555  43.0551  43.6484  45.2700
    45.9895  46.9553  47.5578  48.0568  48.7895  49.0445  49.3275  49.4532

     occupation numbers 
     1.0000   1.0000   1.0000   0.0000   0.0000   0.0000   0.0000   0.0000
     0.0000   0.0000   0.0000   0.0000   0.0000   0.0000   0.0000   0.0000
     0.0000   0.0000   0.0000   0.0000   0.0000   0.0000   0.0000   0.0000
     0.0000   0.0000   0.0000   0.0000   0.0000   0.0000   0.0000   0.0000
     0.0000   0.0000   0.0000   0.0000   0.0000   0.0000   0.0000   0.0000
     0.0000   0.0000   0.0000   0.0000   0.0000   0.0000   0.0000   0.0000
     0.0000   0.0000   0.0000   0.0000   0.0000   0.0000   0.0000   0.0000
     0.0000   0.0000   0.0000   0.0000   0.0000   0.0000   0.0000   0.0000

          k = 0.3333-0.7643-1.4036 (  1271 PWs)   bands (ev):

     2.9645   3.1894   3.2442   3.7268   4.2538   5.5438   5.6997   7.1084
     7.6757   9.6582  10.4396  12.8100  12.8869  15.9835  16.3978  19.6709
    19.6763  20.7806  21.3015  21.3305  21.8984  22.2287  23.4184  23.7495
    23.8304  24.0644  25.1130  26.4944  27.8646  29.0510  29.6687  30.6422
    30.9576  31.7291  33.6230  33.7359  34.9065  35.9919  36.7547  36.8043
    37.4012  38.9260  38.9315  39.4799  39.6067  39.9275  40.1252  40.7255
    40.9469  41.2593  41.2753  41.8213  42.4540  42.6026  42.7974  43.2572
    43.4454  44.3689  44.8973  45.3783  45.8196  46.1266  46.3685  47.1368

     occupation numbers 
     1.0000   1.0000   1.0000   0.0000   0.0000   0.0000   0.0000   0.0000
     0.0000   0.0000   0.0000   0.0000   0.0000   0.0000   0.0000   0.0000
     0.0000   0.0000   0.0000   0.0000   0.0000   0.0000   0.0000   0.0000
     0.0000   0.0000   0.0000   0.0000   0.0000   0.0000   0.0000   0.0000
     0.0000   0.0000   0.0000   0.0000   0.0000   0.0000   0.0000   0.0000
     0.0000   0.0000   0.0000   0.0000   0.0000   0.0000   0.0000   0.0000
     0.0000   0.0000   0.0000   0.0000   0.0000   0.0000   0.0000   0.0000
     0.0000   0.0000   0.0000   0.0000   0.0000   0.0000   0.0000   0.0000

          k = 0.3333 0.0695-0.9082 (  1270 PWs)   bands (ev):

    -1.0456   0.3467   2.5068   5.4630   5.7608   6.7759   9.8641  10.3851
    10.7668  10.8267  12.5134  12.7832  13.4672  13.9133  14.8299  17.7964
    18.6891  19.0865  20.5062  20.6088  21.1936  22.3871  22.5148  22.7101
    23.3793  25.4408  25.7317  25.9158  27.0580  28.5647  28.7920  30.5938
    30.6158  30.7443  32.4927  33.7761  34.0352  34.0675  34.3122  34.3777
    34.9839  35.1923  35.7979  36.4872  37.5220  37.6759  38.4669  38.9934
    39.1704  39.5554  40.8762  42.0188  42.2554  43.0550  43.6484  45.2700
    45.9895  46.9553  47.5578  48.0568  48.7895  49.0445  49.3276  49.4533

     occupation numbers 
     1.0000   1.0000   1.0000   0.0000   0.0000   0.0000   0.0000   0.0000
     0.0000   0.0000   0.0000   0.0000   0.0000   0.0000   0.0000   0.0000
     0.0000   0.0000   0.0000   0.0000   0.0000   0.0000   0.0000   0.0000
     0.0000   0.0000   0.0000   0.0000   0.0000   0.0000   0.0000   0.0000
     0.0000   0.0000   0.0000   0.0000   0.0000   0.0000   0.0000   0.0000
     0.0000   0.0000   0.0000   0.0000   0.0000   0.0000   0.0000   0.0000
     0.0000   0.0000   0.0000   0.0000   0.0000   0.0000   0.0000   0.0000
     0.0000   0.0000   0.0000   0.0000   0.0000   0.0000   0.0000   0.0000

          k = 0.3333 0.0695 0.0413 (  1252 PWs)   bands (ev):

    -3.0331  -2.1750   1.1644   3.6770   9.9467  13.5961  14.4281  14.4281
    14.6480  14.6480  15.2160  15.2161  16.7293  16.7293  16.8759  16.9417
    16.9417  17.0316  17.5208  18.4898  18.4899  19.5811  19.7883  20.7179
    20.7179  21.2504  23.1248  23.1248  23.3724  23.5379  23.5379  25.8880
    27.3243  27.7632  27.7632  29.0930  30.9342  30.9342  31.0094  34.5576
    34.7075  34.7075  36.6694  37.1199  37.1199  39.3902  40.9929  40.9929
    41.4150  41.9996  45.0413  45.7229  45.7229  47.5024  48.9015  48.9015
    49.4891  49.4891  49.6085  51.3031  51.3032  51.4321  51.6437  52.1462

     occupation numbers 
     1.0000   1.0000   1.0000   0.0000   0.0000   0.0000   0.0000   0.0000
     0.0000   0.0000   0.0000   0.0000   0.0000   0.0000   0.0000   0.0000
     0.0000   0.0000   0.0000   0.0000   0.0000   0.0000   0.0000   0.0000
     0.0000   0.0000   0.0000   0.0000   0.0000   0.0000   0.0000   0.0000
     0.0000   0.0000   0.0000   0.0000   0.0000   0.0000   0.0000   0.0000
     0.0000   0.0000   0.0000   0.0000   0.0000   0.0000   0.0000   0.0000
     0.0000   0.0000   0.0000   0.0000   0.0000   0.0000   0.0000   0.0000
     0.0000   0.0000   0.0000   0.0000   0.0000   0.0000   0.0000   0.0000

          k = 0.3333 0.0695-1.8577 (  1284 PWs)   bands (ev):

    -0.6720  -0.3925   3.8520   4.5112   5.5931   6.9462   8.0136  10.9077
    11.4113  12.1052  12.5346  13.3621  14.0348  14.5304  15.0594  15.4811
    16.6651  17.7954  19.7501  21.5766  22.0393  23.2167  23.7184  23.7607
    24.6416  25.4171  25.5311  26.4056  27.1802  28.2267  28.5815  29.1236
    29.7263  31.2542  31.6369  32.2782  32.4450  33.3584  34.3869  35.1724
    35.3280  35.4789  35.8864  36.6957  37.2455  38.0175  38.2509  40.1493
    40.3671  41.2405  41.6362  42.2938  43.0385  43.7111  44.2139  45.1755
    45.8432  46.2583  46.9319  47.4943  47.7773  48.8338  49.2728  49.4226

     occupation numbers 
     1.0000   1.0000   1.0000   0.0000   0.0000   0.0000   0.0000   0.0000
     0.0000   0.0000   0.0000   0.0000   0.0000   0.0000   0.0000   0.0000
     0.0000   0.0000   0.0000   0.0000   0.0000   0.0000   0.0000   0.0000
     0.0000   0.0000   0.0000   0.0000   0.0000   0.0000   0.0000   0.0000
     0.0000   0.0000   0.0000   0.0000   0.0000   0.0000   0.0000   0.0000
     0.0000   0.0000   0.0000   0.0000   0.0000   0.0000   0.0000   0.0000
     0.0000   0.0000   0.0000   0.0000   0.0000   0.0000   0.0000   0.0000
     0.0000   0.0000   0.0000   0.0000   0.0000   0.0000   0.0000   0.0000

          k = 0.3333-1.5982 0.0000 (  1271 PWs)   bands (ev):

     2.9645   3.1894   3.2442   3.7268   4.2538   5.5438   5.6997   7.1083
     7.6757   9.6582  10.4396  12.8100  12.8869  15.9835  16.3978  19.6709
    19.6763  20.7806  21.3015  21.3305  21.8984  22.2287  23.4184  23.7495
    23.8304  24.0644  25.1130  26.4944  27.8646  29.0510  29.6687  30.6422
    30.9576  31.7291  33.6231  33.7359  34.9065  35.9919  36.7547  36.8043
    37.4012  38.9260  38.9315  39.4799  39.6067  39.9275  40.1252  40.7255
    40.9469  41.2593  41.2753  41.8213  42.4540  42.6026  42.7974  43.2572
    43.4454  44.3689  44.8973  45.3783  45.8196  46.1266  46.3684  47.1361

     occupation numbers 
     1.0000   1.0000   1.0000   0.0000   0.0000   0.0000   0.0000   0.0000
     0.0000   0.0000   0.0000   0.0000   0.0000   0.0000   0.0000   0.0000
     0.0000   0.0000   0.0000   0.0000   0.0000   0.0000   0.0000   0.0000
     0.0000   0.0000   0.0000   0.0000   0.0000   0.0000   0.0000   0.0000
     0.0000   0.0000   0.0000   0.0000   0.0000   0.0000   0.0000   0.0000
     0.0000   0.0000   0.0000   0.0000   0.0000   0.0000   0.0000   0.0000
     0.0000   0.0000   0.0000   0.0000   0.0000   0.0000   0.0000   0.0000
     0.0000   0.0000   0.0000   0.0000   0.0000   0.0000   0.0000   0.0000

          k = 0.3333-1.5982 0.9495 (  1284 PWs)   bands (ev):

    -0.6720  -0.3925   3.8520   4.5112   5.5931   6.9462   8.0136  10.9077
    11.4113  12.1052  12.5346  13.3621  14.0348  14.5304  15.0594  15.4811
    16.6651  17.7954  19.7501  21.5766  22.0393  23.2167  23.7184  23.7607
    24.6416  25.4171  25.5311  26.4056  27.1802  28.2267  28.5815  29.1236
    29.7263  31.2542  31.6369  32.2782  32.4450  33.3584  34.3869  35.1725
    35.3280  35.4789  35.8864  36.6957  37.2455  38.0175  38.2509  40.1493
    40.3671  41.2405  41.6362  42.2938  43.0385  43.7111  44.2139  45.1755
    45.8432  46.2583  46.9319  47.4943  47.7773  48.8338  49.2729  49.4226

     occupation numbers 
     1.0000   1.0000   1.0000   0.0000   0.0000   0.0000   0.0000   0.0000
     0.0000   0.0000   0.0000   0.0000   0.0000   0.0000   0.0000   0.0000
     0.0000   0.0000   0.0000   0.0000   0.0000   0.0000   0.0000   0.0000
     0.0000   0.0000   0.0000   0.0000   0.0000   0.0000   0.0000   0.0000
     0.0000   0.0000   0.0000   0.0000   0.0000   0.0000   0.0000   0.0000
     0.0000   0.0000   0.0000   0.0000   0.0000   0.0000   0.0000   0.0000
     0.0000   0.0000   0.0000   0.0000   0.0000   0.0000   0.0000   0.0000
     0.0000   0.0000   0.0000   0.0000   0.0000   0.0000   0.0000   0.0000

          k = 0.3333-1.5982-0.9495 (  1284 PWs)   bands (ev):

    -0.6720  -0.3925   3.8520   4.5112   5.5931   6.9462   8.0136  10.9077
    11.4113  12.1052  12.5346  13.3621  14.0348  14.5304  15.0594  15.4811
    16.6651  17.7954  19.7501  21.5766  22.0393  23.2167  23.7184  23.7607
    24.6416  25.4171  25.5311  26.4056  27.1802  28.2267  28.5815  29.1236
    29.7263  31.2542  31.6369  32.2782  32.4450  33.3584  34.3869  35.1725
    35.3280  35.4789  35.8864  36.6957  37.2455  38.0175  38.2509  40.1493
    40.3671  41.2405  41.6362  42.2938  43.0385  43.7111  44.2139  45.1755
    45.8432  46.2583  46.9319  47.4943  47.7773  48.8338  49.2729  49.4227

     occupation numbers 
     1.0000   1.0000   1.0000   0.0000   0.0000   0.0000   0.0000   0.0000
     0.0000   0.0000   0.0000   0.0000   0.0000   0.0000   0.0000   0.0000
     0.0000   0.0000   0.0000   0.0000   0.0000   0.0000   0.0000   0.0000
     0.0000   0.0000   0.0000   0.0000   0.0000   0.0000   0.0000   0.0000
     0.0000   0.0000   0.0000   0.0000   0.0000   0.0000   0.0000   0.0000
     0.0000   0.0000   0.0000   0.0000   0.0000   0.0000   0.0000   0.0000
     0.0000   0.0000   0.0000   0.0000   0.0000   0.0000   0.0000   0.0000
     0.0000   0.0000   0.0000   0.0000   0.0000   0.0000   0.0000   0.0000

     highest occupied, lowest unoccupied level (ev):     3.8520    3.6770

!    total energy              =    -100.81042904 Ry

     total all-electron energy =     -1201.973055 Ry
     estimated scf accuracy    <       0.00000011 Ry

     The total energy is the sum of the following terms:
     one-electron contribution =       4.33083961 Ry
     hartree contribution      =       0.01150711 Ry
     xc contribution           =      -4.78848741 Ry
     ewald contribution        =      -6.47190585 Ry
     one-center paw contrib.   =     -93.89238250 Ry
      -> PAW hartree energy AE =       0.79864784 Ry
      -> PAW hartree energy PS =      -0.79666049 Ry
      -> PAW xc energy AE      =     -32.61572569 Ry
      -> PAW xc energy PS      =       1.31620900 Ry
      -> total E_H with PAW    =       0.01349446 Ry
      -> total E_XC with PAW   =     -36.08800410 Ry

     convergence has been achieved in   6 iterations

     Writing all to output data dir calculations_bands_val/myprefix.save/
 
     init_run     :      3.62s CPU      0.97s WALL (       1 calls)
     electrons    :     30.52s CPU      8.03s WALL (       1 calls)

     Called by init_run:
     wfcinit      :      1.20s CPU      0.31s WALL (       1 calls)
     wfcinit:atom :      0.00s CPU      0.00s WALL (       7 calls)
     wfcinit:wfcr :      1.17s CPU      0.30s WALL (       7 calls)
     potinit      :      0.96s CPU      0.25s WALL (       1 calls)
     hinit0       :      1.08s CPU      0.28s WALL (       1 calls)

     Called by electrons:
     c_bands      :     24.94s CPU      6.57s WALL (       7 calls)
     sum_band     :      4.10s CPU      1.06s WALL (       7 calls)
     v_of_rho     :      0.78s CPU      0.21s WALL (       7 calls)
     v_h          :      0.04s CPU      0.01s WALL (       7 calls)
     v_xc         :      0.74s CPU      0.20s WALL (       7 calls)
     newd         :      0.25s CPU      0.08s WALL (       7 calls)
     PAW_pot      :      0.45s CPU      0.12s WALL (       7 calls)
     mix_rho      :      0.12s CPU      0.03s WALL (       7 calls)

     Called by c_bands:
     init_us_2    :      0.03s CPU      0.01s WALL (     105 calls)
     init_us_2:cp :      0.03s CPU      0.01s WALL (     105 calls)
     cegterg      :     23.20s CPU      6.10s WALL (      49 calls)

     Called by sum_band:
     sum_band:wei :      0.03s CPU      0.01s WALL (       7 calls)
     sum_band:loo :      3.47s CPU      0.90s WALL (       7 calls)
     sum_band:buf :      0.01s CPU      0.00s WALL (      49 calls)
     sum_band:ini :      0.02s CPU      0.00s WALL (      49 calls)
     sum_band:cal :      0.03s CPU      0.01s WALL (      49 calls)
     sum_band:bec :      0.01s CPU      0.00s WALL (      49 calls)
     addusdens    :      0.06s CPU      0.02s WALL (       7 calls)
     addusd:skk   :      0.00s CPU      0.00s WALL (       7 calls)
     addusd:dgemm :      0.01s CPU      0.00s WALL (       7 calls)
     addusd:qvan2 :      0.02s CPU      0.01s WALL (       7 calls)

     Called by *egterg:
     cdiaghg      :      3.59s CPU      0.94s WALL (     215 calls)
     cegterg:over :      0.46s CPU      0.13s WALL (     173 calls)
     cegterg:upda :      0.23s CPU      0.06s WALL (     173 calls)
     cegterg:last :      0.35s CPU      0.09s WALL (     106 calls)
     cdiaghg:chol :      0.24s CPU      0.06s WALL (     215 calls)
     cdiaghg:inve :      0.05s CPU      0.01s WALL (     215 calls)
     cdiaghg:para :      0.57s CPU      0.15s WALL (     430 calls)
     h_psi        :     19.48s CPU      5.12s WALL (     229 calls)
     s_psi        :      0.03s CPU      0.01s WALL (     229 calls)
     g_psi        :      0.01s CPU      0.00s WALL (     173 calls)

     Called by h_psi:
     h_psi:calbec :      0.11s CPU      0.03s WALL (     229 calls)
     vloc_psi     :     19.24s CPU      5.05s WALL (     229 calls)
     add_vuspsi   :      0.09s CPU      0.03s WALL (     229 calls)

     General routines
     calbec       :      0.14s CPU      0.04s WALL (     278 calls)
     fft          :      1.01s CPU      0.27s WALL (      90 calls)
     ffts         :      0.75s CPU      0.20s WALL (      14 calls)
     fftw         :     19.64s CPU      5.16s WALL (   20330 calls)
     interpolate  :      0.78s CPU      0.21s WALL (       7 calls)
 
     Parallel routines

     PAW routines
     PAW_pot      :      0.45s CPU      0.12s WALL (       7 calls)
     PAW_symme    :      0.00s CPU      0.00s WALL (      14 calls)
 
     PWSCF        :     34.79s CPU      9.27s WALL

 
   This run was terminated on:  12:34:55   4Jun2023            

=------------------------------------------------------------------------------=
   JOB DONE.
=------------------------------------------------------------------------------=
