
     Program PWSCF v.7.0 starts on  4Jun2023 at 10:34:31 

     This program is part of the open-source Quantum ESPRESSO suite
     for quantum simulation of materials; please cite
         "P. Giannozzi et al., J. Phys.:Condens. Matter 21 395502 (2009);
         "P. Giannozzi et al., J. Phys.:Condens. Matter 29 465901 (2017);
         "P. Giannozzi et al., J. Chem. Phys. 152 154105 (2020);
          URL http://www.quantum-espresso.org", 
     in publications or presentations arising from this work. More details at
     http://www.quantum-espresso.org/quote

     Parallel version (MPI & OpenMP), running on      32 processor cores
     Number of MPI processes:                 8
     Threads/MPI process:                     4

     MPI processes distributed on     1 nodes
     K-points division:     npool     =       2
     R & G space division:  proc/nbgrp/npool/nimage =       4
     147180 MiB available memory on the printing compute node when the environment starts
 
     Reading input from espresso_54.pwi
Warning: card &CELL ignored
Warning: card / ignored

     Current dimensions of program PWSCF are:
     Max number of different atomic species (ntypx) = 10
     Max number of k-points (npk) =  40000
     Max angular momentum in pseudopotentials (lmaxx) =  4
     Message from routine setup:
     using ibrav=0 with symmetry is DISCOURAGED, use correct ibrav instead

     Subspace diagonalization in iterative solution of the eigenvalue problem:
     one sub-group per band group will be used
     scalapack distributed-memory algorithm (size of sub-group:  2*  2 procs)

 
     Parallelization info
     --------------------
     sticks:   dense  smooth     PW     G-vecs:    dense   smooth      PW
     Min         520     260     78                 9742     3441     580
     Max         521     261     79                 9743     3443     582
     Sum        2083    1043    313                38971    13769    2323
 
     Using Slab Decomposition
 


     bravais-lattice index     =            0
     lattice parameter (alat)  =      11.1644  a.u.
     unit-cell volume          =     619.9933 (a.u.)^3
     number of atoms/cell      =            5
     number of atomic types    =            3
     number of electrons       =        58.00
     number of Kohn-Sham states=           64
     kinetic-energy cutoff     =      30.0000  Ry
     charge density cutoff     =     240.0000  Ry
     scf convergence threshold =      1.0E-06
     mixing beta               =       0.7000
     number of iterations used =            8  plain     mixing
     Exchange-correlation= PBE
                           (   1   4   3   4   0   0   0)

     celldm(1)=  11.164377  celldm(2)=   0.000000  celldm(3)=   0.000000
     celldm(4)=   0.000000  celldm(5)=   0.000000  celldm(6)=   0.000000

     crystal axes: (cart. coord. in units of alat)
               a(1) = (   1.000000   0.000000   0.000000 )  
               a(2) = (   0.482513   0.875889   0.000000 )  
               a(3) = (  -0.741257  -0.437944   0.508668 )  

     reciprocal axes: (cart. coord. in units 2 pi/alat)
               b(1) = (  1.000000 -0.550884  0.982959 )  
               b(2) = (  0.000000  1.141698  0.982959 )  
               b(3) = (  0.000000  0.000000  1.965918 )  


     PseudoPot. # 1 for Ca read from file:
     /home/pragov/projects/rrg-bengioy-ad/pragov/crystal_structure_design/SSSP/Ca_pbe_v1.uspp.F.UPF
     MD5 check sum: 403a4c14b9e4d4dfdc3024c9a3812218
     Pseudo is Ultrasoft + core correction, Zval = 10.0
     Generated by new atomic code, or converted to UPF format
     Using radial grid of  845 points,  6 beta functions with: 
                l(1) =   0
                l(2) =   0
                l(3) =   1
                l(4) =   1
                l(5) =   2
                l(6) =   2
     Q(r) pseudized with  8 coefficients,  rinner =    1.500   1.500   1.500
                                                       1.500   1.500

     PseudoPot. # 2 for Zn read from file:
     /home/pragov/projects/rrg-bengioy-ad/pragov/crystal_structure_design/SSSP/Zn_pbe_v1.uspp.F.UPF
     MD5 check sum: df62231357ef9e81f77b2b3087fa5675
     Pseudo is Ultrasoft, Zval = 20.0
     Generated by new atomic code, or converted to UPF format
     Using radial grid of  943 points,  6 beta functions with: 
                l(1) =   0
                l(2) =   0
                l(3) =   1
                l(4) =   1
                l(5) =   2
                l(6) =   2
     Q(r) pseudized with  8 coefficients,  rinner =    1.100   1.100   1.100
                                                       1.100   1.100

     PseudoPot. # 3 for Si read from file:
     /home/pragov/projects/rrg-bengioy-ad/pragov/crystal_structure_design/SSSP/Si.pbe-n-rrkjus_psl.1.0.0.UPF
     MD5 check sum: 0b0bb1205258b0d07b9f9672cf965d36
     Pseudo is Ultrasoft + core correction, Zval =  4.0
     Generated using "atomic" code by A. Dal Corso  v.5.1
     Using radial grid of 1141 points,  6 beta functions with: 
                l(1) =   0
                l(2) =   0
                l(3) =   1
                l(4) =   1
                l(5) =   2
                l(6) =   2
     Q(r) pseudized with 0 coefficients 


     atomic species   valence    mass     pseudopotential
        Ca            10.00    40.07800     Ca( 1.00)
        Zn            20.00    65.38000     Zn( 1.00)
        Si             4.00    28.08500     Si( 1.00)

      4 Sym. Ops., with inversion, found


                                    s                        frac. trans.

      isym =  1     identity                                     

 cryst.   s( 1) = (     1          0          0      )
                  (     0          1          0      )
                  (     0          0          1      )

 cart.    s( 1) = (  1.0000000 -0.0000000 -0.0000000 )
                  (  0.0000000  1.0000000 -0.0000000 )
                  (  0.0000000  0.0000000  1.0000000 )


      isym =  2     180 deg rotation - cart. axis [0,0,1]        

 cryst.   s( 2) = (    -1          0          0      )
                  (     0         -1          0      )
                  (     1          1          1      )

 cart.    s( 2) = ( -1.0000000  0.0000000 -0.0000000 )
                  (  0.0000000 -1.0000000 -0.0000000 )
                  (  0.0000000  0.0000000  1.0000000 )


      isym =  3     inversion                                    

 cryst.   s( 3) = (    -1          0          0      )
                  (     0         -1          0      )
                  (     0          0         -1      )

 cart.    s( 3) = ( -1.0000000  0.0000000  0.0000000 )
                  (  0.0000000 -1.0000000  0.0000000 )
                  (  0.0000000  0.0000000 -1.0000000 )


      isym =  4     inv. 180 deg rotation - cart. axis [0,0,1]   

 cryst.   s( 4) = (     1          0          0      )
                  (     0          1          0      )
                  (    -1         -1         -1      )

 cart.    s( 4) = (  1.0000000 -0.0000000  0.0000000 )
                  (  0.0000000  1.0000000  0.0000000 )
                  (  0.0000000  0.0000000 -1.0000000 )


   Cartesian axes

     site n.     atom                  positions (alat units)
         1           Ca  tau(   1) = (   0.0000000   0.0000000   0.0000000  )
         2           Zn  tau(   2) = (   0.2412566   0.4379443   0.2543341  )
         3           Zn  tau(   3) = (   0.5000000  -0.0000000   0.2543341  )
         4           Si  tau(   4) = (   0.9123638   0.5390368   0.0000000  )
         5           Si  tau(   5) = (   0.5701494   0.3368519   0.0000000  )

   Crystallographic axes

     site n.     atom                  positions (cryst. coord.)
         1           Ca  tau(   1) = (  0.0000000  0.0000000  0.0000000  )
         2           Zn  tau(   2) = (  0.2500000  0.7500000  0.5000000  )
         3           Zn  tau(   3) = (  0.7500000  0.2500000  0.5000000  )
         4           Si  tau(   4) = (  0.6154170  0.6154170  0.0000000  )
         5           Si  tau(   5) = (  0.3845830  0.3845830  0.0000000  )

     number of k points=    10
                       cart. coord. in units 2pi/alat
        k(    1) = (   0.0000000   0.0000000   0.0000000), wk =   0.0740741
        k(    2) = (   0.0000000   0.0000000   0.6553059), wk =   0.1481481
        k(    3) = (   0.0000000   0.3805659   0.3276530), wk =   0.2962963
        k(    4) = (   0.0000000   0.3805659   0.9829589), wk =   0.1481481
        k(    5) = (   0.3333333  -0.1836281   0.3276530), wk =   0.2962963
        k(    6) = (   0.3333333  -0.1836281   0.9829589), wk =   0.1481481
        k(    7) = (   0.3333333   0.1969378   0.6553059), wk =   0.2962963
        k(    8) = (   0.3333333   0.1969378   0.0000000), wk =   0.1481481
        k(    9) = (   0.3333333  -0.5641939  -0.0000000), wk =   0.1481481
        k(   10) = (   0.3333333  -0.5641939   0.6553059), wk =   0.2962963

                       cryst. coord.
        k(    1) = (   0.0000000   0.0000000   0.0000000), wk =   0.0740741
        k(    2) = (   0.0000000   0.0000000   0.3333333), wk =   0.1481481
        k(    3) = (   0.0000000   0.3333333   0.0000000), wk =   0.2962963
        k(    4) = (   0.0000000   0.3333333   0.3333333), wk =   0.1481481
        k(    5) = (   0.3333333  -0.0000000  -0.0000000), wk =   0.2962963
        k(    6) = (   0.3333333  -0.0000000   0.3333333), wk =   0.1481481
        k(    7) = (   0.3333333   0.3333333   0.0000000), wk =   0.2962963
        k(    8) = (   0.3333333   0.3333333  -0.3333333), wk =   0.1481481
        k(    9) = (   0.3333333  -0.3333333  -0.0000000), wk =   0.1481481
        k(   10) = (   0.3333333  -0.3333333   0.3333333), wk =   0.2962963

     Dense  grid:    38971 G-vectors     FFT dimensions: (  60,  60,  60)

     Smooth grid:    13769 G-vectors     FFT dimensions: (  40,  40,  40)

     Dynamical RAM for                 wfc:       0.42 MB

     Dynamical RAM for     wfc (w. buffer):       2.52 MB

     Dynamical RAM for           str. fact:       0.45 MB

     Dynamical RAM for           local pot:       0.00 MB

     Dynamical RAM for          nlocal pot:       0.59 MB

     Dynamical RAM for                qrad:       3.73 MB

     Dynamical RAM for          rho,v,vnew:       1.68 MB

     Dynamical RAM for               rhoin:       0.56 MB

     Dynamical RAM for            rho*nmix:       2.38 MB

     Dynamical RAM for           G-vectors:       0.58 MB

     Dynamical RAM for          h,s,v(r/c):       0.19 MB

     Dynamical RAM for          <psi|beta>:       0.09 MB

     Dynamical RAM for                 psi:       0.84 MB

     Dynamical RAM for                hpsi:       0.84 MB

     Dynamical RAM for                spsi:       0.84 MB

     Dynamical RAM for      wfcinit/wfcrot:       0.93 MB

     Dynamical RAM for           addusdens:      14.05 MB

     Estimated static dynamical RAM per process >      12.77 MB

     Estimated max dynamical RAM per process >      29.20 MB

     Estimated total dynamical RAM >     224.05 MB

     Initial potential from superposition of free atoms

     starting charge      57.9931, renormalised to      58.0000
     Starting wfcs are   44 randomized atomic wfcs +   20 random wfcs

     total cpu time spent up to now is        1.7 secs

     Self-consistent Calculation

     iteration #  1     ecut=    30.00 Ry     beta= 0.70
     Davidson diagonalization with overlap

---- Real-time Memory Report at c_bands before calling an iterative solver
           188 MiB given to the printing process from OS
             0 MiB allocation reported by mallinfo(arena+hblkhd)
        146580 MiB available memory on the node where the printing process lives
------------------
     ethr =  1.00E-02,  avg # of iterations =  5.7

     Threshold (ethr) on eigenvalues was too large:
     Diagonalizing with lowered threshold

     Davidson diagonalization with overlap

---- Real-time Memory Report at c_bands before calling an iterative solver
           206 MiB given to the printing process from OS
             0 MiB allocation reported by mallinfo(arena+hblkhd)
        146450 MiB available memory on the node where the printing process lives
------------------
     ethr =  6.82E-04,  avg # of iterations =  2.1

     total cpu time spent up to now is        3.0 secs

     total energy              =   -1020.61080180 Ry
     estimated scf accuracy    <       0.39550264 Ry

     iteration #  2     ecut=    30.00 Ry     beta= 0.70
     Davidson diagonalization with overlap

---- Real-time Memory Report at c_bands before calling an iterative solver
           212 MiB given to the printing process from OS
             0 MiB allocation reported by mallinfo(arena+hblkhd)
        146392 MiB available memory on the node where the printing process lives
------------------
     ethr =  6.82E-04,  avg # of iterations =  3.5

     total cpu time spent up to now is        3.6 secs

     total energy              =   -1020.68604724 Ry
     estimated scf accuracy    <       1.03473306 Ry

     iteration #  3     ecut=    30.00 Ry     beta= 0.70
     Davidson diagonalization with overlap

---- Real-time Memory Report at c_bands before calling an iterative solver
           215 MiB given to the printing process from OS
             0 MiB allocation reported by mallinfo(arena+hblkhd)
        146375 MiB available memory on the node where the printing process lives
------------------
     ethr =  6.82E-04,  avg # of iterations =  2.1

     total cpu time spent up to now is        4.1 secs

     total energy              =   -1020.85100086 Ry
     estimated scf accuracy    <       0.00498101 Ry

     iteration #  4     ecut=    30.00 Ry     beta= 0.70
     Davidson diagonalization with overlap

---- Real-time Memory Report at c_bands before calling an iterative solver
           216 MiB given to the printing process from OS
             0 MiB allocation reported by mallinfo(arena+hblkhd)
        146374 MiB available memory on the node where the printing process lives
------------------
     ethr =  8.59E-06,  avg # of iterations =  7.0

     total cpu time spent up to now is        4.8 secs

     total energy              =   -1020.85202383 Ry
     estimated scf accuracy    <       0.00096231 Ry

     iteration #  5     ecut=    30.00 Ry     beta= 0.70
     Davidson diagonalization with overlap

---- Real-time Memory Report at c_bands before calling an iterative solver
           218 MiB given to the printing process from OS
             0 MiB allocation reported by mallinfo(arena+hblkhd)
        146355 MiB available memory on the node where the printing process lives
------------------
     ethr =  1.66E-06,  avg # of iterations =  2.2

     total cpu time spent up to now is        5.3 secs

     total energy              =   -1020.85220688 Ry
     estimated scf accuracy    <       0.00008922 Ry

     iteration #  6     ecut=    30.00 Ry     beta= 0.70
     Davidson diagonalization with overlap

---- Real-time Memory Report at c_bands before calling an iterative solver
           218 MiB given to the printing process from OS
             0 MiB allocation reported by mallinfo(arena+hblkhd)
        146351 MiB available memory on the node where the printing process lives
------------------
     ethr =  1.54E-07,  avg # of iterations =  1.0

     total cpu time spent up to now is        5.7 secs

     total energy              =   -1020.85221721 Ry
     estimated scf accuracy    <       0.00000610 Ry

     iteration #  7     ecut=    30.00 Ry     beta= 0.70
     Davidson diagonalization with overlap

---- Real-time Memory Report at c_bands before calling an iterative solver
           218 MiB given to the printing process from OS
             0 MiB allocation reported by mallinfo(arena+hblkhd)
        146352 MiB available memory on the node where the printing process lives
------------------
     ethr =  1.05E-08,  avg # of iterations =  2.0

     total cpu time spent up to now is        6.1 secs

     End of self-consistent calculation

          k = 0.0000 0.0000 0.0000 (  1677 PWs)   bands (ev):

  -116.6724-116.6723 -70.7576 -70.7562 -70.7498 -70.7497 -70.7414 -70.7413
   -31.1450 -12.2168 -12.1431 -12.1429  -0.9580   1.5983   2.1712   2.1960
     2.2777   2.2778   2.5866   2.5866   2.6599   2.7084   2.9025   4.4590
     4.7719   7.8693   7.8694   9.4941   9.4943  10.0069  10.1331  11.5097
    12.6979  13.0881  14.0339  14.6244  14.6245  16.7410  16.7411  16.8318
    18.0477  18.0920  18.4891  18.4892  19.5504  20.1990  20.1991  20.5904
    20.7754  23.8018  23.9620  24.0958  25.9819  25.9819  26.6309  26.9198
    27.0770  27.0771  27.6685  30.6327  31.7403  31.7404  32.0928  33.1870

     occupation numbers 
     1.0000   1.0000   1.0000   1.0000   1.0000   1.0000   1.0000   1.0000
     1.0000   1.0000   1.0000   1.0000   1.0000   1.0000   1.0000   1.0000
     1.0000   1.0000   1.0000   1.0000   1.0000   1.0000   1.0000   1.0000
     1.0000   1.0000   1.0000   1.0000   1.0000   0.0000   0.0000   0.0000
     0.0000   0.0000   0.0000   0.0000   0.0000   0.0000   0.0000   0.0000
     0.0000   0.0000   0.0000   0.0000   0.0000   0.0000   0.0000   0.0000
     0.0000   0.0000   0.0000   0.0000   0.0000   0.0000   0.0000   0.0000
     0.0000   0.0000   0.0000   0.0000   0.0000   0.0000   0.0000   0.0000

          k = 0.0000 0.0000 0.6553 (  1732 PWs)   bands (ev):

  -116.6764-116.6751 -70.7714 -70.7678 -70.7610 -70.7610 -70.7564 -70.7506
   -31.1424 -12.2107 -12.1719 -12.1690   0.2369   1.7755   2.1428   2.3567
     2.3830   2.4075   2.4799   2.5670   2.5719   2.6125   2.6411   4.1699
     4.6578   5.4466   7.1280   7.2676   7.8102  11.1811  12.3212  12.7883
    13.9349  14.0007  14.0659  14.3155  15.6635  16.2224  16.2896  17.1214
    18.0721  18.1318  18.4208  18.5384  19.7453  21.4805  21.5898  22.6158
    22.8697  23.7555  23.9224  25.2362  25.6914  25.8638  26.0843  26.8370
    28.1045  28.7202  29.1033  29.7599  29.8305  29.9082  30.5578  31.1148

     occupation numbers 
     1.0000   1.0000   1.0000   1.0000   1.0000   1.0000   1.0000   1.0000
     1.0000   1.0000   1.0000   1.0000   1.0000   1.0000   1.0000   1.0000
     1.0000   1.0000   1.0000   1.0000   1.0000   1.0000   1.0000   1.0000
     1.0000   1.0000   1.0000   1.0000   1.0000   0.0000   0.0000   0.0000
     0.0000   0.0000   0.0000   0.0000   0.0000   0.0000   0.0000   0.0000
     0.0000   0.0000   0.0000   0.0000   0.0000   0.0000   0.0000   0.0000
     0.0000   0.0000   0.0000   0.0000   0.0000   0.0000   0.0000   0.0000
     0.0000   0.0000   0.0000   0.0000   0.0000   0.0000   0.0000   0.0000

          k = 0.0000 0.3806 0.3277 (  1717 PWs)   bands (ev):

  -116.6749-116.6742 -70.7668 -70.7620 -70.7571 -70.7548 -70.7545 -70.7483
   -31.1437 -12.2145 -12.1765 -12.1395  -0.1463   1.5425   2.2843   2.3307
     2.3641   2.3810   2.4773   2.4975   2.5901   2.5984   2.6615   3.3658
     5.0517   6.0005   8.2924   8.3025   9.6009  10.8147  11.8113  12.3070
    13.0120  13.9080  14.1830  14.2653  14.9960  15.0090  15.8380  16.7027
    17.0860  17.3097  17.8405  19.6358  20.2355  20.4608  21.1148  22.3503
    23.1514  23.7641  24.1424  24.7957  25.2280  25.4127  25.9851  27.7463
    27.9019  28.8574  29.7229  30.5848  30.7778  30.7854  31.5681  31.7113

     occupation numbers 
     1.0000   1.0000   1.0000   1.0000   1.0000   1.0000   1.0000   1.0000
     1.0000   1.0000   1.0000   1.0000   1.0000   1.0000   1.0000   1.0000
     1.0000   1.0000   1.0000   1.0000   1.0000   1.0000   1.0000   1.0000
     1.0000   1.0000   1.0000   1.0000   1.0000   0.0000   0.0000   0.0000
     0.0000   0.0000   0.0000   0.0000   0.0000   0.0000   0.0000   0.0000
     0.0000   0.0000   0.0000   0.0000   0.0000   0.0000   0.0000   0.0000
     0.0000   0.0000   0.0000   0.0000   0.0000   0.0000   0.0000   0.0000
     0.0000   0.0000   0.0000   0.0000   0.0000   0.0000   0.0000   0.0000

          k = 0.0000 0.3806 0.9830 (  1725 PWs)   bands (ev):

  -116.6757-116.6748 -70.7675 -70.7671 -70.7631 -70.7554 -70.7545 -70.7501
   -31.1424 -12.2116 -12.1710 -12.1699   0.4996   1.5471   2.1783   2.3562
     2.3662   2.4856   2.5354   2.5671   2.5872   2.6168   2.6352   3.0862
     5.1041   5.9769   6.4736   8.1166   8.2924  10.7499  12.5259  12.6966
    13.4868  13.8461  14.0552  14.9125  15.1530  15.5007  16.3039  16.4408
    17.5824  17.5904  18.7414  19.9909  21.4237  21.6984  21.7901  22.7636
    23.3465  23.9108  23.9808  24.2543  25.0206  25.0306  25.5184  26.3999
    26.9997  28.6925  29.3045  30.1566  30.3507  30.5829  30.9639  31.1173

     occupation numbers 
     1.0000   1.0000   1.0000   1.0000   1.0000   1.0000   1.0000   1.0000
     1.0000   1.0000   1.0000   1.0000   1.0000   1.0000   1.0000   1.0000
     1.0000   1.0000   1.0000   1.0000   1.0000   1.0000   1.0000   1.0000
     1.0000   1.0000   1.0000   1.0000   1.0000   0.0000   0.0000   0.0000
     0.0000   0.0000   0.0000   0.0000   0.0000   0.0000   0.0000   0.0000
     0.0000   0.0000   0.0000   0.0000   0.0000   0.0000   0.0000   0.0000
     0.0000   0.0000   0.0000   0.0000   0.0000   0.0000   0.0000   0.0000
     0.0000   0.0000   0.0000   0.0000   0.0000   0.0000   0.0000   0.0000

          k = 0.3333-0.1836 0.3277 (  1717 PWs)   bands (ev):

  -116.6749-116.6742 -70.7668 -70.7620 -70.7571 -70.7548 -70.7545 -70.7483
   -31.1437 -12.2145 -12.1765 -12.1395  -0.1463   1.5425   2.2843   2.3307
     2.3641   2.3810   2.4773   2.4975   2.5901   2.5984   2.6615   3.3658
     5.0517   6.0005   8.2924   8.3025   9.6009  10.8147  11.8113  12.3070
    13.0120  13.9080  14.1830  14.2653  14.9960  15.0090  15.8380  16.7027
    17.0860  17.3097  17.8405  19.6358  20.2355  20.4608  21.1148  22.3503
    23.1514  23.7641  24.1424  24.7957  25.2280  25.4127  25.9851  27.7463
    27.9019  28.8574  29.7229  30.5847  30.7778  30.7854  31.5681  31.7113

     occupation numbers 
     1.0000   1.0000   1.0000   1.0000   1.0000   1.0000   1.0000   1.0000
     1.0000   1.0000   1.0000   1.0000   1.0000   1.0000   1.0000   1.0000
     1.0000   1.0000   1.0000   1.0000   1.0000   1.0000   1.0000   1.0000
     1.0000   1.0000   1.0000   1.0000   1.0000   0.0000   0.0000   0.0000
     0.0000   0.0000   0.0000   0.0000   0.0000   0.0000   0.0000   0.0000
     0.0000   0.0000   0.0000   0.0000   0.0000   0.0000   0.0000   0.0000
     0.0000   0.0000   0.0000   0.0000   0.0000   0.0000   0.0000   0.0000
     0.0000   0.0000   0.0000   0.0000   0.0000   0.0000   0.0000   0.0000

          k = 0.3333-0.1836 0.9830 (  1725 PWs)   bands (ev):

  -116.6757-116.6748 -70.7675 -70.7671 -70.7631 -70.7554 -70.7545 -70.7501
   -31.1424 -12.2116 -12.1710 -12.1699   0.4996   1.5471   2.1783   2.3562
     2.3662   2.4856   2.5354   2.5671   2.5872   2.6168   2.6352   3.0862
     5.1041   5.9769   6.4736   8.1166   8.2924  10.7499  12.5259  12.6966
    13.4868  13.8461  14.0552  14.9125  15.1530  15.5007  16.3039  16.4408
    17.5824  17.5904  18.7414  19.9909  21.4237  21.6984  21.7901  22.7636
    23.3465  23.9108  23.9808  24.2543  25.0206  25.0306  25.5184  26.3999
    26.9997  28.6925  29.3045  30.1566  30.3507  30.5829  30.9639  31.1173

     occupation numbers 
     1.0000   1.0000   1.0000   1.0000   1.0000   1.0000   1.0000   1.0000
     1.0000   1.0000   1.0000   1.0000   1.0000   1.0000   1.0000   1.0000
     1.0000   1.0000   1.0000   1.0000   1.0000   1.0000   1.0000   1.0000
     1.0000   1.0000   1.0000   1.0000   1.0000   0.0000   0.0000   0.0000
     0.0000   0.0000   0.0000   0.0000   0.0000   0.0000   0.0000   0.0000
     0.0000   0.0000   0.0000   0.0000   0.0000   0.0000   0.0000   0.0000
     0.0000   0.0000   0.0000   0.0000   0.0000   0.0000   0.0000   0.0000
     0.0000   0.0000   0.0000   0.0000   0.0000   0.0000   0.0000   0.0000

          k = 0.3333 0.1969 0.6553 (  1725 PWs)   bands (ev):

  -116.6757-116.6748 -70.7676 -70.7670 -70.7630 -70.7554 -70.7545 -70.7501
   -31.1424 -12.2116 -12.1712 -12.1698   0.4996   1.5471   2.1782   2.3563
     2.3662   2.4856   2.5354   2.5672   2.5872   2.6168   2.6352   3.0862
     5.1042   5.9768   6.4736   8.1166   8.2925  10.7498  12.5260  12.6965
    13.4868  13.8462  14.0553  14.9124  15.1531  15.5006  16.3038  16.4408
    17.5823  17.5904  18.7413  19.9908  21.4237  21.6984  21.7901  22.7636
    23.3466  23.9108  23.9809  24.2543  25.0207  25.0306  25.5184  26.4000
    26.9997  28.6924  29.3045  30.1565  30.3509  30.5829  30.9639  31.1172

     occupation numbers 
     1.0000   1.0000   1.0000   1.0000   1.0000   1.0000   1.0000   1.0000
     1.0000   1.0000   1.0000   1.0000   1.0000   1.0000   1.0000   1.0000
     1.0000   1.0000   1.0000   1.0000   1.0000   1.0000   1.0000   1.0000
     1.0000   1.0000   1.0000   1.0000   1.0000   0.0000   0.0000   0.0000
     0.0000   0.0000   0.0000   0.0000   0.0000   0.0000   0.0000   0.0000
     0.0000   0.0000   0.0000   0.0000   0.0000   0.0000   0.0000   0.0000
     0.0000   0.0000   0.0000   0.0000   0.0000   0.0000   0.0000   0.0000
     0.0000   0.0000   0.0000   0.0000   0.0000   0.0000   0.0000   0.0000

          k = 0.3333 0.1969 0.0000 (  1705 PWs)   bands (ev):

  -116.6756-116.6718 -70.7637 -70.7636 -70.7617 -70.7522 -70.7419 -70.7419
   -31.1449 -12.2208 -12.1432 -12.1431  -0.3955   0.9599   2.1961   2.2154
     2.2773   2.2774   2.5789   2.5789   2.6332   2.6795   2.7106   2.8840
     7.4649   7.4650   7.8972   8.9469  10.4836  10.7617  10.7618  12.3522
    13.0834  13.1304  13.5980  13.9925  13.9926  14.6768  14.6769  15.1990
    15.3166  18.7337  19.2859  19.2860  19.9771  21.0465  21.3017  22.6451
    22.6452  22.7980  23.9037  24.3468  24.3469  25.0438  28.0806  28.9416
    29.4641  29.6998  29.6999  30.8260  31.0217  31.2753  31.2754  31.7343

     occupation numbers 
     1.0000   1.0000   1.0000   1.0000   1.0000   1.0000   1.0000   1.0000
     1.0000   1.0000   1.0000   1.0000   1.0000   1.0000   1.0000   1.0000
     1.0000   1.0000   1.0000   1.0000   1.0000   1.0000   1.0000   1.0000
     1.0000   1.0000   1.0000   1.0000   1.0000   0.0000   0.0000   0.0000
     0.0000   0.0000   0.0000   0.0000   0.0000   0.0000   0.0000   0.0000
     0.0000   0.0000   0.0000   0.0000   0.0000   0.0000   0.0000   0.0000
     0.0000   0.0000   0.0000   0.0000   0.0000   0.0000   0.0000   0.0000
     0.0000   0.0000   0.0000   0.0000   0.0000   0.0000   0.0000   0.0000

          k = 0.3333-0.5642-0.0000 (  1732 PWs)   bands (ev):

  -116.6764-116.6751 -70.7715 -70.7677 -70.7611 -70.7610 -70.7564 -70.7506
   -31.1424 -12.2107 -12.1718 -12.1692   0.2369   1.7754   2.1429   2.3566
     2.3830   2.4075   2.4799   2.5670   2.5718   2.6126   2.6411   4.1699
     4.6579   5.4465   7.1279   7.2676   7.8103  11.1812  12.3212  12.7884
    13.9348  14.0008  14.0659  14.3154  15.6636  16.2223  16.2896  17.1213
    18.0721  18.1319  18.4207  18.5385  19.7453  21.4805  21.5897  22.6158
    22.8697  23.7556  23.9224  25.2364  25.6914  25.8638  26.0843  26.8371
    28.1045  28.7202  29.1034  29.7600  29.8304  29.9083  30.5578  31.1102

     occupation numbers 
     1.0000   1.0000   1.0000   1.0000   1.0000   1.0000   1.0000   1.0000
     1.0000   1.0000   1.0000   1.0000   1.0000   1.0000   1.0000   1.0000
     1.0000   1.0000   1.0000   1.0000   1.0000   1.0000   1.0000   1.0000
     1.0000   1.0000   1.0000   1.0000   1.0000   0.0000   0.0000   0.0000
     0.0000   0.0000   0.0000   0.0000   0.0000   0.0000   0.0000   0.0000
     0.0000   0.0000   0.0000   0.0000   0.0000   0.0000   0.0000   0.0000
     0.0000   0.0000   0.0000   0.0000   0.0000   0.0000   0.0000   0.0000
     0.0000   0.0000   0.0000   0.0000   0.0000   0.0000   0.0000   0.0000

          k = 0.3333-0.5642 0.6553 (  1713 PWs)   bands (ev):

  -116.6745-116.6736 -70.7610 -70.7574 -70.7572 -70.7552 -70.7536 -70.7492
   -31.1437 -12.2165 -12.1765 -12.1396   0.4877   0.8864   2.2941   2.3481
     2.3668   2.3820   2.4859   2.5514   2.5769   2.6173   2.6667   2.7577
     4.4529   7.8927   8.2900   8.4423  10.3672  11.1447  11.7183  12.1953
    12.3163  12.6466  12.9609  13.3360  15.3787  16.1792  16.2011  16.2513
    17.4784  17.8533  18.2649  18.3901  19.1395  20.1798  22.7295  23.0554
    23.1255  23.2753  23.9778  25.2619  25.2919  26.3670  26.5129  27.1416
    28.7770  29.0867  30.3305  30.4172  30.4342  30.7686  31.0838  32.0348

     occupation numbers 
     1.0000   1.0000   1.0000   1.0000   1.0000   1.0000   1.0000   1.0000
     1.0000   1.0000   1.0000   1.0000   1.0000   1.0000   1.0000   1.0000
     1.0000   1.0000   1.0000   1.0000   1.0000   1.0000   1.0000   1.0000
     1.0000   1.0000   1.0000   1.0000   1.0000   0.0000   0.0000   0.0000
     0.0000   0.0000   0.0000   0.0000   0.0000   0.0000   0.0000   0.0000
     0.0000   0.0000   0.0000   0.0000   0.0000   0.0000   0.0000   0.0000
     0.0000   0.0000   0.0000   0.0000   0.0000   0.0000   0.0000   0.0000
     0.0000   0.0000   0.0000   0.0000   0.0000   0.0000   0.0000   0.0000

     highest occupied, lowest unoccupied level (ev):    10.4836   10.0069

!    total energy              =   -1020.85221857 Ry
     estimated scf accuracy    <       0.00000014 Ry

     The total energy is the sum of the following terms:
     one-electron contribution =    -959.72973532 Ry
     hartree contribution      =     496.55041552 Ry
     xc contribution           =    -108.57517253 Ry
     ewald contribution        =    -449.09772623 Ry

     convergence has been achieved in   7 iterations

     Writing all to output data dir calculations_bands_val/myprefix.save/
 
     init_run     :      4.55s CPU      1.49s WALL (       1 calls)
     electrons    :     16.77s CPU      4.39s WALL (       1 calls)

     Called by init_run:
     wfcinit      :      0.55s CPU      0.15s WALL (       1 calls)
     wfcinit:atom :      0.00s CPU      0.00s WALL (       5 calls)
     wfcinit:wfcr :      0.53s CPU      0.14s WALL (       5 calls)
     potinit      :      1.31s CPU      0.37s WALL (       1 calls)
     hinit0       :      2.49s CPU      0.85s WALL (       1 calls)

     Called by electrons:
     c_bands      :     12.66s CPU      3.30s WALL (       8 calls)
     sum_band     :      2.90s CPU      0.77s WALL (       8 calls)
     v_of_rho     :      0.45s CPU      0.12s WALL (       8 calls)
     v_h          :      0.03s CPU      0.01s WALL (       8 calls)
     v_xc         :      0.42s CPU      0.11s WALL (       8 calls)
     newd         :      0.77s CPU      0.20s WALL (       8 calls)
     mix_rho      :      0.06s CPU      0.02s WALL (       8 calls)

     Called by c_bands:
     init_us_2    :      0.06s CPU      0.02s WALL (      85 calls)
     init_us_2:cp :      0.06s CPU      0.02s WALL (      85 calls)
     cegterg      :     11.46s CPU      2.98s WALL (      40 calls)

     Called by sum_band:
     sum_band:wei :      0.01s CPU      0.00s WALL (       8 calls)
     sum_band:loo :      1.82s CPU      0.48s WALL (       8 calls)
     sum_band:buf :      0.01s CPU      0.00s WALL (      40 calls)
     sum_band:ini :      0.03s CPU      0.01s WALL (      40 calls)
     sum_band:cal :      0.06s CPU      0.02s WALL (      40 calls)
     sum_band:bec :      0.01s CPU      0.00s WALL (      40 calls)
     addusdens    :      0.82s CPU      0.23s WALL (       8 calls)
     addusd:skk   :      0.00s CPU      0.00s WALL (      24 calls)
     addusd:dgemm :      0.10s CPU      0.04s WALL (      24 calls)
     addusd:qvan2 :      0.43s CPU      0.11s WALL (      24 calls)

     Called by *egterg:
     cdiaghg      :      2.72s CPU      0.71s WALL (     162 calls)
     cegterg:over :      0.35s CPU      0.09s WALL (     127 calls)
     cegterg:upda :      0.17s CPU      0.04s WALL (     127 calls)
     cegterg:last :      0.25s CPU      0.06s WALL (      78 calls)
     cdiaghg:chol :      0.18s CPU      0.05s WALL (     162 calls)
     cdiaghg:inve :      0.04s CPU      0.01s WALL (     162 calls)
     cdiaghg:para :      0.36s CPU      0.09s WALL (     324 calls)
     h_psi        :      8.22s CPU      2.14s WALL (     172 calls)
     s_psi        :      0.06s CPU      0.02s WALL (     172 calls)
     g_psi        :      0.01s CPU      0.00s WALL (     127 calls)

     Called by h_psi:
     h_psi:calbec :      0.22s CPU      0.06s WALL (     172 calls)
     vloc_psi     :      7.88s CPU      2.05s WALL (     172 calls)
     add_vuspsi   :      0.09s CPU      0.03s WALL (     172 calls)

     General routines
     calbec       :      0.28s CPU      0.07s WALL (     212 calls)
     fft          :      1.53s CPU      0.47s WALL (     103 calls)
     ffts         :      0.98s CPU      0.29s WALL (      16 calls)
     fftw         :      8.46s CPU      2.20s WALL (   15476 calls)
     interpolate  :      0.99s CPU      0.29s WALL (       8 calls)
 
     Parallel routines
 
     PWSCF        :     22.56s CPU      6.57s WALL

 
   This run was terminated on:  10:34:38   4Jun2023            

=------------------------------------------------------------------------------=
   JOB DONE.
=------------------------------------------------------------------------------=
