
     Program PWSCF v.7.0 starts on  4Jun2023 at 11:55:33 

     This program is part of the open-source Quantum ESPRESSO suite
     for quantum simulation of materials; please cite
         "P. Giannozzi et al., J. Phys.:Condens. Matter 21 395502 (2009);
         "P. Giannozzi et al., J. Phys.:Condens. Matter 29 465901 (2017);
         "P. Giannozzi et al., J. Chem. Phys. 152 154105 (2020);
          URL http://www.quantum-espresso.org", 
     in publications or presentations arising from this work. More details at
     http://www.quantum-espresso.org/quote

     Parallel version (MPI & OpenMP), running on      32 processor cores
     Number of MPI processes:                 8
     Threads/MPI process:                     4

     MPI processes distributed on     1 nodes
     K-points division:     npool     =       2
     R & G space division:  proc/nbgrp/npool/nimage =       4
     141876 MiB available memory on the printing compute node when the environment starts
 
     Reading input from espresso_307.pwi
Warning: card &CELL ignored
Warning: card / ignored

     Current dimensions of program PWSCF are:
     Max number of different atomic species (ntypx) = 10
     Max number of k-points (npk) =  40000
     Max angular momentum in pseudopotentials (lmaxx) =  4
     file Ga.pbe-dn-kjpaw_psl.1.0.0.UPF: wavefunction(s)  4S renormalized
     Message from routine setup:
     using ibrav=0 with symmetry is DISCOURAGED, use correct ibrav instead

     Subspace diagonalization in iterative solution of the eigenvalue problem:
     one sub-group per band group will be used
     scalapack distributed-memory algorithm (size of sub-group:  2*  2 procs)

 
     Parallelization info
     --------------------
     sticks:   dense  smooth     PW     G-vecs:    dense   smooth      PW
     Min         222     109     34                 8812     3115     524
     Max         223     110     35                 8817     3120     527
     Sum         889     439    139                35255    12469    2105
 
     Using Slab Decomposition
 


     bravais-lattice index     =            0
     lattice parameter (alat)  =       7.3328  a.u.
     unit-cell volume          =     562.7759 (a.u.)^3
     number of atoms/cell      =            4
     number of atomic types    =            2
     number of electrons       =        36.00
     number of Kohn-Sham states=           64
     kinetic-energy cutoff     =      30.0000  Ry
     charge density cutoff     =     240.0000  Ry
     scf convergence threshold =      1.0E-06
     mixing beta               =       0.7000
     number of iterations used =            8  plain     mixing
     Exchange-correlation= PBE
                           (   1   4   3   4   0   0   0)

     celldm(1)=   7.332810  celldm(2)=   0.000000  celldm(3)=   0.000000
     celldm(4)=   0.000000  celldm(5)=   0.000000  celldm(6)=   0.000000

     crystal axes: (cart. coord. in units of alat)
               a(1) = (   1.000000   0.000000   0.000000 )  
               a(2) = (  -0.500000   0.866025   0.000000 )  
               a(3) = (   0.000000   0.000000   1.648138 )  

     reciprocal axes: (cart. coord. in units 2 pi/alat)
               b(1) = (  1.000000  0.577350  0.000000 )  
               b(2) = (  0.000000  1.154701  0.000000 )  
               b(3) = (  0.000000  0.000000  0.606745 )  


     PseudoPot. # 1 for Ga read from file:
     /home/pragov/projects/rrg-bengioy-ad/pragov/crystal_structure_design/SSSP/Ga.pbe-dn-kjpaw_psl.1.0.0.UPF
     MD5 check sum: a27b4342b1af7e5f338de752e9ed7044
     Pseudo is Projector augmented-wave + core cor, Zval = 13.0
     Generated using "atomic" code by A. Dal Corso  v.5.1
     Shape of augmentation charge: PSQ
     Using radial grid of 1205 points,  6 beta functions with: 
                l(1) =   0
                l(2) =   0
                l(3) =   1
                l(4) =   1
                l(5) =   2
                l(6) =   2
     Q(r) pseudized with 0 coefficients 


     PseudoPot. # 2 for P  read from file:
     /home/pragov/projects/rrg-bengioy-ad/pragov/crystal_structure_design/SSSP/P.pbe-n-rrkjus_psl.1.0.0.UPF
     MD5 check sum: 8b930f418f0a4573dca56cd030ffe088
     Pseudo is Ultrasoft + core correction, Zval =  5.0
     Generated using "atomic" code by A. Dal Corso  v.5.1
     Using radial grid of 1147 points,  6 beta functions with: 
                l(1) =   0
                l(2) =   0
                l(3) =   1
                l(4) =   1
                l(5) =   2
                l(6) =   2
     Q(r) pseudized with 0 coefficients 


     atomic species   valence    mass     pseudopotential
        Ga            13.00    69.72300     Ga( 1.00)
        P              5.00    30.97376     P ( 1.00)

     12 Sym. Ops. (no inversion) found ( 6 have fractional translation)


                                    s                        frac. trans.

      isym =  1     identity                                     

 cryst.   s( 1) = (     1          0          0      )
                  (     0          1          0      )
                  (     0          0          1      )

 cart.    s( 1) = (  1.0000000  0.0000000  0.0000000 )
                  (  0.0000000  1.0000000  0.0000000 )
                  (  0.0000000  0.0000000  1.0000000 )


      isym =  2     180 deg rotation - cart. axis [0,0,1]        

 cryst.   s( 2) = (    -1          0          0      )    f =(  0.0000000 )
                  (     0         -1          0      )       ( -0.0000000 )
                  (     0          0          1      )       ( -0.5000000 )

 cart.    s( 2) = ( -1.0000000 -0.0000000  0.0000000 )    f =(  0.0000000 )
                  (  0.0000000 -1.0000000  0.0000000 )       ( -0.0000000 )
                  (  0.0000000  0.0000000  1.0000000 )       ( -0.8240688 )


      isym =  3      60 deg rotation - cryst. axis [0,0,1]       

 cryst.   s( 3) = (     1          1          0      )    f =( -0.0000010 )
                  (    -1          0          0      )       (  0.0000000 )
                  (     0          0          1      )       ( -0.5000000 )

 cart.    s( 3) = (  0.5000000 -0.8660254  0.0000000 )    f =( -0.0000010 )
                  (  0.8660254  0.5000000  0.0000000 )       (  0.0000000 )
                  (  0.0000000  0.0000000  1.0000000 )       ( -0.8240688 )


      isym =  4      60 deg rotation - cryst. axis [0,0,-1]      

 cryst.   s( 4) = (     0         -1          0      )    f =(  0.0000000 )
                  (     1          1          0      )       (  0.0000010 )
                  (     0          0          1      )       ( -0.5000000 )

 cart.    s( 4) = (  0.5000000  0.8660254  0.0000000 )    f =( -0.0000005 )
                  ( -0.8660254  0.5000000  0.0000000 )       (  0.0000009 )
                  (  0.0000000  0.0000000  1.0000000 )       ( -0.8240688 )


      isym =  5     120 deg rotation - cryst. axis [0,0,1]       

 cryst.   s( 5) = (     0          1          0      )
                  (    -1         -1          0      )
                  (     0          0          1      )

 cart.    s( 5) = ( -0.5000000 -0.8660254  0.0000000 )
                  (  0.8660254 -0.5000000  0.0000000 )
                  (  0.0000000  0.0000000  1.0000000 )


      isym =  6     120 deg rotation - cryst. axis [0,0,-1]      

 cryst.   s( 6) = (    -1         -1          0      )
                  (     1          0          0      )
                  (     0          0          1      )

 cart.    s( 6) = ( -0.5000000  0.8660254  0.0000000 )
                  ( -0.8660254 -0.5000000  0.0000000 )
                  (  0.0000000  0.0000000  1.0000000 )


      isym =  7     inv. 180 deg rotation - cart. axis [0,1,0]   

 cryst.   s( 7) = (     1          0          0      )    f =( -0.0000010 )
                  (    -1         -1          0      )       ( -0.0000000 )
                  (     0          0          1      )       ( -0.5000000 )

 cart.    s( 7) = (  1.0000000  0.0000001  0.0000000 )    f =( -0.0000010 )
                  (  0.0000000 -1.0000000  0.0000000 )       ( -0.0000000 )
                  (  0.0000000  0.0000000  1.0000000 )       ( -0.8240688 )


      isym =  8     inv. 180 deg rotation - cart. axis [1,0,0]   

 cryst.   s( 8) = (    -1          0          0      )
                  (     1          1          0      )
                  (     0          0          1      )

 cart.    s( 8) = ( -1.0000000 -0.0000001  0.0000000 )
                  (  0.0000000  1.0000000  0.0000000 )
                  (  0.0000000  0.0000000  1.0000000 )


      isym =  9     inv. 180 deg rotation - cryst. axis [1,-1,0] 

 cryst.   s( 9) = (     0          1          0      )    f =(  0.0000000 )
                  (     1          0          0      )       (  0.0000000 )
                  (     0          0          1      )       ( -0.5000000 )

 cart.    s( 9) = ( -0.5000000  0.8660254  0.0000000 )    f =(  0.0000000 )
                  (  0.8660254  0.5000000  0.0000000 )       (  0.0000000 )
                  (  0.0000000  0.0000000  1.0000000 )       ( -0.8240688 )


      isym = 10     inv. 180 deg rotation - cryst. axis [2,1,0]  

 cryst.   s(10) = (    -1         -1          0      )    f =(  0.0000000 )
                  (     0          1          0      )       (  0.0000010 )
                  (     0          0          1      )       ( -0.5000000 )

 cart.    s(10) = ( -0.5000000 -0.8660255  0.0000000 )    f =( -0.0000005 )
                  ( -0.8660254  0.5000000  0.0000000 )       (  0.0000009 )
                  (  0.0000000  0.0000000  1.0000000 )       ( -0.8240688 )


      isym = 11     inv. 180 deg rotation - cryst. axis [0,1,0]  

 cryst.   s(11) = (     1          1          0      )
                  (     0         -1          0      )
                  (     0          0          1      )

 cart.    s(11) = (  0.5000000  0.8660255  0.0000000 )
                  (  0.8660254 -0.5000000  0.0000000 )
                  (  0.0000000  0.0000000  1.0000000 )


      isym = 12     inv. 180 deg rotation - cryst. axis [1,1,0]  

 cryst.   s(12) = (     0         -1          0      )
                  (    -1          0          0      )
                  (     0          0          1      )

 cart.    s(12) = (  0.5000000 -0.8660254  0.0000000 )
                  ( -0.8660254 -0.5000000  0.0000000 )
                  (  0.0000000  0.0000000  1.0000000 )


   Cartesian axes

     site n.     atom                  positions (alat units)
         1           Ga  tau(   1) = (   0.5000005   0.2886748   0.8239683  )
         2           Ga  tau(   2) = (  -0.0000005   0.5773505   1.6480371  )
         3           P   tau(   3) = (   0.5000005   0.2886748   1.4405728  )
         4           P   tau(   4) = (  -0.0000005   0.5773505   0.6165040  )

   Crystallographic axes

     site n.     atom                  positions (cryst. coord.)
         1           Ga  tau(   1) = (  0.6666670  0.3333330  0.4999390  )
         2           Ga  tau(   2) = (  0.3333330  0.6666670  0.9999390  )
         3           P   tau(   3) = (  0.6666670  0.3333330  0.8740610  )
         4           P   tau(   4) = (  0.3333330  0.6666670  0.3740610  )

     number of k points=     6
                       cart. coord. in units 2pi/alat
        k(    1) = (   0.0000000   0.0000000   0.0000000), wk =   0.0740741
        k(    2) = (   0.0000000   0.0000000   0.2022485), wk =   0.1481481
        k(    3) = (   0.0000000   0.3849002   0.0000000), wk =   0.4444444
        k(    4) = (   0.0000000   0.3849002   0.2022485), wk =   0.8888889
        k(    5) = (   0.3333333   0.5773503   0.0000000), wk =   0.1481481
        k(    6) = (   0.3333333   0.5773503   0.2022485), wk =   0.2962963

                       cryst. coord.
        k(    1) = (   0.0000000   0.0000000   0.0000000), wk =   0.0740741
        k(    2) = (   0.0000000   0.0000000   0.3333333), wk =   0.1481481
        k(    3) = (   0.0000000   0.3333333   0.0000000), wk =   0.4444444
        k(    4) = (   0.0000000   0.3333333   0.3333333), wk =   0.8888889
        k(    5) = (   0.3333333   0.3333333   0.0000000), wk =   0.1481481
        k(    6) = (   0.3333333   0.3333333   0.3333333), wk =   0.2962963

     Dense  grid:    35255 G-vectors     FFT dimensions: (  40,  40,  60)

     Smooth grid:    12469 G-vectors     FFT dimensions: (  25,  25,  48)

     Dynamical RAM for                 wfc:       0.38 MB

     Dynamical RAM for     wfc (w. buffer):       1.52 MB

     Dynamical RAM for           str. fact:       0.27 MB

     Dynamical RAM for           local pot:       0.00 MB

     Dynamical RAM for          nlocal pot:       0.43 MB

     Dynamical RAM for                qrad:       2.49 MB

     Dynamical RAM for          rho,v,vnew:       0.95 MB

     Dynamical RAM for               rhoin:       0.32 MB

     Dynamical RAM for            rho*nmix:       2.15 MB

     Dynamical RAM for           G-vectors:       0.53 MB

     Dynamical RAM for          h,s,v(r/c):       0.19 MB

     Dynamical RAM for          <psi|beta>:       0.07 MB

     Dynamical RAM for                 psi:       0.76 MB

     Dynamical RAM for                hpsi:       0.76 MB

     Dynamical RAM for                spsi:       0.76 MB

     Dynamical RAM for      wfcinit/wfcrot:       0.86 MB

     Dynamical RAM for           addusdens:      12.71 MB

     Estimated static dynamical RAM per process >       7.83 MB

     Estimated max dynamical RAM per process >      22.69 MB

     Estimated total dynamical RAM >     172.93 MB

     Check: negative core charge=   -0.000002

     Initial potential from superposition of free atoms

     starting charge      35.9938, renormalised to      36.0000
     Starting wfcs are   26 randomized atomic wfcs +   38 random wfcs
     Checking if some PAW data can be deallocated... 
       PAW data deallocated on    4 nodes for type:  1

     total cpu time spent up to now is        1.6 secs

     Self-consistent Calculation

     iteration #  1     ecut=    30.00 Ry     beta= 0.70
     Davidson diagonalization with overlap

---- Real-time Memory Report at c_bands before calling an iterative solver
           184 MiB given to the printing process from OS
             0 MiB allocation reported by mallinfo(arena+hblkhd)
        141404 MiB available memory on the node where the printing process lives
------------------
     ethr =  1.00E-02,  avg # of iterations =  6.8

     Threshold (ethr) on eigenvalues was too large:
     Diagonalizing with lowered threshold

     Davidson diagonalization with overlap

---- Real-time Memory Report at c_bands before calling an iterative solver
           200 MiB given to the printing process from OS
             0 MiB allocation reported by mallinfo(arena+hblkhd)
        141303 MiB available memory on the node where the printing process lives
------------------
     ethr =  4.34E-04,  avg # of iterations =  1.7

     total cpu time spent up to now is        2.2 secs

     total energy              =    -583.89418585 Ry
     estimated scf accuracy    <       0.15708538 Ry

     iteration #  2     ecut=    30.00 Ry     beta= 0.70
     Davidson diagonalization with overlap

---- Real-time Memory Report at c_bands before calling an iterative solver
           211 MiB given to the printing process from OS
             0 MiB allocation reported by mallinfo(arena+hblkhd)
        141237 MiB available memory on the node where the printing process lives
------------------
     ethr =  4.36E-04,  avg # of iterations =  1.5

     total cpu time spent up to now is        2.5 secs

     total energy              =    -583.92702396 Ry
     estimated scf accuracy    <       0.04241269 Ry

     iteration #  3     ecut=    30.00 Ry     beta= 0.70
     Davidson diagonalization with overlap

---- Real-time Memory Report at c_bands before calling an iterative solver
           214 MiB given to the printing process from OS
             0 MiB allocation reported by mallinfo(arena+hblkhd)
        141217 MiB available memory on the node where the printing process lives
------------------
     ethr =  1.18E-04,  avg # of iterations =  4.3

     total cpu time spent up to now is        2.9 secs

     total energy              =    -583.93690904 Ry
     estimated scf accuracy    <       0.00132972 Ry

     iteration #  4     ecut=    30.00 Ry     beta= 0.70
     Davidson diagonalization with overlap

---- Real-time Memory Report at c_bands before calling an iterative solver
           214 MiB given to the printing process from OS
             0 MiB allocation reported by mallinfo(arena+hblkhd)
        141218 MiB available memory on the node where the printing process lives
------------------
     ethr =  3.69E-06,  avg # of iterations =  5.2

     total cpu time spent up to now is        3.5 secs

     total energy              =    -583.93722946 Ry
     estimated scf accuracy    <       0.00003003 Ry

     iteration #  5     ecut=    30.00 Ry     beta= 0.70
     Davidson diagonalization with overlap

---- Real-time Memory Report at c_bands before calling an iterative solver
           214 MiB given to the printing process from OS
             0 MiB allocation reported by mallinfo(arena+hblkhd)
        141204 MiB available memory on the node where the printing process lives
------------------
     ethr =  8.34E-08,  avg # of iterations =  3.3

     total cpu time spent up to now is        3.9 secs

     total energy              =    -583.93723840 Ry
     estimated scf accuracy    <       0.00000137 Ry

     iteration #  6     ecut=    30.00 Ry     beta= 0.70
     Davidson diagonalization with overlap

---- Real-time Memory Report at c_bands before calling an iterative solver
           214 MiB given to the printing process from OS
             0 MiB allocation reported by mallinfo(arena+hblkhd)
        141207 MiB available memory on the node where the printing process lives
------------------
     ethr =  3.81E-09,  avg # of iterations =  4.2

     total cpu time spent up to now is        4.3 secs

     End of self-consistent calculation

          k = 0.0000 0.0000 0.0000 (  1557 PWs)   bands (ev):

    -7.8942  -7.8264  -7.8133  -7.8133  -7.7989  -7.7988  -7.7402  -7.7402
    -7.7235  -7.7235  -5.5248  -3.5263   0.2766   5.8016   5.8017   6.9586
     7.1558   7.1560   8.2312   8.4542  10.5472  10.5473  10.8741  12.5084
    12.5085  15.2423  15.5052  15.5052  16.3124  17.1222  17.7511  17.7511
    18.2326  20.0862  21.5464  21.5464  23.2511  24.9159  24.9160  25.7301
    25.7302  26.8496  26.8497  28.3301  28.7645  29.8058  32.4539  33.1300
    33.1300  33.7192  33.7192  33.7374  35.5307  35.5307  36.3386  37.1233
    37.1233  37.5246  37.5247  38.0256  39.5217  39.5217  40.2347  41.1063

     occupation numbers 
     1.0000   1.0000   1.0000   1.0000   1.0000   1.0000   1.0000   1.0000
     1.0000   1.0000   1.0000   1.0000   1.0000   1.0000   1.0000   1.0000
     1.0000   1.0000   0.0000   0.0000   0.0000   0.0000   0.0000   0.0000
     0.0000   0.0000   0.0000   0.0000   0.0000   0.0000   0.0000   0.0000
     0.0000   0.0000   0.0000   0.0000   0.0000   0.0000   0.0000   0.0000
     0.0000   0.0000   0.0000   0.0000   0.0000   0.0000   0.0000   0.0000
     0.0000   0.0000   0.0000   0.0000   0.0000   0.0000   0.0000   0.0000
     0.0000   0.0000   0.0000   0.0000   0.0000   0.0000   0.0000   0.0000

          k = 0.0000 0.0000 0.2022 (  1551 PWs)   bands (ev):

    -7.8781  -7.8434  -7.8105  -7.8105  -7.8032  -7.8032  -7.7353  -7.7353
    -7.7279  -7.7279  -5.1830  -4.2669   1.6807   4.4767   6.0741   6.0742
     6.7306   6.7307   8.5515   9.3308  10.9813  10.9814  11.6826  11.9069
    11.9070  14.5369  15.8021  16.4643  16.4644  17.0900  18.3856  18.3857
    19.1773  19.9158  19.9158  21.3473  22.3725  22.3725  24.1872  25.2027
    26.3035  27.7126  27.7127  29.9978  29.9978  30.1017  32.9501  32.9501
    33.7409  33.7409  34.1352  35.1620  35.1620  35.8917  35.8918  36.0269
    36.0269  36.6492  36.7129  37.4491  37.6694  37.6695  40.5795  40.9220

     occupation numbers 
     1.0000   1.0000   1.0000   1.0000   1.0000   1.0000   1.0000   1.0000
     1.0000   1.0000   1.0000   1.0000   1.0000   1.0000   1.0000   1.0000
     1.0000   1.0000   0.0000   0.0000   0.0000   0.0000   0.0000   0.0000
     0.0000   0.0000   0.0000   0.0000   0.0000   0.0000   0.0000   0.0000
     0.0000   0.0000   0.0000   0.0000   0.0000   0.0000   0.0000   0.0000
     0.0000   0.0000   0.0000   0.0000   0.0000   0.0000   0.0000   0.0000
     0.0000   0.0000   0.0000   0.0000   0.0000   0.0000   0.0000   0.0000
     0.0000   0.0000   0.0000   0.0000   0.0000   0.0000   0.0000   0.0000

          k = 0.0000 0.3849 0.0000 (  1559 PWs)   bands (ev):

    -7.9128  -7.8723  -7.8062  -7.7989  -7.7778  -7.7745  -7.7515  -7.7376
    -7.7303  -7.7159  -4.3655  -2.7049   0.3606   2.5365   2.7720   4.5317
     5.4146   6.0916   8.8222   9.8586  11.2536  11.7365  11.9386  14.0924
    14.8539  15.5195  15.6944  16.3730  16.4635  18.1871  19.1701  20.0854
    21.2833  21.7838  22.2031  22.9631  23.4320  24.0117  24.3946  24.7668
    25.5294  26.1138  27.7245  28.2595  29.3353  29.8488  30.8542  31.0573
    31.7229  32.1361  32.3327  33.3717  34.2998  34.7028  35.2815  36.1891
    36.4359  36.6672  37.1401  37.3994  38.1103  38.7732  40.0026  40.2723

     occupation numbers 
     1.0000   1.0000   1.0000   1.0000   1.0000   1.0000   1.0000   1.0000
     1.0000   1.0000   1.0000   1.0000   1.0000   1.0000   1.0000   1.0000
     1.0000   1.0000   0.0000   0.0000   0.0000   0.0000   0.0000   0.0000
     0.0000   0.0000   0.0000   0.0000   0.0000   0.0000   0.0000   0.0000
     0.0000   0.0000   0.0000   0.0000   0.0000   0.0000   0.0000   0.0000
     0.0000   0.0000   0.0000   0.0000   0.0000   0.0000   0.0000   0.0000
     0.0000   0.0000   0.0000   0.0000   0.0000   0.0000   0.0000   0.0000
     0.0000   0.0000   0.0000   0.0000   0.0000   0.0000   0.0000   0.0000

          k = 0.0000 0.3849 0.2022 (  1567 PWs)   bands (ev):

    -7.9026  -7.8826  -7.8002  -7.7920  -7.7867  -7.7798  -7.7463  -7.7390
    -7.7274  -7.7202  -4.0672  -3.2862   0.8680   1.8823   3.6424   4.8377
     5.4155   5.5913   8.6082   9.4595  10.4992  11.8669  12.7127  13.8624
    14.6043  15.1135  15.6306  16.8484  17.7699  18.1651  18.2935  20.5371
    21.5985  22.4752  22.6598  23.1964  23.6842  23.9007  24.0390  24.8934
    25.1621  26.5659  26.7011  27.2923  28.8081  29.6530  30.0640  30.9754
    31.9061  32.1192  33.1308  33.2934  34.0746  34.4293  34.8994  34.9126
    36.6873  36.9733  37.2823  37.6258  37.9522  39.2990  39.4815  40.9193

     occupation numbers 
     1.0000   1.0000   1.0000   1.0000   1.0000   1.0000   1.0000   1.0000
     1.0000   1.0000   1.0000   1.0000   1.0000   1.0000   1.0000   1.0000
     1.0000   1.0000   0.0000   0.0000   0.0000   0.0000   0.0000   0.0000
     0.0000   0.0000   0.0000   0.0000   0.0000   0.0000   0.0000   0.0000
     0.0000   0.0000   0.0000   0.0000   0.0000   0.0000   0.0000   0.0000
     0.0000   0.0000   0.0000   0.0000   0.0000   0.0000   0.0000   0.0000
     0.0000   0.0000   0.0000   0.0000   0.0000   0.0000   0.0000   0.0000
     0.0000   0.0000   0.0000   0.0000   0.0000   0.0000   0.0000   0.0000

          k = 0.3333 0.5774 0.0000 (  1560 PWs)   bands (ev):

    -7.9017  -7.9017  -7.8050  -7.7813  -7.7813  -7.7718  -7.7376  -7.7375
    -7.7366  -7.7216  -2.8721  -2.8720   0.8190   0.8190   2.3566   3.9097
     3.9098   4.1681   9.4439  11.7235  11.7235  13.9568  13.9568  14.3101
    14.3920  14.3921  16.1083  16.1084  16.3040  16.7225  18.9895  20.5897
    21.6435  21.6436  23.0745  23.7064  23.7065  24.8658  24.8659  25.4355
    27.3061  27.9577  27.9578  28.9720  30.2472  30.9285  30.9286  31.1036
    31.1036  32.0626  32.4000  32.4001  32.8552  33.8113  33.8113  34.7882
    34.7883  35.3608  35.9470  35.9470  36.1812  36.9465  36.9465  37.5194

     occupation numbers 
     1.0000   1.0000   1.0000   1.0000   1.0000   1.0000   1.0000   1.0000
     1.0000   1.0000   1.0000   1.0000   1.0000   1.0000   1.0000   1.0000
     1.0000   1.0000   0.0000   0.0000   0.0000   0.0000   0.0000   0.0000
     0.0000   0.0000   0.0000   0.0000   0.0000   0.0000   0.0000   0.0000
     0.0000   0.0000   0.0000   0.0000   0.0000   0.0000   0.0000   0.0000
     0.0000   0.0000   0.0000   0.0000   0.0000   0.0000   0.0000   0.0000
     0.0000   0.0000   0.0000   0.0000   0.0000   0.0000   0.0000   0.0000
     0.0000   0.0000   0.0000   0.0000   0.0000   0.0000   0.0000   0.0000

          k = 0.3333 0.5774 0.2022 (  1560 PWs)   bands (ev):

    -7.9002  -7.9002  -7.7945  -7.7839  -7.7839  -7.7774  -7.7356  -7.7352
    -7.7351  -7.7288  -2.8128  -2.8127   0.3986   0.3986   2.6952   3.5563
     4.8785   4.8785  10.0398  10.0399  10.7350  13.1836  13.1836  13.4054
    15.1847  15.1848  15.2347  15.7655  18.3083  18.3084  21.5159  21.6316
    21.7828  21.7829  23.1834  23.7185  23.7185  23.9428  23.9428  24.2351
    26.7682  26.8334  26.8334  28.7270  30.1881  30.5853  30.5853  30.9530
    30.9531  31.3234  32.2165  32.2165  32.8079  33.6058  33.6058  34.7526
    34.7527  35.2550  37.5226  37.8630  37.8630  38.4220  38.7796  38.7796

     occupation numbers 
     1.0000   1.0000   1.0000   1.0000   1.0000   1.0000   1.0000   1.0000
     1.0000   1.0000   1.0000   1.0000   1.0000   1.0000   1.0000   1.0000
     1.0000   1.0000   0.0000   0.0000   0.0000   0.0000   0.0000   0.0000
     0.0000   0.0000   0.0000   0.0000   0.0000   0.0000   0.0000   0.0000
     0.0000   0.0000   0.0000   0.0000   0.0000   0.0000   0.0000   0.0000
     0.0000   0.0000   0.0000   0.0000   0.0000   0.0000   0.0000   0.0000
     0.0000   0.0000   0.0000   0.0000   0.0000   0.0000   0.0000   0.0000
     0.0000   0.0000   0.0000   0.0000   0.0000   0.0000   0.0000   0.0000

     highest occupied, lowest unoccupied level (ev):     7.1560    8.2312

!    total energy              =    -583.93723894 Ry
     estimated scf accuracy    <       0.00000003 Ry

     The total energy is the sum of the following terms:
     one-electron contribution =    -232.93582242 Ry
     hartree contribution      =     146.71404374 Ry
     xc contribution           =     -84.99184010 Ry
     ewald contribution        =    -190.87400925 Ry
     one-center paw contrib.   =    -221.84961091 Ry
      -> PAW hartree energy AE =     141.60734732 Ry
      -> PAW hartree energy PS =    -139.38203878 Ry
      -> PAW xc energy AE      =    -150.84623576 Ry
      -> PAW xc energy PS      =      37.69612177 Ry
      -> total E_H with PAW    =     148.93935227 Ry
      -> total E_XC with PAW   =    -198.14195409 Ry

     convergence has been achieved in   6 iterations

     Writing all to output data dir calculations_bands_val/myprefix.save/
 
     init_run     :      4.62s CPU      1.31s WALL (       1 calls)
     electrons    :     10.46s CPU      2.79s WALL (       1 calls)

     Called by init_run:
     wfcinit      :      0.31s CPU      0.09s WALL (       1 calls)
     wfcinit:atom :      0.00s CPU      0.00s WALL (       3 calls)
     wfcinit:wfcr :      0.30s CPU      0.08s WALL (       3 calls)
     potinit      :      1.12s CPU      0.29s WALL (       1 calls)
     hinit0       :      2.46s CPU      0.68s WALL (       1 calls)

     Called by electrons:
     c_bands      :      6.39s CPU      1.67s WALL (       7 calls)
     sum_band     :      1.63s CPU      0.45s WALL (       7 calls)
     v_of_rho     :      0.19s CPU      0.05s WALL (       7 calls)
     v_h          :      0.01s CPU      0.00s WALL (       7 calls)
     v_xc         :      0.18s CPU      0.05s WALL (       7 calls)
     newd         :      0.55s CPU      0.15s WALL (       7 calls)
     PAW_pot      :      1.83s CPU      0.49s WALL (       7 calls)
     mix_rho      :      0.03s CPU      0.01s WALL (       7 calls)

     Called by c_bands:
     init_us_2    :      0.03s CPU      0.01s WALL (      45 calls)
     init_us_2:cp :      0.03s CPU      0.01s WALL (      45 calls)
     cegterg      :      6.16s CPU      1.61s WALL (      21 calls)

     Called by sum_band:
     sum_band:wei :      0.00s CPU      0.00s WALL (       7 calls)
     sum_band:loo :      0.80s CPU      0.21s WALL (       7 calls)
     sum_band:buf :      0.01s CPU      0.00s WALL (      21 calls)
     sum_band:ini :      0.01s CPU      0.00s WALL (      21 calls)
     sum_band:cal :      0.03s CPU      0.01s WALL (      21 calls)
     sum_band:bec :      0.00s CPU      0.00s WALL (      21 calls)
     addusdens    :      0.44s CPU      0.14s WALL (       7 calls)
     addusd:skk   :      0.00s CPU      0.00s WALL (      14 calls)
     addusd:dgemm :      0.06s CPU      0.04s WALL (      14 calls)
     addusd:qvan2 :      0.29s CPU      0.07s WALL (      14 calls)

     Called by *egterg:
     cdiaghg      :      1.72s CPU      0.45s WALL (     107 calls)
     cegterg:over :      0.24s CPU      0.06s WALL (      89 calls)
     cegterg:upda :      0.13s CPU      0.03s WALL (      89 calls)
     cegterg:last :      0.18s CPU      0.05s WALL (      48 calls)
     cdiaghg:chol :      0.12s CPU      0.03s WALL (     107 calls)
     cdiaghg:inve :      0.02s CPU      0.01s WALL (     107 calls)
     cdiaghg:para :      0.28s CPU      0.07s WALL (     214 calls)
     h_psi        :      4.01s CPU      1.05s WALL (     113 calls)
     s_psi        :      0.03s CPU      0.01s WALL (     113 calls)
     g_psi        :      0.01s CPU      0.00s WALL (      89 calls)

     Called by h_psi:
     h_psi:calbec :      0.10s CPU      0.03s WALL (     113 calls)
     vloc_psi     :      3.85s CPU      1.00s WALL (     113 calls)
     add_vuspsi   :      0.04s CPU      0.01s WALL (     113 calls)

     General routines
     calbec       :      0.13s CPU      0.04s WALL (     134 calls)
     fft          :      1.28s CPU      0.36s WALL (      90 calls)
     ffts         :      0.52s CPU      0.13s WALL (      14 calls)
     fftw         :      4.10s CPU      1.07s WALL (    8606 calls)
     interpolate  :      0.48s CPU      0.12s WALL (       7 calls)
 
     Parallel routines

     PAW routines
     PAW_pot      :      1.83s CPU      0.49s WALL (       7 calls)
     PAW_symme    :      0.02s CPU      0.00s WALL (      14 calls)
 
     PWSCF        :     16.14s CPU      4.73s WALL

 
   This run was terminated on:  11:55:38   4Jun2023            

=------------------------------------------------------------------------------=
   JOB DONE.
=------------------------------------------------------------------------------=
