
     Program PWSCF v.7.0 starts on  4Jun2023 at 11:10:59 

     This program is part of the open-source Quantum ESPRESSO suite
     for quantum simulation of materials; please cite
         "P. Giannozzi et al., J. Phys.:Condens. Matter 21 395502 (2009);
         "P. Giannozzi et al., J. Phys.:Condens. Matter 29 465901 (2017);
         "P. Giannozzi et al., J. Chem. Phys. 152 154105 (2020);
          URL http://www.quantum-espresso.org", 
     in publications or presentations arising from this work. More details at
     http://www.quantum-espresso.org/quote

     Parallel version (MPI & OpenMP), running on      32 processor cores
     Number of MPI processes:                 8
     Threads/MPI process:                     4

     MPI processes distributed on     1 nodes
     K-points division:     npool     =       2
     R & G space division:  proc/nbgrp/npool/nimage =       4
     143710 MiB available memory on the printing compute node when the environment starts
 
     Reading input from espresso_177.pwi
Warning: card &CELL ignored
Warning: card / ignored

     Current dimensions of program PWSCF are:
     Max number of different atomic species (ntypx) = 10
     Max number of k-points (npk) =  40000
     Max angular momentum in pseudopotentials (lmaxx) =  4
     Message from routine setup:
     using ibrav=0 with symmetry is DISCOURAGED, use correct ibrav instead

     Subspace diagonalization in iterative solution of the eigenvalue problem:
     one sub-group per band group will be used
     scalapack distributed-memory algorithm (size of sub-group:  2*  2 procs)

 
     Parallelization info
     --------------------
     sticks:   dense  smooth     PW     G-vecs:    dense   smooth      PW
     Min         698     349     99                20562     7277    1113
     Max         700     351    100                20564     7278    1114
     Sum        2795    1399    397                82251    29109    4455
 
     Using Slab Decomposition
 


     bravais-lattice index     =            0
     lattice parameter (alat)  =      12.2911  a.u.
     unit-cell volume          =    1309.5822 (a.u.)^3
     number of atoms/cell      =           18
     number of atomic types    =            3
     number of electrons       =       120.00
     number of Kohn-Sham states=           64
     kinetic-energy cutoff     =      30.0000  Ry
     charge density cutoff     =     240.0000  Ry
     scf convergence threshold =      1.0E-06
     mixing beta               =       0.7000
     number of iterations used =            8  plain     mixing
     Exchange-correlation=  SLA  PW   PBX  PBC
                           (   1   4   3   4   0   0   0)

     celldm(1)=  12.291061  celldm(2)=   0.000000  celldm(3)=   0.000000
     celldm(4)=   0.000000  celldm(5)=   0.000000  celldm(6)=   0.000000

     crystal axes: (cart. coord. in units of alat)
               a(1) = (   1.000000   0.000000   0.000000 )  
               a(2) = (   0.252763   0.967528   0.000000 )  
               a(3) = (   0.256550   0.198137   0.728955 )  

     reciprocal axes: (cart. coord. in units 2 pi/alat)
               b(1) = (  1.000000 -0.261246 -0.280932 )  
               b(2) = (  0.000000  1.033562 -0.280932 )  
               b(3) = (  0.000000  0.000000  1.371826 )  


     PseudoPot. # 1 for Li read from file:
     /home/pragov/projects/rrg-bengioy-ad/pragov/crystal_structure_design/SSSP/li_pbe_v1.4.uspp.F.UPF
     MD5 check sum: e912e257baa3777c20ea3d68f190483c
     Pseudo is Ultrasoft, Zval =  3.0
     Generated by new atomic code, or converted to UPF format
     Using radial grid of  751 points,  5 beta functions with: 
                l(1) =   0
                l(2) =   0
                l(3) =   0
                l(4) =   1
                l(5) =   1
     Q(r) pseudized with 10 coefficients,  rinner =    1.150   1.150   1.150


     PseudoPot. # 2 for Zr read from file:
     /home/pragov/projects/rrg-bengioy-ad/pragov/crystal_structure_design/SSSP/Zr_pbe_v1.uspp.F.UPF
     MD5 check sum: 5db81b1e868ab7776c4564c113de050b
     Pseudo is Ultrasoft + core correction, Zval = 12.0
     Generated by new atomic code, or converted to UPF format
     Using radial grid of  887 points,  6 beta functions with: 
                l(1) =   0
                l(2) =   0
                l(3) =   1
                l(4) =   1
                l(5) =   2
                l(6) =   2
     Q(r) pseudized with  6 coefficients,  rinner =    1.200   1.200   1.200
                                                       1.200   1.200

     PseudoPot. # 3 for F  read from file:
     /home/pragov/projects/rrg-bengioy-ad/pragov/crystal_structure_design/SSSP/f_pbe_v1.4.uspp.F.UPF
     MD5 check sum: 4c38b6a325caf53ec0e86aed9459de46
     Pseudo is Ultrasoft, Zval =  7.0
     Generated by new atomic code, or converted to UPF format
     Using radial grid of  799 points,  4 beta functions with: 
                l(1) =   0
                l(2) =   0
                l(3) =   1
                l(4) =   1
     Q(r) pseudized with  8 coefficients,  rinner =    0.950   0.950   0.950


     atomic species   valence    mass     pseudopotential
        Li             3.00     6.94000     Li( 1.00)
        Zr            12.00    91.22400     Zr( 1.00)
        F              7.00    18.99840     F ( 1.00)

      2 Sym. Ops., with inversion, found


                                    s                        frac. trans.

      isym =  1     identity                                     

 cryst.   s( 1) = (     1          0          0      )
                  (     0          1          0      )
                  (     0          0          1      )

 cart.    s( 1) = (  1.0000000  0.0000000 -0.0000000 )
                  (  0.0000000  1.0000000 -0.0000000 )
                  (  0.0000000  0.0000000  1.0000000 )


      isym =  2     inversion                                    

 cryst.   s( 2) = (    -1          0          0      )
                  (     0         -1          0      )
                  (     0          0         -1      )

 cart.    s( 2) = ( -1.0000000 -0.0000000  0.0000000 )
                  (  0.0000000 -1.0000000  0.0000000 )
                  (  0.0000000  0.0000000 -1.0000000 )


   Cartesian axes

     site n.     atom                  positions (alat units)
         1           Li  tau(   1) = (   1.1556723   1.0173569   0.6632306  )
         2           Li  tau(   2) = (   0.3611549   0.4037387   0.4302025  )
         3           Li  tau(   3) = (   0.3536403   0.1483088   0.0657248  )
         4           Li  tau(   4) = (   1.1481577   0.7619269   0.2987529  )
         5           Zr  tau(   5) = (   0.8270757   0.3564837   0.1822389  )
         6           Zr  tau(   6) = (   0.6822369   0.8091820   0.5467166  )
         7           F   tau(   7) = (   0.3192647   0.4394056   0.7264230  )
         8           F   tau(   8) = (   1.0937189   0.4457882   0.3227129  )
         9           F   tau(   9) = (   0.8360390   1.0445939   0.6871906  )
        10           F   tau(  10) = (   0.4155937   0.7198775   0.4062425  )
        11           F   tau(  11) = (   0.3775607   0.0987635   0.3619453  )
        12           F   tau(  12) = (   0.8310890   0.7181006   0.2567563  )
        13           F   tau(  13) = (   0.6732736   0.1210717   0.0417648  )
        14           F   tau(  14) = (   0.4761866   0.4440040   0.1077214  )
        15           F   tau(  15) = (   1.1900479   0.7262600   0.0025324  )
        16           F   tau(  16) = (   1.1317518   1.0669022   0.3670101  )
        17           F   tau(  17) = (   0.6782236   0.4475651   0.4721991  )
        18           F   tau(  18) = (   1.0331259   0.7216617   0.6212340  )

   Crystallographic axes

     site n.     atom                  positions (cryst. coord.)
         1           Li  tau(   1) = (  0.7035690  0.8651780  0.9098370  )
         2           Li  tau(   2) = (  0.1348220  0.2964310  0.5901630  )
         3           Li  tau(   3) = (  0.2964310  0.1348220  0.0901630  )
         4           Li  tau(   4) = (  0.8651780  0.7035690  0.4098370  )
         5           Zr  tau(   5) = (  0.6827490  0.3172510  0.2500000  )
         6           Zr  tau(   6) = (  0.3172510  0.6827490  0.7500000  )
         7           F   tau(   7) = (  0.0003960  0.2500770  0.9965260  )
         8           F   tau(   8) = (  0.8865980  0.3700890  0.4427060  )
         9           F   tau(   9) = (  0.3700890  0.8865980  0.9427060  )
        10           F   tau(  10) = (  0.1134020  0.6299110  0.5572940  )
        11           F   tau(  11) = (  0.2500770  0.0003960  0.4965260  )
        12           F   tau(  12) = (  0.5713570  0.6700700  0.3522250  )
        13           F   tau(  13) = (  0.6299110  0.1134020  0.0572940  )
        14           F   tau(  14) = (  0.3299300  0.4286430  0.1477750  )
        15           F   tau(  15) = (  0.9996040  0.7499230  0.0034740  )
        16           F   tau(  16) = (  0.7499230  0.9996040  0.5034740  )
        17           F   tau(  17) = (  0.4286430  0.3299300  0.6477750  )
        18           F   tau(  18) = (  0.6700700  0.5713570  0.8522250  )

     number of k points=    14
                       cart. coord. in units 2pi/alat
        k(    1) = (   0.0000000   0.0000000   0.0000000), wk =   0.0740741
        k(    2) = (   0.0000000   0.0000000   0.4572753), wk =   0.1481481
        k(    3) = (   0.0000000   0.3445205  -0.0936441), wk =   0.1481481
        k(    4) = (   0.0000000   0.3445205   0.3636312), wk =   0.1481481
        k(    5) = (   0.0000000   0.3445205  -0.5509195), wk =   0.1481481
        k(    6) = (   0.3333333  -0.0870820  -0.0936441), wk =   0.1481481
        k(    7) = (   0.3333333  -0.0870820   0.3636312), wk =   0.1481481
        k(    8) = (   0.3333333  -0.0870820  -0.5509195), wk =   0.1481481
        k(    9) = (   0.3333333   0.2574385  -0.1872883), wk =   0.1481481
        k(   10) = (   0.3333333   0.2574385   0.2699871), wk =   0.1481481
        k(   11) = (   0.3333333   0.2574385  -0.6445636), wk =   0.1481481
        k(   12) = (   0.3333333  -0.4316025   0.0000000), wk =   0.1481481
        k(   13) = (   0.3333333  -0.4316025   0.4572753), wk =   0.1481481
        k(   14) = (   0.3333333  -0.4316025  -0.4572753), wk =   0.1481481

                       cryst. coord.
        k(    1) = (   0.0000000   0.0000000   0.0000000), wk =   0.0740741
        k(    2) = (   0.0000000   0.0000000   0.3333333), wk =   0.1481481
        k(    3) = (   0.0000000   0.3333333   0.0000000), wk =   0.1481481
        k(    4) = (   0.0000000   0.3333333   0.3333333), wk =   0.1481481
        k(    5) = (   0.0000000   0.3333333  -0.3333333), wk =   0.1481481
        k(    6) = (   0.3333333   0.0000000   0.0000000), wk =   0.1481481
        k(    7) = (   0.3333333   0.0000000   0.3333333), wk =   0.1481481
        k(    8) = (   0.3333333   0.0000000  -0.3333333), wk =   0.1481481
        k(    9) = (   0.3333333   0.3333333   0.0000000), wk =   0.1481481
        k(   10) = (   0.3333333   0.3333333   0.3333333), wk =   0.1481481
        k(   11) = (   0.3333333   0.3333333  -0.3333333), wk =   0.1481481
        k(   12) = (   0.3333333  -0.3333333  -0.0000000), wk =   0.1481481
        k(   13) = (   0.3333333  -0.3333333   0.3333333), wk =   0.1481481
        k(   14) = (   0.3333333  -0.3333333  -0.3333333), wk =   0.1481481

     Dense  grid:    82251 G-vectors     FFT dimensions: (  64,  64,  50)

     Smooth grid:    29109 G-vectors     FFT dimensions: (  45,  45,  36)

     Dynamical RAM for                 wfc:       0.89 MB

     Dynamical RAM for     wfc (w. buffer):       7.09 MB

     Dynamical RAM for           str. fact:       0.94 MB

     Dynamical RAM for           local pot:       0.00 MB

     Dynamical RAM for          nlocal pot:       2.33 MB

     Dynamical RAM for                qrad:       3.73 MB

     Dynamical RAM for          rho,v,vnew:       2.16 MB

     Dynamical RAM for               rhoin:       0.72 MB

     Dynamical RAM for            rho*nmix:       5.02 MB

     Dynamical RAM for           G-vectors:       1.23 MB

     Dynamical RAM for          h,s,v(r/c):       0.19 MB

     Dynamical RAM for          <psi|beta>:       0.16 MB

     Dynamical RAM for                 psi:       1.77 MB

     Dynamical RAM for                hpsi:       1.77 MB

     Dynamical RAM for                spsi:       1.77 MB

     Dynamical RAM for      wfcinit/wfcrot:       2.81 MB

     Dynamical RAM for           addusdens:      31.22 MB

     Estimated static dynamical RAM per process >      21.49 MB

     Estimated max dynamical RAM per process >      57.74 MB

     Estimated total dynamical RAM >     441.80 MB

     Check: negative core charge=   -0.000002

     Initial potential from superposition of free atoms

     starting charge     118.1927, renormalised to     120.0000

     negative rho (up, down):  1.263E-01 0.000E+00
     Starting wfcs are   94 randomized atomic wfcs

     total cpu time spent up to now is        1.8 secs

     Self-consistent Calculation

     iteration #  1     ecut=    30.00 Ry     beta= 0.70
     Davidson diagonalization with overlap

---- Real-time Memory Report at c_bands before calling an iterative solver
           210 MiB given to the printing process from OS
             0 MiB allocation reported by mallinfo(arena+hblkhd)
        142845 MiB available memory on the node where the printing process lives
------------------
     ethr =  1.00E-02,  avg # of iterations =  2.0

     negative rho (up, down):  1.293E-01 0.000E+00

     total cpu time spent up to now is        2.7 secs

     total energy              =    -841.05481872 Ry
     estimated scf accuracy    <       1.96086877 Ry

     iteration #  2     ecut=    30.00 Ry     beta= 0.70
     Davidson diagonalization with overlap

---- Real-time Memory Report at c_bands before calling an iterative solver
           246 MiB given to the printing process from OS
             0 MiB allocation reported by mallinfo(arena+hblkhd)
        142767 MiB available memory on the node where the printing process lives
------------------
     ethr =  1.63E-03,  avg # of iterations =  5.9

     negative rho (up, down):  1.304E-01 0.000E+00

     total cpu time spent up to now is        4.7 secs

     total energy              =    -841.15738667 Ry
     estimated scf accuracy    <       3.28474836 Ry

     iteration #  3     ecut=    30.00 Ry     beta= 0.70
     Davidson diagonalization with overlap

---- Real-time Memory Report at c_bands before calling an iterative solver
           257 MiB given to the printing process from OS
             0 MiB allocation reported by mallinfo(arena+hblkhd)
        142687 MiB available memory on the node where the printing process lives
------------------
     ethr =  1.63E-03,  avg # of iterations =  3.9

     negative rho (up, down):  1.323E-01 0.000E+00

     total cpu time spent up to now is        5.7 secs

     total energy              =    -841.95271568 Ry
     estimated scf accuracy    <       0.06272279 Ry

     iteration #  4     ecut=    30.00 Ry     beta= 0.70
     Davidson diagonalization with overlap

---- Real-time Memory Report at c_bands before calling an iterative solver
           261 MiB given to the printing process from OS
             0 MiB allocation reported by mallinfo(arena+hblkhd)
        142679 MiB available memory on the node where the printing process lives
------------------
     ethr =  5.23E-05,  avg # of iterations =  4.6

     negative rho (up, down):  1.334E-01 0.000E+00

     total cpu time spent up to now is        6.9 secs

     total energy              =    -841.96153091 Ry
     estimated scf accuracy    <       0.02121761 Ry

     iteration #  5     ecut=    30.00 Ry     beta= 0.70
     Davidson diagonalization with overlap

---- Real-time Memory Report at c_bands before calling an iterative solver
           262 MiB given to the printing process from OS
             0 MiB allocation reported by mallinfo(arena+hblkhd)
        142679 MiB available memory on the node where the printing process lives
------------------
     ethr =  1.77E-05,  avg # of iterations =  2.6

     negative rho (up, down):  1.340E-01 0.000E+00

     total cpu time spent up to now is        7.8 secs

     total energy              =    -841.96497621 Ry
     estimated scf accuracy    <       0.00055934 Ry

     iteration #  6     ecut=    30.00 Ry     beta= 0.70
     Davidson diagonalization with overlap

---- Real-time Memory Report at c_bands before calling an iterative solver
           262 MiB given to the printing process from OS
             0 MiB allocation reported by mallinfo(arena+hblkhd)
        142682 MiB available memory on the node where the printing process lives
------------------
     ethr =  4.66E-07,  avg # of iterations =  8.0

     negative rho (up, down):  1.342E-01 0.000E+00

     total cpu time spent up to now is        9.1 secs

     total energy              =    -841.96533601 Ry
     estimated scf accuracy    <       0.00005579 Ry

     iteration #  7     ecut=    30.00 Ry     beta= 0.70
     Davidson diagonalization with overlap

---- Real-time Memory Report at c_bands before calling an iterative solver
           263 MiB given to the printing process from OS
             0 MiB allocation reported by mallinfo(arena+hblkhd)
        142671 MiB available memory on the node where the printing process lives
------------------
     ethr =  4.65E-08,  avg # of iterations =  2.1

     negative rho (up, down):  1.343E-01 0.000E+00

     total cpu time spent up to now is       10.0 secs

     total energy              =    -841.96534239 Ry
     estimated scf accuracy    <       0.00000772 Ry

     iteration #  8     ecut=    30.00 Ry     beta= 0.70
     Davidson diagonalization with overlap

---- Real-time Memory Report at c_bands before calling an iterative solver
           263 MiB given to the printing process from OS
             0 MiB allocation reported by mallinfo(arena+hblkhd)
        142667 MiB available memory on the node where the printing process lives
------------------
     ethr =  6.43E-09,  avg # of iterations =  3.9

     negative rho (up, down):  1.343E-01 0.000E+00

     total cpu time spent up to now is       11.8 secs

     total energy              =    -841.96534302 Ry
     estimated scf accuracy    <       0.00000173 Ry

     iteration #  9     ecut=    30.00 Ry     beta= 0.70
     Davidson diagonalization with overlap

---- Real-time Memory Report at c_bands before calling an iterative solver
           263 MiB given to the printing process from OS
             0 MiB allocation reported by mallinfo(arena+hblkhd)
        142716 MiB available memory on the node where the printing process lives
------------------
     ethr =  1.44E-09,  avg # of iterations =  4.3

     negative rho (up, down):  1.343E-01 0.000E+00

     total cpu time spent up to now is       13.6 secs

     End of self-consistent calculation

          k = 0.0000 0.0000 0.0000 (  3667 PWs)   bands (ev):

   -44.4851 -44.4792 -38.4028 -38.3930 -38.3884 -38.3793 -22.8437 -22.8155
   -22.7589 -22.6950 -22.6603 -22.6004 -18.1511 -17.5905 -17.5722 -17.5323
   -17.2455 -17.1820 -17.0078 -16.9327 -16.9134 -16.9003 -16.7185 -16.6843
    -1.0100  -0.9771  -0.9416  -0.7983  -0.5446  -0.4510  -0.3206   0.0300
     0.2026   0.2345   0.3878   0.5153   0.5390   0.6119   0.6493   0.7218
     1.0259   1.0956   1.1620   1.2781   1.3848   1.5133   1.5886   1.6845
     1.7373   1.8482   1.8574   2.0130   2.1536   2.1647   2.1718   2.3747
     2.4543   2.4615   2.5494   2.6837   8.2411   8.5442   8.9651   9.3736

     occupation numbers 
     1.0000   1.0000   1.0000   1.0000   1.0000   1.0000   1.0000   1.0000
     1.0000   1.0000   1.0000   1.0000   1.0000   1.0000   1.0000   1.0000
     1.0000   1.0000   1.0000   1.0000   1.0000   1.0000   1.0000   1.0000
     1.0000   1.0000   1.0000   1.0000   1.0000   1.0000   1.0000   1.0000
     1.0000   1.0000   1.0000   1.0000   1.0000   1.0000   1.0000   1.0000
     1.0000   1.0000   1.0000   1.0000   1.0000   1.0000   1.0000   1.0000
     1.0000   1.0000   1.0000   1.0000   1.0000   1.0000   1.0000   1.0000
     1.0000   1.0000   1.0000   1.0000   0.0000   0.0000   0.0000   0.0000

          k = 0.0000 0.0000 0.4573 (  3628 PWs)   bands (ev):

   -44.4836 -44.4806 -38.3989 -38.3913 -38.3894 -38.3817 -22.8442 -22.8242
   -22.7577 -22.7216 -22.6364 -22.6044 -17.9499 -17.6473 -17.5877 -17.5598
   -17.2253 -17.2175 -16.9942 -16.9488 -16.9231 -16.8682 -16.7751 -16.7419
    -0.8202  -0.7219  -0.5249  -0.4719  -0.4604  -0.4374  -0.2958   0.0588
     0.2390   0.2829   0.4047   0.4099   0.4459   0.4612   0.6875   0.8116
     0.8604   0.9932   1.0226   1.2603   1.3047   1.3336   1.4887   1.5608
     1.5693   1.6625   1.8451   2.0289   2.0382   2.1519   2.2990   2.3327
     2.4016   2.4312   2.4379   2.5727   8.2999   8.4481   8.9466   9.0681

     occupation numbers 
     1.0000   1.0000   1.0000   1.0000   1.0000   1.0000   1.0000   1.0000
     1.0000   1.0000   1.0000   1.0000   1.0000   1.0000   1.0000   1.0000
     1.0000   1.0000   1.0000   1.0000   1.0000   1.0000   1.0000   1.0000
     1.0000   1.0000   1.0000   1.0000   1.0000   1.0000   1.0000   1.0000
     1.0000   1.0000   1.0000   1.0000   1.0000   1.0000   1.0000   1.0000
     1.0000   1.0000   1.0000   1.0000   1.0000   1.0000   1.0000   1.0000
     1.0000   1.0000   1.0000   1.0000   1.0000   1.0000   1.0000   1.0000
     1.0000   1.0000   1.0000   1.0000   0.0000   0.0000   0.0000   0.0000

          k = 0.0000 0.3445-0.0936 (  3628 PWs)   bands (ev):

   -44.4850 -44.4792 -38.4012 -38.3966 -38.3836 -38.3799 -22.8441 -22.8203
   -22.7578 -22.6906 -22.6616 -22.6032 -18.0944 -17.5756 -17.5527 -17.5038
   -17.3243 -17.1954 -17.0010 -16.9833 -16.9253 -16.8671 -16.7226 -16.6884
    -0.9660  -0.9010  -0.8386  -0.6884  -0.5172  -0.4571  -0.1959  -0.0544
     0.0980   0.1353   0.3328   0.4219   0.4966   0.5938   0.7980   0.8670
     0.9201   0.9993   1.1135   1.2806   1.4330   1.5893   1.6527   1.7291
     1.8054   1.8331   1.9052   1.9707   2.0543   2.1147   2.1857   2.2347
     2.4445   2.4904   2.5409   2.5854   8.2619   8.5516   8.9377   9.3112

     occupation numbers 
     1.0000   1.0000   1.0000   1.0000   1.0000   1.0000   1.0000   1.0000
     1.0000   1.0000   1.0000   1.0000   1.0000   1.0000   1.0000   1.0000
     1.0000   1.0000   1.0000   1.0000   1.0000   1.0000   1.0000   1.0000
     1.0000   1.0000   1.0000   1.0000   1.0000   1.0000   1.0000   1.0000
     1.0000   1.0000   1.0000   1.0000   1.0000   1.0000   1.0000   1.0000
     1.0000   1.0000   1.0000   1.0000   1.0000   1.0000   1.0000   1.0000
     1.0000   1.0000   1.0000   1.0000   1.0000   1.0000   1.0000   1.0000
     1.0000   1.0000   1.0000   1.0000   0.0000   0.0000   0.0000   0.0000

          k = 0.0000 0.3445 0.3636 (  3635 PWs)   bands (ev):

   -44.4836 -44.4806 -38.3976 -38.3949 -38.3859 -38.3832 -22.8441 -22.8245
   -22.7604 -22.7233 -22.6333 -22.6029 -17.9512 -17.6562 -17.6107 -17.5382
   -17.2465 -17.1871 -16.9979 -16.9503 -16.9035 -16.8814 -16.7881 -16.7244
    -0.8776  -0.7550  -0.6716  -0.5561  -0.5268  -0.4231  -0.2475  -0.0173
     0.1632   0.2804   0.3754   0.4814   0.6258   0.6475   0.7115   0.8203
     0.8953   1.0525   1.0932   1.1471   1.3836   1.4090   1.4710   1.5650
     1.6334   1.7548   1.8361   1.9382   2.0369   2.1336   2.2199   2.2940
     2.3884   2.4051   2.4504   2.5705   8.2843   8.4853   8.9648   9.0570

     occupation numbers 
     1.0000   1.0000   1.0000   1.0000   1.0000   1.0000   1.0000   1.0000
     1.0000   1.0000   1.0000   1.0000   1.0000   1.0000   1.0000   1.0000
     1.0000   1.0000   1.0000   1.0000   1.0000   1.0000   1.0000   1.0000
     1.0000   1.0000   1.0000   1.0000   1.0000   1.0000   1.0000   1.0000
     1.0000   1.0000   1.0000   1.0000   1.0000   1.0000   1.0000   1.0000
     1.0000   1.0000   1.0000   1.0000   1.0000   1.0000   1.0000   1.0000
     1.0000   1.0000   1.0000   1.0000   1.0000   1.0000   1.0000   1.0000
     1.0000   1.0000   1.0000   1.0000   0.0000   0.0000   0.0000   0.0000

          k = 0.0000 0.3445-0.5509 (  3635 PWs)   bands (ev):

   -44.4835 -44.4807 -38.3976 -38.3949 -38.3863 -38.3830 -22.8456 -22.8262
   -22.7626 -22.7181 -22.6342 -22.6033 -17.9075 -17.6684 -17.5960 -17.5416
   -17.2575 -17.1856 -16.9765 -16.9723 -16.9323 -16.8890 -16.8021 -16.7124
    -0.8279  -0.6899  -0.6266  -0.5033  -0.4111  -0.3858  -0.1807  -0.0107
     0.1294   0.2465   0.3311   0.4849   0.5307   0.6011   0.6092   0.8652
     0.9065   0.9908   1.0536   1.2183   1.3105   1.3334   1.4281   1.5134
     1.6493   1.7432   1.8800   1.9211   2.0255   2.1044   2.1782   2.3283
     2.3854   2.4366   2.5055   2.5273   8.3330   8.4495   8.9198   9.0693

     occupation numbers 
     1.0000   1.0000   1.0000   1.0000   1.0000   1.0000   1.0000   1.0000
     1.0000   1.0000   1.0000   1.0000   1.0000   1.0000   1.0000   1.0000
     1.0000   1.0000   1.0000   1.0000   1.0000   1.0000   1.0000   1.0000
     1.0000   1.0000   1.0000   1.0000   1.0000   1.0000   1.0000   1.0000
     1.0000   1.0000   1.0000   1.0000   1.0000   1.0000   1.0000   1.0000
     1.0000   1.0000   1.0000   1.0000   1.0000   1.0000   1.0000   1.0000
     1.0000   1.0000   1.0000   1.0000   1.0000   1.0000   1.0000   1.0000
     1.0000   1.0000   1.0000   1.0000   0.0000   0.0000   0.0000   0.0000

          k = 0.3333-0.0871-0.0936 (  3628 PWs)   bands (ev):

   -44.4850 -44.4792 -38.4012 -38.3966 -38.3836 -38.3799 -22.8441 -22.8203
   -22.7578 -22.6906 -22.6616 -22.6032 -18.0944 -17.5755 -17.5526 -17.5039
   -17.3243 -17.1955 -17.0010 -16.9834 -16.9251 -16.8671 -16.7226 -16.6884
    -0.9660  -0.9010  -0.8386  -0.6884  -0.5173  -0.4571  -0.1960  -0.0543
     0.0979   0.1353   0.3328   0.4218   0.4965   0.5938   0.7980   0.8669
     0.9202   0.9994   1.1135   1.2805   1.4330   1.5894   1.6527   1.7290
     1.8054   1.8331   1.9052   1.9707   2.0543   2.1147   2.1856   2.2348
     2.4445   2.4904   2.5410   2.5854   8.2619   8.5516   8.9377   9.3117

     occupation numbers 
     1.0000   1.0000   1.0000   1.0000   1.0000   1.0000   1.0000   1.0000
     1.0000   1.0000   1.0000   1.0000   1.0000   1.0000   1.0000   1.0000
     1.0000   1.0000   1.0000   1.0000   1.0000   1.0000   1.0000   1.0000
     1.0000   1.0000   1.0000   1.0000   1.0000   1.0000   1.0000   1.0000
     1.0000   1.0000   1.0000   1.0000   1.0000   1.0000   1.0000   1.0000
     1.0000   1.0000   1.0000   1.0000   1.0000   1.0000   1.0000   1.0000
     1.0000   1.0000   1.0000   1.0000   1.0000   1.0000   1.0000   1.0000
     1.0000   1.0000   1.0000   1.0000   0.0000   0.0000   0.0000   0.0000

          k = 0.3333-0.0871 0.3636 (  3635 PWs)   bands (ev):

   -44.4836 -44.4806 -38.3976 -38.3949 -38.3859 -38.3832 -22.8441 -22.8245
   -22.7604 -22.7233 -22.6333 -22.6029 -17.9513 -17.6561 -17.6109 -17.5380
   -17.2465 -17.1871 -16.9978 -16.9503 -16.9037 -16.8814 -16.7881 -16.7244
    -0.8777  -0.7552  -0.6717  -0.5560  -0.5269  -0.4230  -0.2476  -0.0172
     0.1633   0.2805   0.3753   0.4813   0.6259   0.6474   0.7115   0.8204
     0.8953   1.0525   1.0932   1.1472   1.3836   1.4090   1.4709   1.5650
     1.6333   1.7547   1.8360   1.9382   2.0370   2.1336   2.2199   2.2940
     2.3883   2.4051   2.4505   2.5705   8.2843   8.4853   8.9648   9.0569

     occupation numbers 
     1.0000   1.0000   1.0000   1.0000   1.0000   1.0000   1.0000   1.0000
     1.0000   1.0000   1.0000   1.0000   1.0000   1.0000   1.0000   1.0000
     1.0000   1.0000   1.0000   1.0000   1.0000   1.0000   1.0000   1.0000
     1.0000   1.0000   1.0000   1.0000   1.0000   1.0000   1.0000   1.0000
     1.0000   1.0000   1.0000   1.0000   1.0000   1.0000   1.0000   1.0000
     1.0000   1.0000   1.0000   1.0000   1.0000   1.0000   1.0000   1.0000
     1.0000   1.0000   1.0000   1.0000   1.0000   1.0000   1.0000   1.0000
     1.0000   1.0000   1.0000   1.0000   0.0000   0.0000   0.0000   0.0000

          k = 0.3333-0.0871-0.5509 (  3635 PWs)   bands (ev):

   -44.4835 -44.4807 -38.3976 -38.3949 -38.3863 -38.3830 -22.8456 -22.8262
   -22.7626 -22.7181 -22.6342 -22.6033 -17.9075 -17.6684 -17.5961 -17.5415
   -17.2575 -17.1857 -16.9764 -16.9724 -16.9323 -16.8891 -16.8021 -16.7124
    -0.8279  -0.6899  -0.6266  -0.5033  -0.4112  -0.3858  -0.1807  -0.0107
     0.1295   0.2465   0.3310   0.4850   0.5308   0.6011   0.6092   0.8652
     0.9066   0.9907   1.0536   1.2183   1.3104   1.3334   1.4281   1.5134
     1.6493   1.7432   1.8800   1.9210   2.0257   2.1043   2.1782   2.3283
     2.3854   2.4366   2.5055   2.5272   8.3330   8.4495   8.9198   9.0693

     occupation numbers 
     1.0000   1.0000   1.0000   1.0000   1.0000   1.0000   1.0000   1.0000
     1.0000   1.0000   1.0000   1.0000   1.0000   1.0000   1.0000   1.0000
     1.0000   1.0000   1.0000   1.0000   1.0000   1.0000   1.0000   1.0000
     1.0000   1.0000   1.0000   1.0000   1.0000   1.0000   1.0000   1.0000
     1.0000   1.0000   1.0000   1.0000   1.0000   1.0000   1.0000   1.0000
     1.0000   1.0000   1.0000   1.0000   1.0000   1.0000   1.0000   1.0000
     1.0000   1.0000   1.0000   1.0000   1.0000   1.0000   1.0000   1.0000
     1.0000   1.0000   1.0000   1.0000   0.0000   0.0000   0.0000   0.0000

          k = 0.3333 0.2574-0.1873 (  3635 PWs)   bands (ev):

   -44.4850 -44.4793 -38.4028 -38.3928 -38.3878 -38.3783 -22.8451 -22.8269
   -22.7612 -22.6856 -22.6610 -22.6008 -18.0561 -17.5487 -17.5405 -17.4848
   -17.3579 -17.1773 -17.0124 -16.9699 -16.9573 -16.9255 -16.7115 -16.7002
    -0.9355  -0.7833  -0.7059  -0.5286  -0.5226  -0.3922  -0.1379  -0.1148
     0.1431   0.2680   0.3069   0.4214   0.4993   0.5266   0.5300   0.6812
     0.7973   0.9661   1.0109   1.2713   1.4072   1.4673   1.5543   1.5968
     1.7500   1.8747   1.8784   1.9588   2.0439   2.2579   2.2743   2.3297
     2.4535   2.5128   2.6110   2.6465   8.3523   8.5009   8.8824   9.2958

     occupation numbers 
     1.0000   1.0000   1.0000   1.0000   1.0000   1.0000   1.0000   1.0000
     1.0000   1.0000   1.0000   1.0000   1.0000   1.0000   1.0000   1.0000
     1.0000   1.0000   1.0000   1.0000   1.0000   1.0000   1.0000   1.0000
     1.0000   1.0000   1.0000   1.0000   1.0000   1.0000   1.0000   1.0000
     1.0000   1.0000   1.0000   1.0000   1.0000   1.0000   1.0000   1.0000
     1.0000   1.0000   1.0000   1.0000   1.0000   1.0000   1.0000   1.0000
     1.0000   1.0000   1.0000   1.0000   1.0000   1.0000   1.0000   1.0000
     1.0000   1.0000   1.0000   1.0000   0.0000   0.0000   0.0000   0.0000

          k = 0.3333 0.2574 0.2700 (  3627 PWs)   bands (ev):

   -44.4836 -44.4806 -38.3991 -38.3910 -38.3890 -38.3820 -22.8427 -22.8239
   -22.7623 -22.7247 -22.6334 -22.6018 -17.9500 -17.6626 -17.5815 -17.5554
   -17.2920 -17.1759 -16.9517 -16.9374 -16.9266 -16.8946 -16.7936 -16.7097
    -0.8189  -0.7688  -0.6943  -0.6290  -0.5664  -0.3862  -0.1696   0.0257
     0.0577   0.0996   0.3222   0.3674   0.6218   0.6639   0.7644   0.8708
     0.9000   1.0669   1.1028   1.1532   1.2051   1.4517   1.5175   1.5780
     1.8210   1.8289   1.8849   1.9084   2.0606   2.1404   2.2312   2.3100
     2.4094   2.4504   2.4630   2.6183   8.3050   8.4689   8.9457   9.0373

     occupation numbers 
     1.0000   1.0000   1.0000   1.0000   1.0000   1.0000   1.0000   1.0000
     1.0000   1.0000   1.0000   1.0000   1.0000   1.0000   1.0000   1.0000
     1.0000   1.0000   1.0000   1.0000   1.0000   1.0000   1.0000   1.0000
     1.0000   1.0000   1.0000   1.0000   1.0000   1.0000   1.0000   1.0000
     1.0000   1.0000   1.0000   1.0000   1.0000   1.0000   1.0000   1.0000
     1.0000   1.0000   1.0000   1.0000   1.0000   1.0000   1.0000   1.0000
     1.0000   1.0000   1.0000   1.0000   1.0000   1.0000   1.0000   1.0000
     1.0000   1.0000   1.0000   1.0000   0.0000   0.0000   0.0000   0.0000

          k = 0.3333 0.2574-0.6446 (  3620 PWs)   bands (ev):

   -44.4835 -44.4807 -38.3987 -38.3909 -38.3893 -38.3819 -22.8458 -22.8278
   -22.7671 -22.7132 -22.6354 -22.6026 -17.8679 -17.6771 -17.5817 -17.5261
   -17.2572 -17.2299 -16.9854 -16.9795 -16.9351 -16.9196 -16.7694 -16.7128
    -0.7198  -0.5775  -0.5146  -0.4451  -0.4345  -0.3611  -0.3401  -0.0342
     0.1877   0.2224   0.2483   0.3278   0.4638   0.6381   0.7371   0.7888
     0.9237   0.9882   1.0227   1.0484   1.0487   1.3416   1.4632   1.5659
     1.5935   1.8053   1.9748   1.9840   2.0627   2.1317   2.2385   2.3280
     2.3993   2.4435   2.5299   2.5921   8.3973   8.4198   8.8601   9.0540

     occupation numbers 
     1.0000   1.0000   1.0000   1.0000   1.0000   1.0000   1.0000   1.0000
     1.0000   1.0000   1.0000   1.0000   1.0000   1.0000   1.0000   1.0000
     1.0000   1.0000   1.0000   1.0000   1.0000   1.0000   1.0000   1.0000
     1.0000   1.0000   1.0000   1.0000   1.0000   1.0000   1.0000   1.0000
     1.0000   1.0000   1.0000   1.0000   1.0000   1.0000   1.0000   1.0000
     1.0000   1.0000   1.0000   1.0000   1.0000   1.0000   1.0000   1.0000
     1.0000   1.0000   1.0000   1.0000   1.0000   1.0000   1.0000   1.0000
     1.0000   1.0000   1.0000   1.0000   0.0000   0.0000   0.0000   0.0000

          k = 0.3333-0.4316 0.0000 (  3631 PWs)   bands (ev):

   -44.4850 -44.4793 -38.4009 -38.3967 -38.3839 -38.3798 -22.8451 -22.8260
   -22.7590 -22.6856 -22.6618 -22.6035 -18.0447 -17.5520 -17.5318 -17.4876
   -17.3693 -17.1883 -17.0436 -16.9931 -16.9450 -16.8754 -16.7202 -16.6902
    -0.8621  -0.8021  -0.7917  -0.5674  -0.4849  -0.4141  -0.1501  -0.1249
     0.0653   0.1237   0.2536   0.4012   0.5122   0.6088   0.7613   0.7967
     0.9214   0.9661   1.0126   1.3365   1.3636   1.4718   1.5698   1.6625
     1.7641   1.7899   1.8983   1.9287   2.0065   2.2169   2.2372   2.3649
     2.4381   2.5017   2.5340   2.5886   8.3056   8.5513   8.9002   9.2847

     occupation numbers 
     1.0000   1.0000   1.0000   1.0000   1.0000   1.0000   1.0000   1.0000
     1.0000   1.0000   1.0000   1.0000   1.0000   1.0000   1.0000   1.0000
     1.0000   1.0000   1.0000   1.0000   1.0000   1.0000   1.0000   1.0000
     1.0000   1.0000   1.0000   1.0000   1.0000   1.0000   1.0000   1.0000
     1.0000   1.0000   1.0000   1.0000   1.0000   1.0000   1.0000   1.0000
     1.0000   1.0000   1.0000   1.0000   1.0000   1.0000   1.0000   1.0000
     1.0000   1.0000   1.0000   1.0000   1.0000   1.0000   1.0000   1.0000
     1.0000   1.0000   1.0000   1.0000   0.0000   0.0000   0.0000   0.0000

          k = 0.3333-0.4316 0.4573 (  3629 PWs)   bands (ev):

   -44.4835 -44.4807 -38.3977 -38.3945 -38.3862 -38.3830 -22.8449 -22.8260
   -22.7649 -22.7197 -22.6329 -22.6019 -17.9085 -17.6737 -17.5912 -17.5394
   -17.2724 -17.1954 -16.9814 -16.9503 -16.9225 -16.9016 -16.7644 -16.7360
    -0.8306  -0.7343  -0.6032  -0.5414  -0.5142  -0.3827  -0.2148  -0.0980
     0.0869   0.1927   0.3638   0.4491   0.5965   0.6477   0.7163   0.9084
     0.9464   0.9945   1.0704   1.1219   1.2210   1.4644   1.5223   1.5959
     1.7230   1.7856   1.8493   1.9118   2.0454   2.0586   2.1590   2.2945
     2.4134   2.4208   2.5004   2.5763   8.3426   8.4545   8.9191   9.0514

     occupation numbers 
     1.0000   1.0000   1.0000   1.0000   1.0000   1.0000   1.0000   1.0000
     1.0000   1.0000   1.0000   1.0000   1.0000   1.0000   1.0000   1.0000
     1.0000   1.0000   1.0000   1.0000   1.0000   1.0000   1.0000   1.0000
     1.0000   1.0000   1.0000   1.0000   1.0000   1.0000   1.0000   1.0000
     1.0000   1.0000   1.0000   1.0000   1.0000   1.0000   1.0000   1.0000
     1.0000   1.0000   1.0000   1.0000   1.0000   1.0000   1.0000   1.0000
     1.0000   1.0000   1.0000   1.0000   1.0000   1.0000   1.0000   1.0000
     1.0000   1.0000   1.0000   1.0000   0.0000   0.0000   0.0000   0.0000

          k = 0.3333-0.4316-0.4573 (  3629 PWs)   bands (ev):

   -44.4835 -44.4807 -38.3977 -38.3945 -38.3862 -38.3830 -22.8449 -22.8260
   -22.7649 -22.7197 -22.6329 -22.6019 -17.9085 -17.6737 -17.5910 -17.5396
   -17.2724 -17.1954 -16.9815 -16.9503 -16.9224 -16.9015 -16.7644 -16.7360
    -0.8305  -0.7342  -0.6032  -0.5414  -0.5142  -0.3828  -0.2149  -0.0981
     0.0869   0.1927   0.3637   0.4491   0.5965   0.6478   0.7163   0.9083
     0.9464   0.9945   1.0704   1.1220   1.2210   1.4644   1.5223   1.5959
     1.7230   1.7856   1.8493   1.9119   2.0454   2.0586   2.1590   2.2945
     2.4134   2.4208   2.5004   2.5762   8.3425   8.4545   8.9191   9.0514

     occupation numbers 
     1.0000   1.0000   1.0000   1.0000   1.0000   1.0000   1.0000   1.0000
     1.0000   1.0000   1.0000   1.0000   1.0000   1.0000   1.0000   1.0000
     1.0000   1.0000   1.0000   1.0000   1.0000   1.0000   1.0000   1.0000
     1.0000   1.0000   1.0000   1.0000   1.0000   1.0000   1.0000   1.0000
     1.0000   1.0000   1.0000   1.0000   1.0000   1.0000   1.0000   1.0000
     1.0000   1.0000   1.0000   1.0000   1.0000   1.0000   1.0000   1.0000
     1.0000   1.0000   1.0000   1.0000   1.0000   1.0000   1.0000   1.0000
     1.0000   1.0000   1.0000   1.0000   0.0000   0.0000   0.0000   0.0000

     highest occupied, lowest unoccupied level (ev):     2.6837    8.2411

!    total energy              =    -841.96534334 Ry
     estimated scf accuracy    <       0.00000008 Ry

     The total energy is the sum of the following terms:
     one-electron contribution =    -363.39678079 Ry
     hartree contribution      =     239.69451581 Ry
     xc contribution           =    -162.08215625 Ry
     ewald contribution        =    -556.18092210 Ry

     convergence has been achieved in   9 iterations

     Writing all to output data dir calculations_bands_val/myprefix.save/
 
     init_run     :      4.31s CPU      1.64s WALL (       1 calls)
     electrons    :     45.01s CPU     11.79s WALL (       1 calls)

     Called by init_run:
     wfcinit      :      1.49s CPU      0.39s WALL (       1 calls)
     wfcinit:atom :      0.01s CPU      0.00s WALL (       7 calls)
     wfcinit:wfcr :      1.36s CPU      0.36s WALL (       7 calls)
     potinit      :      1.05s CPU      0.28s WALL (       1 calls)
     hinit0       :      1.62s CPU      0.91s WALL (       1 calls)

     Called by electrons:
     c_bands      :     36.94s CPU      9.59s WALL (       9 calls)
     sum_band     :      5.98s CPU      1.61s WALL (       9 calls)
     v_of_rho     :      0.68s CPU      0.18s WALL (      10 calls)
     v_h          :      0.05s CPU      0.01s WALL (      10 calls)
     v_xc         :      0.63s CPU      0.17s WALL (      10 calls)
     newd         :      1.14s CPU      0.33s WALL (      10 calls)
     mix_rho      :      0.15s CPU      0.04s WALL (       9 calls)

     Called by c_bands:
     init_us_2    :      0.14s CPU      0.04s WALL (     133 calls)
     init_us_2:cp :      0.14s CPU      0.04s WALL (     133 calls)
     cegterg      :     32.27s CPU      8.37s WALL (      63 calls)

     Called by sum_band:
     sum_band:wei :      0.02s CPU      0.00s WALL (       9 calls)
     sum_band:loo :      4.13s CPU      1.07s WALL (       9 calls)
     sum_band:buf :      0.05s CPU      0.01s WALL (      63 calls)
     sum_band:ini :      0.06s CPU      0.01s WALL (      63 calls)
     sum_band:cal :      0.19s CPU      0.05s WALL (      63 calls)
     sum_band:bec :      0.03s CPU      0.01s WALL (      63 calls)
     addusdens    :      0.89s CPU      0.29s WALL (       9 calls)
     addusd:skk   :      0.01s CPU      0.00s WALL (      27 calls)
     addusd:dgemm :      0.14s CPU      0.10s WALL (      27 calls)
     addusd:qvan2 :      0.43s CPU      0.11s WALL (      27 calls)

     Called by *egterg:
     cdiaghg      :      5.83s CPU      1.52s WALL (     332 calls)
     cegterg:over :      1.92s CPU      0.50s WALL (     269 calls)
     cegterg:upda :      0.65s CPU      0.17s WALL (     269 calls)
     cegterg:last :      0.95s CPU      0.25s WALL (     141 calls)
     cdiaghg:chol :      0.43s CPU      0.11s WALL (     332 calls)
     cdiaghg:inve :      0.08s CPU      0.02s WALL (     332 calls)
     cdiaghg:para :      1.02s CPU      0.27s WALL (     664 calls)
     h_psi        :     22.96s CPU      5.95s WALL (     339 calls)
     s_psi        :      0.37s CPU      0.09s WALL (     339 calls)
     g_psi        :      0.03s CPU      0.01s WALL (     269 calls)

     Called by h_psi:
     h_psi:calbec :      0.96s CPU      0.25s WALL (     339 calls)
     vloc_psi     :     21.48s CPU      5.56s WALL (     339 calls)
     add_vuspsi   :      0.46s CPU      0.12s WALL (     339 calls)

     General routines
     calbec       :      1.15s CPU      0.30s WALL (     402 calls)
     fft          :      1.11s CPU      0.37s WALL (     128 calls)
     ffts         :      0.59s CPU      0.15s WALL (      19 calls)
     fftw         :     23.01s CPU      5.97s WALL (   27316 calls)
     interpolate  :      0.59s CPU      0.16s WALL (      10 calls)
 
     Parallel routines
 
     PWSCF        :     50.90s CPU     14.13s WALL

 
   This run was terminated on:  11:11:13   4Jun2023            

=------------------------------------------------------------------------------=
   JOB DONE.
=------------------------------------------------------------------------------=
