
     Program PWSCF v.7.0 starts on  4Jun2023 at 14:58:45 

     This program is part of the open-source Quantum ESPRESSO suite
     for quantum simulation of materials; please cite
         "P. Giannozzi et al., J. Phys.:Condens. Matter 21 395502 (2009);
         "P. Giannozzi et al., J. Phys.:Condens. Matter 29 465901 (2017);
         "P. Giannozzi et al., J. Chem. Phys. 152 154105 (2020);
          URL http://www.quantum-espresso.org", 
     in publications or presentations arising from this work. More details at
     http://www.quantum-espresso.org/quote

     Parallel version (MPI & OpenMP), running on      32 processor cores
     Number of MPI processes:                 8
     Threads/MPI process:                     4

     MPI processes distributed on     1 nodes
     K-points division:     npool     =       2
     R & G space division:  proc/nbgrp/npool/nimage =       4
     143102 MiB available memory on the printing compute node when the environment starts
 
     Reading input from espresso_835.pwi
Warning: card &CELL ignored
Warning: card / ignored

     Current dimensions of program PWSCF are:
     Max number of different atomic species (ntypx) = 10
     Max number of k-points (npk) =  40000
     Max angular momentum in pseudopotentials (lmaxx) =  4
     Message from routine setup:
     using ibrav=0 with symmetry is DISCOURAGED, use correct ibrav instead

     Subspace diagonalization in iterative solution of the eigenvalue problem:
     one sub-group per band group will be used
     scalapack distributed-memory algorithm (size of sub-group:  2*  2 procs)

 
     Parallelization info
     --------------------
     sticks:   dense  smooth     PW     G-vecs:    dense   smooth      PW
     Min         162      78     27                14508     5086     905
     Max         163      79     28                14529     5111     910
     Sum         649     313    109                58057    20375    3629
 
     Using Slab Decomposition
 


     bravais-lattice index     =            0
     lattice parameter (alat)  =       6.2904  a.u.
     unit-cell volume          =     924.2483 (a.u.)^3
     number of atoms/cell      =            6
     number of atomic types    =            2
     number of electrons       =        52.00
     number of Kohn-Sham states=           64
     kinetic-energy cutoff     =      30.0000  Ry
     charge density cutoff     =     240.0000  Ry
     scf convergence threshold =      1.0E-06
     mixing beta               =       0.7000
     number of iterations used =            8  plain     mixing
     Exchange-correlation= SLA  PW   PBE  PBE
                           (   1   4   3   4   0   0   0)

     celldm(1)=   6.290399  celldm(2)=   0.000000  celldm(3)=   0.000000
     celldm(4)=   0.000000  celldm(5)=   0.000000  celldm(6)=   0.000000

     crystal axes: (cart. coord. in units of alat)
               a(1) = (   1.000000   0.000000   0.000000 )  
               a(2) = (  -0.500000   0.866025   0.000000 )  
               a(3) = (   0.000000   0.000000   4.287690 )  

     reciprocal axes: (cart. coord. in units 2 pi/alat)
               b(1) = (  1.000000  0.577350  0.000000 )  
               b(2) = (  0.000000  1.154701  0.000000 )  
               b(3) = (  0.000000  0.000000  0.233226 )  


     PseudoPot. # 1 for Mo read from file:
     /home/pragov/projects/rrg-bengioy-ad/pragov/crystal_structure_design/SSSP/Mo_ONCV_PBE-1.0.oncvpsp.upf
     MD5 check sum: 1b5d28e075c9ccadda658a603575cd1f
     Pseudo is Norm-conserving, Zval = 14.0
     Generated using ONCVPSP code by D. R. Hamann
     Using radial grid of 1526 points,  6 beta functions with: 
                l(1) =   0
                l(2) =   0
                l(3) =   1
                l(4) =   1
                l(5) =   2
                l(6) =   2

     PseudoPot. # 2 for Se read from file:
     /home/pragov/projects/rrg-bengioy-ad/pragov/crystal_structure_design/SSSP/Se_pbe_v1.uspp.F.UPF
     MD5 check sum: 1b3568f3a8ae88f9a2a0ad0698632c85
     Pseudo is Ultrasoft + core correction, Zval =  6.0
     Generated by new atomic code, or converted to UPF format
     Using radial grid of  877 points,  6 beta functions with: 
                l(1) =   0
                l(2) =   0
                l(3) =   1
                l(4) =   1
                l(5) =   2
                l(6) =   2
     Q(r) pseudized with  8 coefficients,  rinner =    1.300   1.300   1.300
                                                       1.300   1.300

     atomic species   valence    mass     pseudopotential
        Mo            14.00    95.95000     Mo( 1.00)
        Se             6.00    78.97100     Se( 1.00)

     24 Sym. Ops., with inversion, found (12 have fractional translation)


                                    s                        frac. trans.

      isym =  1     identity                                     

 cryst.   s( 1) = (     1          0          0      )
                  (     0          1          0      )
                  (     0          0          1      )

 cart.    s( 1) = (  1.0000000 -0.0000000  0.0000000 )
                  (  0.0000000  1.0000000  0.0000000 )
                  (  0.0000000  0.0000000  1.0000000 )


      isym =  2     180 deg rotation - cart. axis [0,0,1]        

 cryst.   s( 2) = (    -1          0          0      )    f =(  0.0000000 )
                  (     0         -1          0      )       (  0.0000000 )
                  (     0          0          1      )       ( -0.5000000 )

 cart.    s( 2) = ( -1.0000000  0.0000000  0.0000000 )    f =(  0.0000000 )
                  (  0.0000000 -1.0000000  0.0000000 )       (  0.0000000 )
                  (  0.0000000  0.0000000  1.0000000 )       ( -2.1438448 )


      isym =  3     180 deg rotation - cart. axis [0,1,0]        

 cryst.   s( 3) = (    -1          0          0      )    f =(  0.0000000 )
                  (     1          1          0      )       (  0.0000000 )
                  (     0          0         -1      )       (  0.5000000 )

 cart.    s( 3) = ( -1.0000000 -0.0000000  0.0000000 )    f =(  0.0000000 )
                  (  0.0000000  1.0000000  0.0000000 )       (  0.0000000 )
                  (  0.0000000  0.0000000 -1.0000000 )       (  2.1438448 )


      isym =  4     180 deg rotation - cart. axis [1,0,0]        

 cryst.   s( 4) = (     1          0          0      )
                  (    -1         -1          0      )
                  (     0          0         -1      )

 cart.    s( 4) = (  1.0000000  0.0000000  0.0000000 )
                  (  0.0000000 -1.0000000  0.0000000 )
                  (  0.0000000  0.0000000 -1.0000000 )


      isym =  5      60 deg rotation - cryst. axis [0,0,1]       

 cryst.   s( 5) = (     1          1          0      )    f =(  0.0000000 )
                  (    -1          0          0      )       (  0.0000000 )
                  (     0          0          1      )       ( -0.5000000 )

 cart.    s( 5) = (  0.5000000 -0.8660254  0.0000000 )    f =(  0.0000000 )
                  (  0.8660254  0.5000000  0.0000000 )       (  0.0000000 )
                  (  0.0000000  0.0000000  1.0000000 )       ( -2.1438448 )


      isym =  6      60 deg rotation - cryst. axis [0,0,-1]      

 cryst.   s( 6) = (     0         -1          0      )    f =(  0.0000000 )
                  (     1          1          0      )       (  0.0000000 )
                  (     0          0          1      )       ( -0.5000000 )

 cart.    s( 6) = (  0.5000000  0.8660254  0.0000000 )    f =(  0.0000000 )
                  ( -0.8660254  0.5000000  0.0000000 )       (  0.0000000 )
                  (  0.0000000  0.0000000  1.0000000 )       ( -2.1438448 )


      isym =  7     120 deg rotation - cryst. axis [0,0,1]       

 cryst.   s( 7) = (     0          1          0      )
                  (    -1         -1          0      )
                  (     0          0          1      )

 cart.    s( 7) = ( -0.5000000 -0.8660254  0.0000000 )
                  (  0.8660254 -0.5000000  0.0000000 )
                  (  0.0000000  0.0000000  1.0000000 )


      isym =  8     120 deg rotation - cryst. axis [0,0,-1]      

 cryst.   s( 8) = (    -1         -1          0      )
                  (     1          0          0      )
                  (     0          0          1      )

 cart.    s( 8) = ( -0.5000000  0.8660254  0.0000000 )
                  ( -0.8660254 -0.5000000  0.0000000 )
                  (  0.0000000  0.0000000  1.0000000 )


      isym =  9     180 deg rotation - cryst. axis [1,-1,0]      

 cryst.   s( 9) = (     0         -1          0      )    f =(  0.0000000 )
                  (    -1          0          0      )       (  0.0000000 )
                  (     0          0         -1      )       (  0.5000000 )

 cart.    s( 9) = (  0.5000000 -0.8660254  0.0000000 )    f =(  0.0000000 )
                  ( -0.8660254 -0.5000000  0.0000000 )       (  0.0000000 )
                  (  0.0000000  0.0000000 -1.0000000 )       (  2.1438448 )


      isym = 10     180 deg rotation - cryst. axis [2,1,0]       

 cryst.   s(10) = (     1          1          0      )    f =(  0.0000000 )
                  (     0         -1          0      )       (  0.0000000 )
                  (     0          0         -1      )       (  0.5000000 )

 cart.    s(10) = (  0.5000000  0.8660254  0.0000000 )    f =(  0.0000000 )
                  (  0.8660254 -0.5000000  0.0000000 )       (  0.0000000 )
                  (  0.0000000  0.0000000 -1.0000000 )       (  2.1438448 )


      isym = 11     180 deg rotation - cryst. axis [0,1,0]       

 cryst.   s(11) = (    -1         -1          0      )
                  (     0          1          0      )
                  (     0          0         -1      )

 cart.    s(11) = ( -0.5000000 -0.8660254  0.0000000 )
                  ( -0.8660254  0.5000000  0.0000000 )
                  (  0.0000000  0.0000000 -1.0000000 )


      isym = 12     180 deg rotation - cryst. axis [1,1,0]       

 cryst.   s(12) = (     0          1          0      )
                  (     1          0          0      )
                  (     0          0         -1      )

 cart.    s(12) = ( -0.5000000  0.8660254  0.0000000 )
                  (  0.8660254  0.5000000  0.0000000 )
                  (  0.0000000  0.0000000 -1.0000000 )


      isym = 13     inversion                                    

 cryst.   s(13) = (    -1          0          0      )
                  (     0         -1          0      )
                  (     0          0         -1      )

 cart.    s(13) = ( -1.0000000  0.0000000  0.0000000 )
                  (  0.0000000 -1.0000000  0.0000000 )
                  (  0.0000000  0.0000000 -1.0000000 )


      isym = 14     inv. 180 deg rotation - cart. axis [0,0,1]   

 cryst.   s(14) = (     1          0          0      )    f =(  0.0000000 )
                  (     0          1          0      )       (  0.0000000 )
                  (     0          0         -1      )       (  0.5000000 )

 cart.    s(14) = (  1.0000000 -0.0000000  0.0000000 )    f =(  0.0000000 )
                  (  0.0000000  1.0000000  0.0000000 )       (  0.0000000 )
                  (  0.0000000  0.0000000 -1.0000000 )       (  2.1438448 )


      isym = 15     inv. 180 deg rotation - cart. axis [0,1,0]   

 cryst.   s(15) = (     1          0          0      )    f =(  0.0000000 )
                  (    -1         -1          0      )       (  0.0000000 )
                  (     0          0          1      )       ( -0.5000000 )

 cart.    s(15) = (  1.0000000  0.0000000  0.0000000 )    f =(  0.0000000 )
                  (  0.0000000 -1.0000000  0.0000000 )       (  0.0000000 )
                  (  0.0000000  0.0000000  1.0000000 )       ( -2.1438448 )


      isym = 16     inv. 180 deg rotation - cart. axis [1,0,0]   

 cryst.   s(16) = (    -1          0          0      )
                  (     1          1          0      )
                  (     0          0          1      )

 cart.    s(16) = ( -1.0000000 -0.0000000  0.0000000 )
                  (  0.0000000  1.0000000  0.0000000 )
                  (  0.0000000  0.0000000  1.0000000 )


      isym = 17     inv.  60 deg rotation - cryst. axis [0,0,1]  

 cryst.   s(17) = (    -1         -1          0      )    f =(  0.0000000 )
                  (     1          0          0      )       (  0.0000000 )
                  (     0          0         -1      )       (  0.5000000 )

 cart.    s(17) = ( -0.5000000  0.8660254  0.0000000 )    f =(  0.0000000 )
                  ( -0.8660254 -0.5000000  0.0000000 )       (  0.0000000 )
                  (  0.0000000  0.0000000 -1.0000000 )       (  2.1438448 )


      isym = 18     inv.  60 deg rotation - cryst. axis [0,0,-1] 

 cryst.   s(18) = (     0          1          0      )    f =(  0.0000000 )
                  (    -1         -1          0      )       (  0.0000000 )
                  (     0          0         -1      )       (  0.5000000 )

 cart.    s(18) = ( -0.5000000 -0.8660254  0.0000000 )    f =(  0.0000000 )
                  (  0.8660254 -0.5000000  0.0000000 )       (  0.0000000 )
                  (  0.0000000  0.0000000 -1.0000000 )       (  2.1438448 )


      isym = 19     inv. 120 deg rotation - cryst. axis [0,0,1]  

 cryst.   s(19) = (     0         -1          0      )
                  (     1          1          0      )
                  (     0          0         -1      )

 cart.    s(19) = (  0.5000000  0.8660254  0.0000000 )
                  ( -0.8660254  0.5000000  0.0000000 )
                  (  0.0000000  0.0000000 -1.0000000 )


      isym = 20     inv. 120 deg rotation - cryst. axis [0,0,-1] 

 cryst.   s(20) = (     1          1          0      )
                  (    -1          0          0      )
                  (     0          0         -1      )

 cart.    s(20) = (  0.5000000 -0.8660254  0.0000000 )
                  (  0.8660254  0.5000000  0.0000000 )
                  (  0.0000000  0.0000000 -1.0000000 )


      isym = 21     inv. 180 deg rotation - cryst. axis [1,-1,0] 

 cryst.   s(21) = (     0          1          0      )    f =(  0.0000000 )
                  (     1          0          0      )       (  0.0000000 )
                  (     0          0          1      )       ( -0.5000000 )

 cart.    s(21) = ( -0.5000000  0.8660254  0.0000000 )    f =(  0.0000000 )
                  (  0.8660254  0.5000000  0.0000000 )       (  0.0000000 )
                  (  0.0000000  0.0000000  1.0000000 )       ( -2.1438448 )


      isym = 22     inv. 180 deg rotation - cryst. axis [2,1,0]  

 cryst.   s(22) = (    -1         -1          0      )    f =(  0.0000000 )
                  (     0          1          0      )       (  0.0000000 )
                  (     0          0          1      )       ( -0.5000000 )

 cart.    s(22) = ( -0.5000000 -0.8660254  0.0000000 )    f =(  0.0000000 )
                  ( -0.8660254  0.5000000  0.0000000 )       (  0.0000000 )
                  (  0.0000000  0.0000000  1.0000000 )       ( -2.1438448 )


      isym = 23     inv. 180 deg rotation - cryst. axis [0,1,0]  

 cryst.   s(23) = (     1          1          0      )
                  (     0         -1          0      )
                  (     0          0          1      )

 cart.    s(23) = (  0.5000000  0.8660254  0.0000000 )
                  (  0.8660254 -0.5000000  0.0000000 )
                  (  0.0000000  0.0000000  1.0000000 )


      isym = 24     inv. 180 deg rotation - cryst. axis [1,1,0]  

 cryst.   s(24) = (     0         -1          0      )
                  (    -1          0          0      )
                  (     0          0          1      )

 cart.    s(24) = (  0.5000000 -0.8660254  0.0000000 )
                  ( -0.8660254 -0.5000000  0.0000000 )
                  (  0.0000000  0.0000000  1.0000000 )


   Cartesian axes

     site n.     atom                  positions (alat units)
         1           Mo  tau(   1) = (   0.0000000   0.0000000   1.0719224  )
         2           Mo  tau(   2) = (   0.0000000   0.0000000   3.2157672  )
         3           Se  tau(   3) = (  -0.0000005   0.5773506   1.5738994  )
         4           Se  tau(   4) = (   0.5000005   0.2886748   2.7137902  )
         5           Se  tau(   5) = (   0.5000005   0.2886748   3.7177442  )
         6           Se  tau(   6) = (  -0.0000005   0.5773506   0.5699454  )

   Crystallographic axes

     site n.     atom                  positions (cryst. coord.)
         1           Mo  tau(   1) = (  0.0000000  0.0000000  0.2500000  )
         2           Mo  tau(   2) = (  0.0000000  0.0000000  0.7500000  )
         3           Se  tau(   3) = (  0.3333330  0.6666670  0.3670740  )
         4           Se  tau(   4) = (  0.6666670  0.3333330  0.6329260  )
         5           Se  tau(   5) = (  0.6666670  0.3333330  0.8670740  )
         6           Se  tau(   6) = (  0.3333330  0.6666670  0.1329260  )

     number of k points=     6
                       cart. coord. in units 2pi/alat
        k(    1) = (   0.0000000   0.0000000   0.0000000), wk =   0.0740741
        k(    2) = (   0.0000000   0.0000000   0.0777419), wk =   0.1481481
        k(    3) = (   0.0000000   0.3849002   0.0000000), wk =   0.4444444
        k(    4) = (   0.0000000   0.3849002   0.0777419), wk =   0.8888889
        k(    5) = (   0.3333333   0.5773503   0.0000000), wk =   0.1481481
        k(    6) = (   0.3333333   0.5773503   0.0777419), wk =   0.2962963

                       cryst. coord.
        k(    1) = (   0.0000000   0.0000000   0.0000000), wk =   0.0740741
        k(    2) = (   0.0000000   0.0000000   0.3333333), wk =   0.1481481
        k(    3) = (   0.0000000   0.3333333   0.0000000), wk =   0.4444444
        k(    4) = (   0.0000000   0.3333333   0.3333333), wk =   0.8888889
        k(    5) = (   0.3333333   0.3333333   0.0000000), wk =   0.1481481
        k(    6) = (   0.3333333   0.3333333   0.3333333), wk =   0.2962963

     Dense  grid:    58057 G-vectors     FFT dimensions: (  32,  32, 144)

     Smooth grid:    20375 G-vectors     FFT dimensions: (  24,  24,  96)

     Dynamical RAM for                 wfc:       0.63 MB

     Dynamical RAM for     wfc (w. buffer):       2.50 MB

     Dynamical RAM for           str. fact:       0.44 MB

     Dynamical RAM for           local pot:       0.00 MB

     Dynamical RAM for          nlocal pot:       1.06 MB

     Dynamical RAM for                qrad:       2.49 MB

     Dynamical RAM for          rho,v,vnew:       1.51 MB

     Dynamical RAM for               rhoin:       0.50 MB

     Dynamical RAM for            rho*nmix:       3.54 MB

     Dynamical RAM for           G-vectors:       0.87 MB

     Dynamical RAM for          h,s,v(r/c):       0.19 MB

     Dynamical RAM for          <psi|beta>:       0.11 MB

     Dynamical RAM for                 psi:       1.25 MB

     Dynamical RAM for                hpsi:       1.25 MB

     Dynamical RAM for                spsi:       1.25 MB

     Dynamical RAM for      wfcinit/wfcrot:       1.35 MB

     Dynamical RAM for           addusdens:      21.14 MB

     Estimated static dynamical RAM per process >      11.44 MB

     Estimated max dynamical RAM per process >      36.13 MB

     Estimated total dynamical RAM >     274.85 MB

     Initial potential from superposition of free atoms

     starting charge      51.9977, renormalised to      52.0000
     Starting wfcs are   36 randomized atomic wfcs +   28 random wfcs

     total cpu time spent up to now is        1.5 secs

     Self-consistent Calculation

     iteration #  1     ecut=    30.00 Ry     beta= 0.70
     Davidson diagonalization with overlap

---- Real-time Memory Report at c_bands before calling an iterative solver
           180 MiB given to the printing process from OS
             0 MiB allocation reported by mallinfo(arena+hblkhd)
        142497 MiB available memory on the node where the printing process lives
------------------
     ethr =  1.00E-02,  avg # of iterations =  6.2

     total cpu time spent up to now is        1.9 secs

     total energy              =    -448.67204574 Ry
     estimated scf accuracy    <       0.52140861 Ry

     iteration #  2     ecut=    30.00 Ry     beta= 0.70
     Davidson diagonalization with overlap

---- Real-time Memory Report at c_bands before calling an iterative solver
           215 MiB given to the printing process from OS
             0 MiB allocation reported by mallinfo(arena+hblkhd)
        142412 MiB available memory on the node where the printing process lives
------------------
     ethr =  1.00E-03,  avg # of iterations =  2.2

     total cpu time spent up to now is        2.3 secs

     total energy              =    -448.29047878 Ry
     estimated scf accuracy    <       6.00271396 Ry

     iteration #  3     ecut=    30.00 Ry     beta= 0.70
     Davidson diagonalization with overlap

---- Real-time Memory Report at c_bands before calling an iterative solver
           218 MiB given to the printing process from OS
             0 MiB allocation reported by mallinfo(arena+hblkhd)
        142393 MiB available memory on the node where the printing process lives
------------------
     ethr =  1.00E-03,  avg # of iterations =  2.0

     total cpu time spent up to now is        2.6 secs

     total energy              =    -449.00018064 Ry
     estimated scf accuracy    <       0.01009779 Ry

     iteration #  4     ecut=    30.00 Ry     beta= 0.70
     Davidson diagonalization with overlap

---- Real-time Memory Report at c_bands before calling an iterative solver
           218 MiB given to the printing process from OS
             0 MiB allocation reported by mallinfo(arena+hblkhd)
        142387 MiB available memory on the node where the printing process lives
------------------
     ethr =  1.94E-05,  avg # of iterations =  2.7

     total cpu time spent up to now is        2.9 secs

     total energy              =    -449.00199794 Ry
     estimated scf accuracy    <       0.00181377 Ry

     iteration #  5     ecut=    30.00 Ry     beta= 0.70
     Davidson diagonalization with overlap

---- Real-time Memory Report at c_bands before calling an iterative solver
           218 MiB given to the printing process from OS
             0 MiB allocation reported by mallinfo(arena+hblkhd)
        142388 MiB available memory on the node where the printing process lives
------------------
     ethr =  3.49E-06,  avg # of iterations =  4.2

     total cpu time spent up to now is        3.2 secs

     total energy              =    -449.00244331 Ry
     estimated scf accuracy    <       0.00021083 Ry

     iteration #  6     ecut=    30.00 Ry     beta= 0.70
     Davidson diagonalization with overlap

---- Real-time Memory Report at c_bands before calling an iterative solver
           218 MiB given to the printing process from OS
             0 MiB allocation reported by mallinfo(arena+hblkhd)
        142393 MiB available memory on the node where the printing process lives
------------------
     ethr =  4.05E-07,  avg # of iterations =  4.0

     total cpu time spent up to now is        3.5 secs

     total energy              =    -449.00254825 Ry
     estimated scf accuracy    <       0.00000561 Ry

     iteration #  7     ecut=    30.00 Ry     beta= 0.70
     Davidson diagonalization with overlap

---- Real-time Memory Report at c_bands before calling an iterative solver
           219 MiB given to the printing process from OS
             0 MiB allocation reported by mallinfo(arena+hblkhd)
        142384 MiB available memory on the node where the printing process lives
------------------
     ethr =  1.08E-08,  avg # of iterations =  2.8

     total cpu time spent up to now is        3.8 secs

     total energy              =    -449.00254888 Ry
     estimated scf accuracy    <       0.00000106 Ry

     iteration #  8     ecut=    30.00 Ry     beta= 0.70
     Davidson diagonalization with overlap

---- Real-time Memory Report at c_bands before calling an iterative solver
           220 MiB given to the printing process from OS
             0 MiB allocation reported by mallinfo(arena+hblkhd)
        142376 MiB available memory on the node where the printing process lives
------------------
     ethr =  2.03E-09,  avg # of iterations =  2.0

     total cpu time spent up to now is        4.0 secs

     End of self-consistent calculation

          k = 0.0000 0.0000 0.0000 (  2627 PWs)   bands (ev):

   -52.3423 -52.3421 -26.5313 -26.5310 -26.2911 -26.2911 -26.2911 -26.2911
    -5.7786  -5.7001  -4.8283  -4.7073   2.8408   3.3228   5.9701   6.3583
     6.3583   6.3635   6.3635   7.2798   7.2798   7.2833   7.2834   7.3051
     7.9028   8.5484  11.1954  11.1954  11.2440  11.2440  11.4374  11.4375
    11.4726  11.4726  13.6135  14.3804  15.9853  16.2374  16.7169  17.0513
    19.2303  19.2303  19.2580  19.2580  19.6379  20.7868  21.0464  21.0464
    21.3857  21.5148  21.5148  22.6407  22.8924  23.6887  24.2064  24.2064
    24.5540  24.8585  24.8585  24.9445  24.9445  25.4627  25.7631  25.7631

     occupation numbers 
     1.0000   1.0000   1.0000   1.0000   1.0000   1.0000   1.0000   1.0000
     1.0000   1.0000   1.0000   1.0000   1.0000   1.0000   1.0000   1.0000
     1.0000   1.0000   1.0000   1.0000   1.0000   1.0000   1.0000   1.0000
     1.0000   1.0000   0.0000   0.0000   0.0000   0.0000   0.0000   0.0000
     0.0000   0.0000   0.0000   0.0000   0.0000   0.0000   0.0000   0.0000
     0.0000   0.0000   0.0000   0.0000   0.0000   0.0000   0.0000   0.0000
     0.0000   0.0000   0.0000   0.0000   0.0000   0.0000   0.0000   0.0000
     0.0000   0.0000   0.0000   0.0000   0.0000   0.0000   0.0000   0.0000

          k = 0.0000 0.0000 0.0777 (  2591 PWs)   bands (ev):

   -52.3421 -52.3419 -26.5312 -26.5310 -26.2908 -26.2908 -26.2908 -26.2908
    -5.7605  -5.7214  -4.7964  -4.7361   2.9440   3.1813   6.2474   6.3602
     6.3602   6.3627   6.3627   6.8550   7.2814   7.2814   7.2830   7.2831
     8.1957   8.4622  11.2065  11.2066  11.2305  11.2306  11.4483  11.4483
    11.4656  11.4656  13.8079  14.1949  16.0105  16.1275  16.7877  16.9460
    19.2351  19.2351  19.2491  19.2491  20.0164  20.5652  21.1547  21.1547
    21.3873  21.3873  21.7141  22.5163  22.7946  23.2614  24.3251  24.3251
    24.6441  24.6441  24.6710  25.1515  25.2014  25.2014  25.6244  25.6244

     occupation numbers 
     1.0000   1.0000   1.0000   1.0000   1.0000   1.0000   1.0000   1.0000
     1.0000   1.0000   1.0000   1.0000   1.0000   1.0000   1.0000   1.0000
     1.0000   1.0000   1.0000   1.0000   1.0000   1.0000   1.0000   1.0000
     1.0000   1.0000   0.0000   0.0000   0.0000   0.0000   0.0000   0.0000
     0.0000   0.0000   0.0000   0.0000   0.0000   0.0000   0.0000   0.0000
     0.0000   0.0000   0.0000   0.0000   0.0000   0.0000   0.0000   0.0000
     0.0000   0.0000   0.0000   0.0000   0.0000   0.0000   0.0000   0.0000
     0.0000   0.0000   0.0000   0.0000   0.0000   0.0000   0.0000   0.0000

          k = 0.0000 0.3849 0.0000 (  2562 PWs)   bands (ev):

   -52.3265 -52.3265 -26.4947 -26.4946 -26.4661 -26.4660 -26.3316 -26.3312
    -4.5909  -4.5328  -4.1605  -4.0890   3.5077   3.6308   4.3255   4.5268
     4.5323   4.6866   5.9870   6.0098   6.4655   7.0430   7.3755   7.4141
     7.4257   7.5741  10.1575  10.4231  10.4731  10.6402  11.1176  11.7408
    12.1622  12.2943  15.0449  15.2010  16.0130  16.0192  16.3207  16.8600
    17.3321  18.1542  18.3676  19.5515  20.0653  20.6170  20.7934  21.4582
    22.2867  22.4179  22.5724  23.2570  23.5701  23.9752  23.9985  24.0538
    24.2929  24.3846  25.7557  25.8827  26.1114  26.9772  27.3018  28.0825

     occupation numbers 
     1.0000   1.0000   1.0000   1.0000   1.0000   1.0000   1.0000   1.0000
     1.0000   1.0000   1.0000   1.0000   1.0000   1.0000   1.0000   1.0000
     1.0000   1.0000   1.0000   1.0000   1.0000   1.0000   1.0000   1.0000
     1.0000   1.0000   0.0000   0.0000   0.0000   0.0000   0.0000   0.0000
     0.0000   0.0000   0.0000   0.0000   0.0000   0.0000   0.0000   0.0000
     0.0000   0.0000   0.0000   0.0000   0.0000   0.0000   0.0000   0.0000
     0.0000   0.0000   0.0000   0.0000   0.0000   0.0000   0.0000   0.0000
     0.0000   0.0000   0.0000   0.0000   0.0000   0.0000   0.0000   0.0000

          k = 0.0000 0.3849 0.0777 (  2566 PWs)   bands (ev):

   -52.3266 -52.3265 -26.4947 -26.4946 -26.4661 -26.4659 -26.3315 -26.3314
    -4.5780  -4.5492  -4.1408  -4.1053   3.5394   3.6012   4.3485   4.4254
     4.6150   4.6702   5.9924   6.0036   6.5947   6.8723   7.3852   7.4047
     7.4907   7.5544  10.2440  10.4350  10.4602  10.4620  11.3315  11.6195
    12.1955  12.2613  15.2351  15.3482  15.6575  15.7994  16.4273  16.7094
    17.6337  18.0286  18.7405  19.3597  20.2049  20.5516  20.8185  21.3935
    21.8993  22.0674  22.7739  23.4327  23.5180  23.6102  24.2756  24.3689
    24.5634  24.7766  25.4813  26.0330  26.4458  26.4592  26.9003  27.6723

     occupation numbers 
     1.0000   1.0000   1.0000   1.0000   1.0000   1.0000   1.0000   1.0000
     1.0000   1.0000   1.0000   1.0000   1.0000   1.0000   1.0000   1.0000
     1.0000   1.0000   1.0000   1.0000   1.0000   1.0000   1.0000   1.0000
     1.0000   1.0000   0.0000   0.0000   0.0000   0.0000   0.0000   0.0000
     0.0000   0.0000   0.0000   0.0000   0.0000   0.0000   0.0000   0.0000
     0.0000   0.0000   0.0000   0.0000   0.0000   0.0000   0.0000   0.0000
     0.0000   0.0000   0.0000   0.0000   0.0000   0.0000   0.0000   0.0000
     0.0000   0.0000   0.0000   0.0000   0.0000   0.0000   0.0000   0.0000

          k = 0.3333 0.5774 0.0000 (  2580 PWs)   bands (ev):

   -52.3190 -52.3189 -26.4765 -26.4765 -26.4667 -26.4667 -26.4385 -26.4385
    -3.8031  -3.8031  -3.6972  -3.6972   3.4680   3.4680   3.8885   3.9806
     4.4836   4.4836   5.0619   5.0619   5.3874   5.5573   6.3011   6.3011
     8.5069   8.5069   9.8968   9.9128  10.9895  10.9895  11.4934  11.4934
    12.7622  12.7622  14.4899  14.9514  14.9514  16.1575  16.4512  18.4726
    18.4726  18.9943  18.9943  19.8473  20.4165  20.4165  20.4693  21.2067
    21.2067  21.3229  21.5535  21.7479  23.5242  23.5242  23.6533  24.5184
    24.5184  25.3221  25.3221  26.2736  26.9893  26.9893  27.9413  28.6440

     occupation numbers 
     1.0000   1.0000   1.0000   1.0000   1.0000   1.0000   1.0000   1.0000
     1.0000   1.0000   1.0000   1.0000   1.0000   1.0000   1.0000   1.0000
     1.0000   1.0000   1.0000   1.0000   1.0000   1.0000   1.0000   1.0000
     1.0000   1.0000   0.0000   0.0000   0.0000   0.0000   0.0000   0.0000
     0.0000   0.0000   0.0000   0.0000   0.0000   0.0000   0.0000   0.0000
     0.0000   0.0000   0.0000   0.0000   0.0000   0.0000   0.0000   0.0000
     0.0000   0.0000   0.0000   0.0000   0.0000   0.0000   0.0000   0.0000
     0.0000   0.0000   0.0000   0.0000   0.0000   0.0000   0.0000   0.0000

          k = 0.3333 0.5774 0.0777 (  2556 PWs)   bands (ev):

   -52.3188 -52.3188 -26.4764 -26.4763 -26.4666 -26.4666 -26.4384 -26.4384
    -3.8031  -3.8031  -3.6972  -3.6972   3.4671   3.4671   3.9101   3.9559
     4.4922   4.4922   5.0504   5.0504   5.4312   5.5160   6.3059   6.3059
     8.5100   8.5100   9.9018   9.9094  10.9395  10.9395  11.5719  11.5719
    12.7057  12.7057  14.7083  15.0304  15.0304  15.3317  17.5171  17.9991
    17.9991  18.8314  19.6469  19.6469  20.3521  20.3521  21.1354  21.1995
    21.1995  21.3585  21.4987  21.6251  22.8587  22.8587  24.1418  25.1785
    25.1785  25.3175  25.3573  25.3573  27.1021  27.1021  28.2498  28.2501

     occupation numbers 
     1.0000   1.0000   1.0000   1.0000   1.0000   1.0000   1.0000   1.0000
     1.0000   1.0000   1.0000   1.0000   1.0000   1.0000   1.0000   1.0000
     1.0000   1.0000   1.0000   1.0000   1.0000   1.0000   1.0000   1.0000
     1.0000   1.0000   0.0000   0.0000   0.0000   0.0000   0.0000   0.0000
     0.0000   0.0000   0.0000   0.0000   0.0000   0.0000   0.0000   0.0000
     0.0000   0.0000   0.0000   0.0000   0.0000   0.0000   0.0000   0.0000
     0.0000   0.0000   0.0000   0.0000   0.0000   0.0000   0.0000   0.0000
     0.0000   0.0000   0.0000   0.0000   0.0000   0.0000   0.0000   0.0000

     highest occupied, lowest unoccupied level (ev):     8.5484    9.8968

!    total energy              =    -449.00254905 Ry
     estimated scf accuracy    <       0.00000009 Ry

     The total energy is the sum of the following terms:
     one-electron contribution =    -241.70970263 Ry
     hartree contribution      =     139.11369532 Ry
     xc contribution           =    -150.16148913 Ry
     ewald contribution        =    -196.24505261 Ry

     convergence has been achieved in   8 iterations

     Writing all to output data dir calculations_bands_val/myprefix.save/
 
     init_run     :      3.42s CPU      1.32s WALL (       1 calls)
     electrons    :      9.90s CPU      2.63s WALL (       1 calls)

     Called by init_run:
     wfcinit      :      0.33s CPU      0.09s WALL (       1 calls)
     wfcinit:atom :      0.00s CPU      0.00s WALL (       3 calls)
     wfcinit:wfcr :      0.31s CPU      0.08s WALL (       3 calls)
     potinit      :      1.38s CPU      0.36s WALL (       1 calls)
     hinit0       :      1.43s CPU      0.62s WALL (       1 calls)

     Called by electrons:
     c_bands      :      7.25s CPU      1.89s WALL (       8 calls)
     sum_band     :      1.58s CPU      0.44s WALL (       8 calls)
     v_of_rho     :      0.37s CPU      0.10s WALL (       9 calls)
     v_h          :      0.03s CPU      0.01s WALL (       9 calls)
     v_xc         :      0.34s CPU      0.09s WALL (       9 calls)
     newd         :      0.53s CPU      0.15s WALL (       9 calls)
     mix_rho      :      0.07s CPU      0.02s WALL (       8 calls)

     Called by c_bands:
     init_us_2    :      0.04s CPU      0.01s WALL (      51 calls)
     init_us_2:cp :      0.04s CPU      0.01s WALL (      51 calls)
     cegterg      :      6.75s CPU      1.76s WALL (      24 calls)

     Called by sum_band:
     sum_band:wei :      0.01s CPU      0.00s WALL (       8 calls)
     sum_band:loo :      0.94s CPU      0.24s WALL (       8 calls)
     sum_band:buf :      0.01s CPU      0.00s WALL (      24 calls)
     sum_band:ini :      0.02s CPU      0.00s WALL (      24 calls)
     sum_band:cal :      0.04s CPU      0.01s WALL (      24 calls)
     sum_band:bec :      0.01s CPU      0.00s WALL (      24 calls)
     addusdens    :      0.42s CPU      0.14s WALL (       8 calls)
     addusd:skk   :      0.00s CPU      0.00s WALL (       8 calls)
     addusd:dgemm :      0.09s CPU      0.05s WALL (       8 calls)
     addusd:qvan2 :      0.27s CPU      0.07s WALL (       8 calls)

     Called by *egterg:
     cdiaghg      :      1.61s CPU      0.42s WALL (     108 calls)
     cegterg:over :      0.23s CPU      0.06s WALL (      84 calls)
     cegterg:upda :      0.14s CPU      0.04s WALL (      84 calls)
     cegterg:last :      0.23s CPU      0.06s WALL (      52 calls)
     cdiaghg:chol :      0.13s CPU      0.03s WALL (     108 calls)
     cdiaghg:inve :      0.02s CPU      0.01s WALL (     108 calls)
     cdiaghg:para :      0.25s CPU      0.07s WALL (     216 calls)
     h_psi        :      4.62s CPU      1.20s WALL (     111 calls)
     s_psi        :      0.07s CPU      0.02s WALL (     111 calls)
     g_psi        :      0.01s CPU      0.00s WALL (      84 calls)

     Called by h_psi:
     h_psi:calbec :      0.15s CPU      0.04s WALL (     111 calls)
     vloc_psi     :      4.34s CPU      1.12s WALL (     111 calls)
     add_vuspsi   :      0.11s CPU      0.03s WALL (     111 calls)

     General routines
     calbec       :      0.19s CPU      0.05s WALL (     135 calls)
     fft          :      1.14s CPU      0.41s WALL (     115 calls)
     ffts         :      1.17s CPU      0.31s WALL (      17 calls)
     fftw         :      4.35s CPU      1.13s WALL (    9612 calls)
     interpolate  :      1.18s CPU      0.31s WALL (       9 calls)
 
     Parallel routines
 
     PWSCF        :     14.14s CPU      4.31s WALL

 
   This run was terminated on:  14:58:49   4Jun2023            

=------------------------------------------------------------------------------=
   JOB DONE.
=------------------------------------------------------------------------------=
