
     Program PWSCF v.7.0 starts on  4Jun2023 at 12:49:50 

     This program is part of the open-source Quantum ESPRESSO suite
     for quantum simulation of materials; please cite
         "P. Giannozzi et al., J. Phys.:Condens. Matter 21 395502 (2009);
         "P. Giannozzi et al., J. Phys.:Condens. Matter 29 465901 (2017);
         "P. Giannozzi et al., J. Chem. Phys. 152 154105 (2020);
          URL http://www.quantum-espresso.org", 
     in publications or presentations arising from this work. More details at
     http://www.quantum-espresso.org/quote

     Parallel version (MPI & OpenMP), running on      32 processor cores
     Number of MPI processes:                 8
     Threads/MPI process:                     4

     MPI processes distributed on     1 nodes
     K-points division:     npool     =       2
     R & G space division:  proc/nbgrp/npool/nimage =       4
     142281 MiB available memory on the printing compute node when the environment starts
 
     Reading input from espresso_485.pwi
Warning: card &CELL ignored
Warning: card / ignored

     Current dimensions of program PWSCF are:
     Max number of different atomic species (ntypx) = 10
     Max number of k-points (npk) =  40000
     Max angular momentum in pseudopotentials (lmaxx) =  4
     file Ga.pbe-dn-kjpaw_psl.1.0.0.UPF: wavefunction(s)  4S renormalized
     Message from routine setup:
     using ibrav=0 with symmetry is DISCOURAGED, use correct ibrav instead

     Subspace diagonalization in iterative solution of the eigenvalue problem:
     one sub-group per band group will be used
     scalapack distributed-memory algorithm (size of sub-group:  2*  2 procs)

 
     Parallelization info
     --------------------
     sticks:   dense  smooth     PW     G-vecs:    dense   smooth      PW
     Min         357     180     50                25613     9056    1372
     Max         358     181     51                25622     9059    1377
     Sum        1429     721    203               102463    36231    5503
 
     Using Slab Decomposition
 


     bravais-lattice index     =            0
     lattice parameter (alat)  =       7.2400  a.u.
     unit-cell volume          =    1632.3203 (a.u.)^3
     number of atoms/cell      =           11
     number of atomic types    =            3
     number of electrons       =        98.00
     number of Kohn-Sham states=           64
     kinetic-energy cutoff     =      30.0000  Ry
     charge density cutoff     =     240.0000  Ry
     scf convergence threshold =      1.0E-06
     mixing beta               =       0.7000
     number of iterations used =            8  plain     mixing
     Exchange-correlation=  SLA  PW   PBX  PBC
                           (   1   4   3   4   0   0   0)

     celldm(1)=   7.240013  celldm(2)=   0.000000  celldm(3)=   0.000000
     celldm(4)=   0.000000  celldm(5)=   0.000000  celldm(6)=   0.000000

     crystal axes: (cart. coord. in units of alat)
               a(1) = (   1.000000   0.000000   0.000000 )  
               a(2) = (   0.000000   1.435845   0.000000 )  
               a(3) = (   0.000000   0.000000   2.995572 )  

     reciprocal axes: (cart. coord. in units 2 pi/alat)
               b(1) = (  1.000000  0.000000  0.000000 )  
               b(2) = (  0.000000  0.696454  0.000000 )  
               b(3) = (  0.000000  0.000000  0.333826 )  


     PseudoPot. # 1 for Ga read from file:
     /home/pragov/projects/rrg-bengioy-ad/pragov/crystal_structure_design/SSSP/Ga.pbe-dn-kjpaw_psl.1.0.0.UPF
     MD5 check sum: a27b4342b1af7e5f338de752e9ed7044
     Pseudo is Projector augmented-wave + core cor, Zval = 13.0
     Generated using "atomic" code by A. Dal Corso  v.5.1
     Shape of augmentation charge: PSQ
     Using radial grid of 1205 points,  6 beta functions with: 
                l(1) =   0
                l(2) =   0
                l(3) =   1
                l(4) =   1
                l(5) =   2
                l(6) =   2
     Q(r) pseudized with 0 coefficients 


     PseudoPot. # 2 for P  read from file:
     /home/pragov/projects/rrg-bengioy-ad/pragov/crystal_structure_design/SSSP/P.pbe-n-rrkjus_psl.1.0.0.UPF
     MD5 check sum: 8b930f418f0a4573dca56cd030ffe088
     Pseudo is Ultrasoft + core correction, Zval =  5.0
     Generated using "atomic" code by A. Dal Corso  v.5.1
     Using radial grid of 1147 points,  6 beta functions with: 
                l(1) =   0
                l(2) =   0
                l(3) =   1
                l(4) =   1
                l(5) =   2
                l(6) =   2
     Q(r) pseudized with 0 coefficients 


     PseudoPot. # 3 for S  read from file:
     /home/pragov/projects/rrg-bengioy-ad/pragov/crystal_structure_design/SSSP/s_pbe_v1.4.uspp.F.UPF
     MD5 check sum: 88d86576ff6df21479756cfb9bdac1df
     Pseudo is Ultrasoft + core correction, Zval =  6.0
     Generated by new atomic code, or converted to UPF format
     Using radial grid of  907 points,  6 beta functions with: 
                l(1) =   0
                l(2) =   0
                l(3) =   1
                l(4) =   1
                l(5) =   2
                l(6) =   2
     Q(r) pseudized with  8 coefficients,  rinner =    1.300   1.300   1.300
                                                       1.300   1.300

     atomic species   valence    mass     pseudopotential
        Ga            13.00    69.72300     Ga( 1.00)
        P              5.00    30.97376     P ( 1.00)
        S              6.00    32.06000     S ( 1.00)

      4 Sym. Ops. (no inversion) found


                                    s                        frac. trans.

      isym =  1     identity                                     

 cryst.   s( 1) = (     1          0          0      )
                  (     0          1          0      )
                  (     0          0          1      )

 cart.    s( 1) = (  1.0000000  0.0000000  0.0000000 )
                  (  0.0000000  1.0000000  0.0000000 )
                  (  0.0000000  0.0000000  1.0000000 )


      isym =  2     180 deg rotation - cart. axis [0,1,0]        

 cryst.   s( 2) = (    -1          0          0      )
                  (     0          1          0      )
                  (     0          0         -1      )

 cart.    s( 2) = ( -1.0000000  0.0000000  0.0000000 )
                  (  0.0000000  1.0000000  0.0000000 )
                  (  0.0000000  0.0000000 -1.0000000 )


      isym =  3     inv. 180 deg rotation - cart. axis [0,0,1]   

 cryst.   s( 3) = (     1          0          0      )
                  (     0          1          0      )
                  (     0          0         -1      )

 cart.    s( 3) = (  1.0000000  0.0000000  0.0000000 )
                  (  0.0000000  1.0000000  0.0000000 )
                  (  0.0000000  0.0000000 -1.0000000 )


      isym =  4     inv. 180 deg rotation - cart. axis [1,0,0]   

 cryst.   s( 4) = (    -1          0          0      )
                  (     0          1          0      )
                  (     0          0          1      )

 cart.    s( 4) = ( -1.0000000  0.0000000  0.0000000 )
                  (  0.0000000  1.0000000  0.0000000 )
                  (  0.0000000  0.0000000  1.0000000 )


   Cartesian axes

     site n.     atom                  positions (alat units)
         1           Ga  tau(   1) = (   0.0000000   0.0019025   2.5194382  )
         2           Ga  tau(   2) = (   0.0000000   0.0019025   0.4761343  )
         3           Ga  tau(   3) = (   0.0000000   0.0101227   1.4977862  )
         4           Ga  tau(   4) = (   0.5000000   0.7250843   0.9916663  )
         5           Ga  tau(   5) = (   0.5000000   0.7250843   2.0039062  )
         6           P   tau(   6) = (   0.0000000   0.3625795   0.9841534  )
         7           P   tau(   7) = (   0.5000000   1.0818271   1.4977862  )
         8           P   tau(   8) = (   0.0000000   0.3625795   2.0114191  )
         9           S   tau(   9) = (   0.5000000   1.0676783   2.5062098  )
        10           S   tau(  10) = (   0.0000000   0.3369353   0.0000000  )
        11           S   tau(  11) = (   0.5000000   1.0676783   0.4893627  )

   Crystallographic axes

     site n.     atom                  positions (cryst. coord.)
         1           Ga  tau(   1) = (  0.0000000  0.0013250  0.8410540  )
         2           Ga  tau(   2) = (  0.0000000  0.0013250  0.1589460  )
         3           Ga  tau(   3) = (  0.0000000  0.0070500  0.5000000  )
         4           Ga  tau(   4) = (  0.5000000  0.5049880  0.3310440  )
         5           Ga  tau(   5) = (  0.5000000  0.5049880  0.6689560  )
         6           P   tau(   6) = (  0.0000000  0.2525200  0.3285360  )
         7           P   tau(   7) = (  0.5000000  0.7534430  0.5000000  )
         8           P   tau(   8) = (  0.0000000  0.2525200  0.6714640  )
         9           S   tau(   9) = (  0.5000000  0.7435890  0.8366380  )
        10           S   tau(  10) = (  0.0000000  0.2346600  0.0000000  )
        11           S   tau(  11) = (  0.5000000  0.7435890  0.1633620  )

     number of k points=     8
                       cart. coord. in units 2pi/alat
        k(    1) = (   0.0000000   0.0000000   0.0000000), wk =   0.0740741
        k(    2) = (   0.0000000   0.0000000   0.1112753), wk =   0.1481481
        k(    3) = (   0.0000000   0.2321514   0.0000000), wk =   0.1481481
        k(    4) = (   0.0000000   0.2321514   0.1112753), wk =   0.2962963
        k(    5) = (   0.3333333   0.0000000   0.0000000), wk =   0.1481481
        k(    6) = (   0.3333333   0.0000000   0.1112753), wk =   0.2962963
        k(    7) = (   0.3333333   0.2321514   0.0000000), wk =   0.2962963
        k(    8) = (   0.3333333   0.2321514   0.1112753), wk =   0.5925926

                       cryst. coord.
        k(    1) = (   0.0000000   0.0000000   0.0000000), wk =   0.0740741
        k(    2) = (   0.0000000   0.0000000   0.3333333), wk =   0.1481481
        k(    3) = (   0.0000000   0.3333333   0.0000000), wk =   0.1481481
        k(    4) = (   0.0000000   0.3333333   0.3333333), wk =   0.2962963
        k(    5) = (   0.3333333   0.0000000   0.0000000), wk =   0.1481481
        k(    6) = (   0.3333333   0.0000000   0.3333333), wk =   0.2962963
        k(    7) = (   0.3333333   0.3333333   0.0000000), wk =   0.2962963
        k(    8) = (   0.3333333   0.3333333   0.3333333), wk =   0.5925926

     Dense  grid:   102463 G-vectors     FFT dimensions: (  36,  54, 108)

     Smooth grid:    36231 G-vectors     FFT dimensions: (  25,  40,  75)

     Dynamical RAM for                 wfc:       1.11 MB

     Dynamical RAM for     wfc (w. buffer):       5.53 MB

     Dynamical RAM for           str. fact:       1.17 MB

     Dynamical RAM for           local pot:       0.00 MB

     Dynamical RAM for          nlocal pot:       3.42 MB

     Dynamical RAM for                qrad:       3.73 MB

     Dynamical RAM for          rho,v,vnew:       2.37 MB

     Dynamical RAM for               rhoin:       0.79 MB

     Dynamical RAM for            rho*nmix:       6.25 MB

     Dynamical RAM for           G-vectors:       1.53 MB

     Dynamical RAM for          h,s,v(r/c):       0.19 MB

     Dynamical RAM for          <psi|beta>:       0.19 MB

     Dynamical RAM for                 psi:       2.21 MB

     Dynamical RAM for                hpsi:       2.21 MB

     Dynamical RAM for                spsi:       2.21 MB

     Dynamical RAM for      wfcinit/wfcrot:       2.49 MB

     Dynamical RAM for           addusdens:      37.52 MB

     Estimated static dynamical RAM per process >      22.12 MB

     Estimated max dynamical RAM per process >      65.89 MB

     Estimated total dynamical RAM >     502.12 MB

     Check: negative core charge=   -0.000002

     Initial potential from superposition of free atoms

     starting charge      97.9846, renormalised to      98.0000
     Starting wfcs are   69 randomized atomic wfcs
     Checking if some PAW data can be deallocated... 
       PAW data deallocated on    5 nodes for type:  1

     total cpu time spent up to now is        2.3 secs

     Self-consistent Calculation

     iteration #  1     ecut=    30.00 Ry     beta= 0.70
     Davidson diagonalization with overlap

---- Real-time Memory Report at c_bands before calling an iterative solver
           220 MiB given to the printing process from OS
             0 MiB allocation reported by mallinfo(arena+hblkhd)
        141441 MiB available memory on the node where the printing process lives
------------------
     ethr =  1.00E-02,  avg # of iterations =  4.2

     Threshold (ethr) on eigenvalues was too large:
     Diagonalizing with lowered threshold

     Davidson diagonalization with overlap

---- Real-time Memory Report at c_bands before calling an iterative solver
           277 MiB given to the printing process from OS
             0 MiB allocation reported by mallinfo(arena+hblkhd)
        140992 MiB available memory on the node where the printing process lives
------------------
     ethr =  4.88E-04,  avg # of iterations =  3.1

     total cpu time spent up to now is        3.8 secs

     total energy              =   -1504.04122011 Ry
     estimated scf accuracy    <       0.48054579 Ry

     iteration #  2     ecut=    30.00 Ry     beta= 0.70
     Davidson diagonalization with overlap

---- Real-time Memory Report at c_bands before calling an iterative solver
           284 MiB given to the printing process from OS
             0 MiB allocation reported by mallinfo(arena+hblkhd)
        140953 MiB available memory on the node where the printing process lives
------------------
     ethr =  4.90E-04,  avg # of iterations =  3.5

     total cpu time spent up to now is        4.7 secs

     total energy              =   -1504.10267500 Ry
     estimated scf accuracy    <       0.34687441 Ry

     iteration #  3     ecut=    30.00 Ry     beta= 0.70
     Davidson diagonalization with overlap

---- Real-time Memory Report at c_bands before calling an iterative solver
           293 MiB given to the printing process from OS
             0 MiB allocation reported by mallinfo(arena+hblkhd)
        140879 MiB available memory on the node where the printing process lives
------------------
     ethr =  3.54E-04,  avg # of iterations =  4.9

     total cpu time spent up to now is        5.6 secs

     total energy              =   -1504.16722057 Ry
     estimated scf accuracy    <       0.24566221 Ry

     iteration #  4     ecut=    30.00 Ry     beta= 0.70
     Davidson diagonalization with overlap

---- Real-time Memory Report at c_bands before calling an iterative solver
           294 MiB given to the printing process from OS
             0 MiB allocation reported by mallinfo(arena+hblkhd)
        140869 MiB available memory on the node where the printing process lives
------------------
     ethr =  2.51E-04,  avg # of iterations =  2.5

     total cpu time spent up to now is        6.3 secs

     total energy              =   -1504.20801839 Ry
     estimated scf accuracy    <       0.01140230 Ry

     iteration #  5     ecut=    30.00 Ry     beta= 0.70
     Davidson diagonalization with overlap

---- Real-time Memory Report at c_bands before calling an iterative solver
           294 MiB given to the printing process from OS
             0 MiB allocation reported by mallinfo(arena+hblkhd)
        140869 MiB available memory on the node where the printing process lives
------------------
     ethr =  1.16E-05,  avg # of iterations = 10.1

     total cpu time spent up to now is        7.4 secs

     total energy              =   -1504.21098607 Ry
     estimated scf accuracy    <       0.00282670 Ry

     iteration #  6     ecut=    30.00 Ry     beta= 0.70
     Davidson diagonalization with overlap

---- Real-time Memory Report at c_bands before calling an iterative solver
           298 MiB given to the printing process from OS
             0 MiB allocation reported by mallinfo(arena+hblkhd)
        140837 MiB available memory on the node where the printing process lives
------------------
     ethr =  2.88E-06,  avg # of iterations =  3.8

     total cpu time spent up to now is        8.2 secs

     total energy              =   -1504.21161389 Ry
     estimated scf accuracy    <       0.00016075 Ry

     iteration #  7     ecut=    30.00 Ry     beta= 0.70
     Davidson diagonalization with overlap

---- Real-time Memory Report at c_bands before calling an iterative solver
           299 MiB given to the printing process from OS
             0 MiB allocation reported by mallinfo(arena+hblkhd)
        140839 MiB available memory on the node where the printing process lives
------------------
     ethr =  1.64E-07,  avg # of iterations =  4.9

     total cpu time spent up to now is        9.1 secs

     total energy              =   -1504.21169280 Ry
     estimated scf accuracy    <       0.00003229 Ry

     iteration #  8     ecut=    30.00 Ry     beta= 0.70
     Davidson diagonalization with overlap

---- Real-time Memory Report at c_bands before calling an iterative solver
           299 MiB given to the printing process from OS
             0 MiB allocation reported by mallinfo(arena+hblkhd)
        140612 MiB available memory on the node where the printing process lives
------------------
     ethr =  3.29E-08,  avg # of iterations =  2.0

     total cpu time spent up to now is        9.9 secs

     total energy              =   -1504.21170131 Ry
     estimated scf accuracy    <       0.00000268 Ry

     iteration #  9     ecut=    30.00 Ry     beta= 0.70
     Davidson diagonalization with overlap

---- Real-time Memory Report at c_bands before calling an iterative solver
           299 MiB given to the printing process from OS
             0 MiB allocation reported by mallinfo(arena+hblkhd)
        140503 MiB available memory on the node where the printing process lives
------------------
     ethr =  2.74E-09,  avg # of iterations =  4.5

     total cpu time spent up to now is       10.8 secs

     End of self-consistent calculation

          k = 0.0000 0.0000 0.0000 (  4483 PWs)   bands (ev):

    -9.1287  -9.0756  -9.0676  -8.9753  -8.9668  -8.9387  -8.9362  -8.9203
    -8.9183  -8.9109  -8.8886  -8.8778  -8.8709  -8.8699  -8.8481  -8.8419
    -8.8321  -8.8283  -8.8274  -8.8198  -8.8180  -8.8094  -8.8073  -8.7670
    -8.7494  -7.4560  -7.0706  -5.9632  -5.5378  -4.6158  -3.8458  -0.9084
    -0.8722   0.6696   1.5965   1.7555   2.0523   3.0038   3.0252   3.2218
     3.3236   3.9174   3.9657   4.0256   5.0938   5.5953   5.6624   5.8444
     6.0263   7.2476   8.1088   8.2089   8.3547   8.8192   8.8909   9.9737
     9.9859  10.0387  10.6438  11.0077  11.5178  11.6206  11.8022  11.9335

     occupation numbers 
     1.0000   1.0000   1.0000   1.0000   1.0000   1.0000   1.0000   1.0000
     1.0000   1.0000   1.0000   1.0000   1.0000   1.0000   1.0000   1.0000
     1.0000   1.0000   1.0000   1.0000   1.0000   1.0000   1.0000   1.0000
     1.0000   1.0000   1.0000   1.0000   1.0000   1.0000   1.0000   1.0000
     1.0000   1.0000   1.0000   1.0000   1.0000   1.0000   1.0000   1.0000
     1.0000   1.0000   1.0000   1.0000   1.0000   1.0000   1.0000   1.0000
     1.0000   0.0000   0.0000   0.0000   0.0000   0.0000   0.0000   0.0000
     0.0000   0.0000   0.0000   0.0000   0.0000   0.0000   0.0000   0.0000

          k = 0.0000 0.0000 0.1113 (  4522 PWs)   bands (ev):

    -9.1285  -9.0781  -9.0660  -8.9787  -8.9614  -8.9386  -8.9367  -8.9229
    -8.9167  -8.9130  -8.8874  -8.8778  -8.8737  -8.8705  -8.8473  -8.8419
    -8.8324  -8.8284  -8.8278  -8.8196  -8.8182  -8.8097  -8.8075  -8.7669
    -8.7495  -7.4080  -7.1549  -5.8525  -5.5904  -4.6387  -3.8704  -1.0079
    -0.5523   0.1947   1.8363   1.9664   2.2545   2.6621   3.0649   3.1946
     3.2175   3.6537   4.1008   4.6054   5.0379   5.0471   5.4133   5.8550
     6.0260   7.6545   8.0576   8.2260   8.8280   8.8909   8.9561   9.8263
     9.9964  10.2003  10.7653  10.7758  11.1708  11.3141  11.7519  11.7624

     occupation numbers 
     1.0000   1.0000   1.0000   1.0000   1.0000   1.0000   1.0000   1.0000
     1.0000   1.0000   1.0000   1.0000   1.0000   1.0000   1.0000   1.0000
     1.0000   1.0000   1.0000   1.0000   1.0000   1.0000   1.0000   1.0000
     1.0000   1.0000   1.0000   1.0000   1.0000   1.0000   1.0000   1.0000
     1.0000   1.0000   1.0000   1.0000   1.0000   1.0000   1.0000   1.0000
     1.0000   1.0000   1.0000   1.0000   1.0000   1.0000   1.0000   1.0000
     1.0000   0.0000   0.0000   0.0000   0.0000   0.0000   0.0000   0.0000
     0.0000   0.0000   0.0000   0.0000   0.0000   0.0000   0.0000   0.0000

          k = 0.0000 0.2322 0.0000 (  4560 PWs)   bands (ev):

    -9.1361  -9.0672  -9.0478  -8.9764  -8.9759  -8.9442  -8.9396  -8.9376
    -8.9357  -8.8986  -8.8903  -8.8792  -8.8773  -8.8671  -8.8545  -8.8388
    -8.8378  -8.8312  -8.8288  -8.8278  -8.8158  -8.8088  -8.8020  -8.7672
    -8.7486  -7.2367  -6.9280  -5.9075  -5.5086  -4.8621  -4.6526  -0.6390
    -0.1632   0.4285   0.4578   1.9840   2.9927   3.2732   3.3950   3.5044
     3.6987   3.9492   4.2063   4.3508   4.8318   4.8862   5.0279   5.1330
     5.9365   7.5745   7.8792   8.1802   8.6015   8.6379   9.0824   9.5638
    10.6250  10.6568  10.8950  11.0650  11.1689  11.6915  12.0331  12.0725

     occupation numbers 
     1.0000   1.0000   1.0000   1.0000   1.0000   1.0000   1.0000   1.0000
     1.0000   1.0000   1.0000   1.0000   1.0000   1.0000   1.0000   1.0000
     1.0000   1.0000   1.0000   1.0000   1.0000   1.0000   1.0000   1.0000
     1.0000   1.0000   1.0000   1.0000   1.0000   1.0000   1.0000   1.0000
     1.0000   1.0000   1.0000   1.0000   1.0000   1.0000   1.0000   1.0000
     1.0000   1.0000   1.0000   1.0000   1.0000   1.0000   1.0000   1.0000
     1.0000   0.0000   0.0000   0.0000   0.0000   0.0000   0.0000   0.0000
     0.0000   0.0000   0.0000   0.0000   0.0000   0.0000   0.0000   0.0000

          k = 0.0000 0.2322 0.1113 (  4542 PWs)   bands (ev):

    -9.1357  -9.0696  -9.0458  -8.9808  -8.9660  -8.9519  -8.9372  -8.9359
    -8.9357  -8.8998  -8.8861  -8.8786  -8.8776  -8.8745  -8.8504  -8.8385
    -8.8384  -8.8311  -8.8288  -8.8274  -8.8158  -8.8088  -8.8018  -8.7670
    -8.7484  -7.2081  -6.9726  -5.8451  -5.5780  -4.7930  -4.6869  -0.6969
    -0.3035   0.2161   1.0175   2.1091   3.0029   3.2000   3.3089   3.4519
     3.5182   3.8361   4.2413   4.3702   4.7995   4.9098   5.0489   5.0702
     5.9359   7.6686   7.9766   8.3641   8.5304   8.7004   9.4242   9.8147
    10.4009  10.5336  10.9648  11.0859  11.1195  11.3542  11.6507  12.2184

     occupation numbers 
     1.0000   1.0000   1.0000   1.0000   1.0000   1.0000   1.0000   1.0000
     1.0000   1.0000   1.0000   1.0000   1.0000   1.0000   1.0000   1.0000
     1.0000   1.0000   1.0000   1.0000   1.0000   1.0000   1.0000   1.0000
     1.0000   1.0000   1.0000   1.0000   1.0000   1.0000   1.0000   1.0000
     1.0000   1.0000   1.0000   1.0000   1.0000   1.0000   1.0000   1.0000
     1.0000   1.0000   1.0000   1.0000   1.0000   1.0000   1.0000   1.0000
     1.0000   0.0000   0.0000   0.0000   0.0000   0.0000   0.0000   0.0000
     0.0000   0.0000   0.0000   0.0000   0.0000   0.0000   0.0000   0.0000

          k = 0.3333 0.0000 0.0000 (  4502 PWs)   bands (ev):

    -9.1293  -9.1147  -9.0962  -8.9966  -8.9850  -8.9580  -8.9284  -8.9025
    -8.8998  -8.8912  -8.8893  -8.8805  -8.8687  -8.8651  -8.8569  -8.8443
    -8.8355  -8.8295  -8.8200  -8.8165  -8.8141  -8.8102  -8.8091  -8.7586
    -8.7558  -6.7693  -6.5076  -5.6628  -5.1060  -4.1655  -3.7527  -0.9744
    -0.7116  -0.0258   0.4698   1.4713   1.9316   2.1178   2.3284   2.5738
     2.8764   3.1593   3.3966   3.4808   3.8848   4.0909   4.0998   4.7637
     5.2294   8.1022   8.1746   8.7412   8.9629   9.0957   9.1915   9.5841
     9.9313  10.1799  11.0757  11.2670  11.5227  12.0277  13.2932  13.3156

     occupation numbers 
     1.0000   1.0000   1.0000   1.0000   1.0000   1.0000   1.0000   1.0000
     1.0000   1.0000   1.0000   1.0000   1.0000   1.0000   1.0000   1.0000
     1.0000   1.0000   1.0000   1.0000   1.0000   1.0000   1.0000   1.0000
     1.0000   1.0000   1.0000   1.0000   1.0000   1.0000   1.0000   1.0000
     1.0000   1.0000   1.0000   1.0000   1.0000   1.0000   1.0000   1.0000
     1.0000   1.0000   1.0000   1.0000   1.0000   1.0000   1.0000   1.0000
     1.0000   0.0000   0.0000   0.0000   0.0000   0.0000   0.0000   0.0000
     0.0000   0.0000   0.0000   0.0000   0.0000   0.0000   0.0000   0.0000

          k = 0.3333 0.0000 0.1113 (  4517 PWs)   bands (ev):

    -9.1282  -9.1165  -9.0961  -8.9935  -8.9852  -8.9627  -8.9254  -8.9017
    -8.9007  -8.8953  -8.8861  -8.8807  -8.8703  -8.8660  -8.8555  -8.8462
    -8.8343  -8.8289  -8.8204  -8.8170  -8.8131  -8.8112  -8.8089  -8.7587
    -8.7560  -6.7416  -6.5488  -5.6565  -5.0949  -4.1248  -3.8050  -0.8408
    -0.6911  -0.4114   0.6688   1.5717   1.9038   2.0996   2.5142   2.6241
     2.9309   2.9755   3.3307   3.6414   3.7567   4.0332   4.1980   4.6802
     4.9213   8.1432   8.3689   8.8680   8.9868   9.0843   9.3842   9.7012
     9.9855  10.1301  11.1738  11.3212  11.7446  12.1366  12.1804  12.8737

     occupation numbers 
     1.0000   1.0000   1.0000   1.0000   1.0000   1.0000   1.0000   1.0000
     1.0000   1.0000   1.0000   1.0000   1.0000   1.0000   1.0000   1.0000
     1.0000   1.0000   1.0000   1.0000   1.0000   1.0000   1.0000   1.0000
     1.0000   1.0000   1.0000   1.0000   1.0000   1.0000   1.0000   1.0000
     1.0000   1.0000   1.0000   1.0000   1.0000   1.0000   1.0000   1.0000
     1.0000   1.0000   1.0000   1.0000   1.0000   1.0000   1.0000   1.0000
     1.0000   0.0000   0.0000   0.0000   0.0000   0.0000   0.0000   0.0000
     0.0000   0.0000   0.0000   0.0000   0.0000   0.0000   0.0000   0.0000

          k = 0.3333 0.2322 0.0000 (  4531 PWs)   bands (ev):

    -9.1318  -9.1129  -9.0911  -8.9901  -8.9810  -8.9594  -8.9314  -8.9128
    -8.9090  -8.8966  -8.8911  -8.8786  -8.8691  -8.8654  -8.8536  -8.8454
    -8.8397  -8.8335  -8.8307  -8.8132  -8.8123  -8.8082  -8.8080  -8.7593
    -8.7568  -6.6374  -6.4307  -5.7462  -4.8293  -4.2242  -4.1409  -0.7405
    -0.5423  -0.1345  -0.0232   0.4817   1.7571   1.8464   2.3071   2.4963
     3.2657   3.2982   3.6584   3.7406   4.1335   4.2793   4.5314   4.9708
     5.1443   7.9190   8.6888   8.7263   8.9989   9.3885  10.1266  10.3388
    10.5483  11.0187  11.1433  11.3875  11.5395  12.1119  12.1813  12.6748

     occupation numbers 
     1.0000   1.0000   1.0000   1.0000   1.0000   1.0000   1.0000   1.0000
     1.0000   1.0000   1.0000   1.0000   1.0000   1.0000   1.0000   1.0000
     1.0000   1.0000   1.0000   1.0000   1.0000   1.0000   1.0000   1.0000
     1.0000   1.0000   1.0000   1.0000   1.0000   1.0000   1.0000   1.0000
     1.0000   1.0000   1.0000   1.0000   1.0000   1.0000   1.0000   1.0000
     1.0000   1.0000   1.0000   1.0000   1.0000   1.0000   1.0000   1.0000
     1.0000   0.0000   0.0000   0.0000   0.0000   0.0000   0.0000   0.0000
     0.0000   0.0000   0.0000   0.0000   0.0000   0.0000   0.0000   0.0000

          k = 0.3333 0.2322 0.1113 (  4530 PWs)   bands (ev):

    -9.1309  -9.1143  -9.0907  -8.9883  -8.9814  -8.9603  -8.9309  -8.9123
    -8.9087  -8.8986  -8.8897  -8.8784  -8.8697  -8.8668  -8.8521  -8.8476
    -8.8383  -8.8338  -8.8303  -8.8135  -8.8115  -8.8083  -8.8079  -8.7594
    -8.7567  -6.6191  -6.4557  -5.7354  -4.8627  -4.2058  -4.1102  -0.7475
    -0.5333  -0.4449   0.1496   0.5299   1.8930   1.9883   2.2965   2.6676
     2.9851   3.4407   3.5520   3.7314   4.0615   4.2845   4.5056   4.6996
     5.1141   8.3234   8.7270   8.9270   9.1131   9.2981  10.1193  10.4534
    10.5338  10.9127  11.1492  11.3262  11.6285  12.0333  12.1698  12.4392

     occupation numbers 
     1.0000   1.0000   1.0000   1.0000   1.0000   1.0000   1.0000   1.0000
     1.0000   1.0000   1.0000   1.0000   1.0000   1.0000   1.0000   1.0000
     1.0000   1.0000   1.0000   1.0000   1.0000   1.0000   1.0000   1.0000
     1.0000   1.0000   1.0000   1.0000   1.0000   1.0000   1.0000   1.0000
     1.0000   1.0000   1.0000   1.0000   1.0000   1.0000   1.0000   1.0000
     1.0000   1.0000   1.0000   1.0000   1.0000   1.0000   1.0000   1.0000
     1.0000   0.0000   0.0000   0.0000   0.0000   0.0000   0.0000   0.0000
     0.0000   0.0000   0.0000   0.0000   0.0000   0.0000   0.0000   0.0000

     highest occupied, lowest unoccupied level (ev):     6.0263    7.2476

!    total energy              =   -1504.21170227 Ry
     estimated scf accuracy    <       0.00000024 Ry

     The total energy is the sum of the following terms:
     one-electron contribution =    -646.42896534 Ry
     hartree contribution      =     399.92322315 Ry
     xc contribution           =    -229.01298268 Ry
     ewald contribution        =    -474.01071133 Ry
     one-center paw contrib.   =    -554.68226607 Ry
      -> PAW hartree energy AE =     280.87327774 Ry
      -> PAW hartree energy PS =    -276.47578738 Ry
      -> PAW xc energy AE      =    -301.55905160 Ry
      -> PAW xc energy PS      =      75.27032283 Ry
      -> total E_H with PAW    =     404.32071350 Ry
      -> total E_XC with PAW   =    -455.30171146 Ry

     convergence has been achieved in   9 iterations

     Writing all to output data dir calculations_bands_val/myprefix.save/
 
     init_run     :      6.89s CPU      2.06s WALL (       1 calls)
     electrons    :     31.88s CPU      8.44s WALL (       1 calls)

     Called by init_run:
     wfcinit      :      1.09s CPU      0.29s WALL (       1 calls)
     wfcinit:atom :      0.01s CPU      0.00s WALL (       4 calls)
     wfcinit:wfcr :      1.02s CPU      0.27s WALL (       4 calls)
     potinit      :      2.06s CPU      0.54s WALL (       1 calls)
     hinit0       :      3.14s CPU      1.03s WALL (       1 calls)

     Called by electrons:
     c_bands      :     18.32s CPU      4.76s WALL (      10 calls)
     sum_band     :      4.85s CPU      1.39s WALL (      10 calls)
     v_of_rho     :      0.66s CPU      0.18s WALL (      10 calls)
     v_h          :      0.05s CPU      0.01s WALL (      10 calls)
     v_xc         :      0.61s CPU      0.16s WALL (      10 calls)
     newd         :      2.06s CPU      0.57s WALL (      10 calls)
     PAW_pot      :      6.50s CPU      1.69s WALL (      10 calls)
     mix_rho      :      0.17s CPU      0.05s WALL (      10 calls)

     Called by c_bands:
     init_us_2    :      0.16s CPU      0.04s WALL (      84 calls)
     init_us_2:cp :      0.16s CPU      0.04s WALL (      84 calls)
     cegterg      :     16.17s CPU      4.19s WALL (      40 calls)

     Called by sum_band:
     sum_band:wei :      0.01s CPU      0.00s WALL (      10 calls)
     sum_band:loo :      2.23s CPU      0.58s WALL (      10 calls)
     sum_band:buf :      0.04s CPU      0.01s WALL (      40 calls)
     sum_band:ini :      0.07s CPU      0.02s WALL (      40 calls)
     sum_band:cal :      0.18s CPU      0.05s WALL (      40 calls)
     sum_band:bec :      0.03s CPU      0.01s WALL (      40 calls)
     addusdens    :      2.10s CPU      0.67s WALL (      10 calls)
     addusd:skk   :      0.01s CPU      0.00s WALL (      30 calls)
     addusd:dgemm :      0.36s CPU      0.23s WALL (      30 calls)
     addusd:qvan2 :      1.53s CPU      0.39s WALL (      30 calls)

     Called by *egterg:
     cdiaghg      :      3.85s CPU      1.00s WALL (     210 calls)
     cegterg:over :      0.70s CPU      0.18s WALL (     174 calls)
     cegterg:upda :      0.45s CPU      0.12s WALL (     174 calls)
     cegterg:last :      0.61s CPU      0.15s WALL (      81 calls)
     cdiaghg:chol :      0.28s CPU      0.07s WALL (     210 calls)
     cdiaghg:inve :      0.05s CPU      0.01s WALL (     210 calls)
     cdiaghg:para :      0.64s CPU      0.17s WALL (     420 calls)
     h_psi        :     10.73s CPU      2.79s WALL (     218 calls)
     s_psi        :      0.38s CPU      0.10s WALL (     218 calls)
     g_psi        :      0.03s CPU      0.01s WALL (     174 calls)

     Called by h_psi:
     h_psi:calbec :      0.58s CPU      0.15s WALL (     218 calls)
     vloc_psi     :      9.59s CPU      2.49s WALL (     218 calls)
     add_vuspsi   :      0.51s CPU      0.13s WALL (     218 calls)

     General routines
     calbec       :      0.76s CPU      0.20s WALL (     258 calls)
     fft          :      1.52s CPU      0.40s WALL (     129 calls)
     ffts         :      0.64s CPU      0.17s WALL (      20 calls)
     fftw         :      9.64s CPU      2.51s WALL (   16314 calls)
     interpolate  :      0.68s CPU      0.18s WALL (      10 calls)
 
     Parallel routines

     PAW routines
     PAW_pot      :      6.50s CPU      1.69s WALL (      10 calls)
     PAW_symme    :      0.01s CPU      0.00s WALL (      20 calls)
 
     PWSCF        :     39.81s CPU     11.05s WALL

 
   This run was terminated on:  12:50: 1   4Jun2023            

=------------------------------------------------------------------------------=
   JOB DONE.
=------------------------------------------------------------------------------=
