
     Program PWSCF v.7.0 starts on  4Jun2023 at 13:57: 1 

     This program is part of the open-source Quantum ESPRESSO suite
     for quantum simulation of materials; please cite
         "P. Giannozzi et al., J. Phys.:Condens. Matter 21 395502 (2009);
         "P. Giannozzi et al., J. Phys.:Condens. Matter 29 465901 (2017);
         "P. Giannozzi et al., J. Chem. Phys. 152 154105 (2020);
          URL http://www.quantum-espresso.org", 
     in publications or presentations arising from this work. More details at
     http://www.quantum-espresso.org/quote

     Parallel version (MPI & OpenMP), running on      32 processor cores
     Number of MPI processes:                 8
     Threads/MPI process:                     4

     MPI processes distributed on     1 nodes
     K-points division:     npool     =       2
     R & G space division:  proc/nbgrp/npool/nimage =       4
     141942 MiB available memory on the printing compute node when the environment starts
 
     Reading input from espresso_664.pwi
Warning: card &CELL ignored
Warning: card / ignored

     Current dimensions of program PWSCF are:
     Max number of different atomic species (ntypx) = 10
     Max number of k-points (npk) =  40000
     Max angular momentum in pseudopotentials (lmaxx) =  4
     file Al.pbe-n-kjpaw_psl.1.0.0.UPF: wavefunction(s)  3S 3P renormalized
     Message from routine setup:
     using ibrav=0 with symmetry is DISCOURAGED, use correct ibrav instead

     Subspace diagonalization in iterative solution of the eigenvalue problem:
     one sub-group per band group will be used
     scalapack distributed-memory algorithm (size of sub-group:  2*  2 procs)

 
     Parallelization info
     --------------------
     sticks:   dense  smooth     PW     G-vecs:    dense   smooth      PW
     Min         474     237     65                22629     8013    1195
     Max         475     239     66                22630     8015    1198
     Sum        1897     951    263                90519    32057    4785
 
     Using Slab Decomposition
 


     bravais-lattice index     =            0
     lattice parameter (alat)  =       7.6264  a.u.
     unit-cell volume          =    1441.7069 (a.u.)^3
     number of atoms/cell      =           12
     number of atomic types    =            3
     number of electrons       =        86.00
     number of Kohn-Sham states=           64
     kinetic-energy cutoff     =      30.0000  Ry
     charge density cutoff     =     240.0000  Ry
     scf convergence threshold =      1.0E-06
     mixing beta               =       0.7000
     number of iterations used =            8  plain     mixing
     Exchange-correlation= SLA  PW   PBE  PBE
                           (   1   4   3   4   0   0   0)

     celldm(1)=   7.626445  celldm(2)=   0.000000  celldm(3)=   0.000000
     celldm(4)=   0.000000  celldm(5)=   0.000000  celldm(6)=   0.000000

     crystal axes: (cart. coord. in units of alat)
               a(1) = (   1.000000   0.000000   0.000000 )  
               a(2) = (   0.000000   1.705757   0.000000 )  
               a(3) = (   0.000000   0.000000   1.905432 )  

     reciprocal axes: (cart. coord. in units 2 pi/alat)
               b(1) = (  1.000000  0.000000  0.000000 )  
               b(2) = (  0.000000  0.586250  0.000000 )  
               b(3) = (  0.000000  0.000000  0.524815 )  


     PseudoPot. # 1 for Nd read from file:
     /home/pragov/projects/rrg-bengioy-ad/pragov/crystal_structure_design/SSSP/Nd.GGA-PBE-paw-v1.0.UPF
     MD5 check sum: 1d1e94942b6eb1cde76049b71bb7dcb0
     Pseudo is Projector augmented-wave + core cor, Zval = 14.0
     Generated using ATOMPAW code
     Shape of augmentation charge: BESSEL
     Using radial grid of 1105 points,  8 beta functions with: 
                l(1) =   0
                l(2) =   0
                l(3) =   1
                l(4) =   1
                l(5) =   2
                l(6) =   2
                l(7) =   3
                l(8) =   3
     Q(r) pseudized with 0 coefficients 


     PseudoPot. # 2 for Al read from file:
     /home/pragov/projects/rrg-bengioy-ad/pragov/crystal_structure_design/SSSP/Al.pbe-n-kjpaw_psl.1.0.0.UPF
     MD5 check sum: cfc449ca30b5f3223ec38ddd88ac046d
     Pseudo is Projector augmented-wave + core cor, Zval =  3.0
     Generated using "atomic" code by A. Dal Corso  v.5.1
     Shape of augmentation charge: PSQ
     Using radial grid of 1135 points,  6 beta functions with: 
                l(1) =   0
                l(2) =   0
                l(3) =   1
                l(4) =   1
                l(5) =   2
                l(6) =   2
     Q(r) pseudized with 0 coefficients 


     PseudoPot. # 3 for Co read from file:
     /home/pragov/projects/rrg-bengioy-ad/pragov/crystal_structure_design/SSSP/Co_pbe_v1.2.uspp.F.UPF
     MD5 check sum: 5f91765df6ddd3222702df6e7b74a16d
     Pseudo is Ultrasoft + core correction, Zval = 17.0
     Generated by new atomic code, or converted to UPF format
     Using radial grid of  863 points,  6 beta functions with: 
                l(1) =   0
                l(2) =   0
                l(3) =   1
                l(4) =   1
                l(5) =   2
                l(6) =   2
     Q(r) pseudized with  8 coefficients,  rinner =    1.200   1.200   1.200
                                                       1.200   1.200

     atomic species   valence    mass     pseudopotential
        Nd            14.00   144.24200     Nd( 1.00)
        Al             3.00    26.98154     Al( 1.00)
        Co            17.00    58.93319     Co( 1.00)

      8 Sym. Ops., with inversion, found ( 4 have fractional translation)


                                    s                        frac. trans.

      isym =  1     identity                                     

 cryst.   s( 1) = (     1          0          0      )
                  (     0          1          0      )
                  (     0          0          1      )

 cart.    s( 1) = (  1.0000000  0.0000000  0.0000000 )
                  (  0.0000000  1.0000000  0.0000000 )
                  (  0.0000000  0.0000000  1.0000000 )


      isym =  2     180 deg rotation - cart. axis [0,0,1]        

 cryst.   s( 2) = (    -1          0          0      )    f =(  0.0000000 )
                  (     0         -1          0      )       ( -0.0000000 )
                  (     0          0          1      )       (  0.5000000 )

 cart.    s( 2) = ( -1.0000000  0.0000000  0.0000000 )    f =(  0.0000000 )
                  (  0.0000000 -1.0000000  0.0000000 )       ( -0.0000000 )
                  (  0.0000000  0.0000000  1.0000000 )       (  0.9527160 )


      isym =  3     180 deg rotation - cart. axis [0,1,0]        

 cryst.   s( 3) = (    -1          0          0      )    f =(  0.0000000 )
                  (     0          1          0      )       (  0.0000000 )
                  (     0          0         -1      )       (  0.5000000 )

 cart.    s( 3) = ( -1.0000000  0.0000000  0.0000000 )    f =(  0.0000000 )
                  (  0.0000000  1.0000000  0.0000000 )       (  0.0000000 )
                  (  0.0000000  0.0000000 -1.0000000 )       (  0.9527160 )


      isym =  4     180 deg rotation - cart. axis [1,0,0]        

 cryst.   s( 4) = (     1          0          0      )
                  (     0         -1          0      )
                  (     0          0         -1      )

 cart.    s( 4) = (  1.0000000  0.0000000  0.0000000 )
                  (  0.0000000 -1.0000000  0.0000000 )
                  (  0.0000000  0.0000000 -1.0000000 )


      isym =  5     inversion                                    

 cryst.   s( 5) = (    -1          0          0      )
                  (     0         -1          0      )
                  (     0          0         -1      )

 cart.    s( 5) = ( -1.0000000  0.0000000  0.0000000 )
                  (  0.0000000 -1.0000000  0.0000000 )
                  (  0.0000000  0.0000000 -1.0000000 )


      isym =  6     inv. 180 deg rotation - cart. axis [0,0,1]   

 cryst.   s( 6) = (     1          0          0      )    f =(  0.0000000 )
                  (     0          1          0      )       (  0.0000000 )
                  (     0          0         -1      )       (  0.5000000 )

 cart.    s( 6) = (  1.0000000  0.0000000  0.0000000 )    f =(  0.0000000 )
                  (  0.0000000  1.0000000  0.0000000 )       (  0.0000000 )
                  (  0.0000000  0.0000000 -1.0000000 )       (  0.9527160 )


      isym =  7     inv. 180 deg rotation - cart. axis [0,1,0]   

 cryst.   s( 7) = (     1          0          0      )    f =(  0.0000000 )
                  (     0         -1          0      )       ( -0.0000000 )
                  (     0          0          1      )       (  0.5000000 )

 cart.    s( 7) = (  1.0000000  0.0000000  0.0000000 )    f =(  0.0000000 )
                  (  0.0000000 -1.0000000  0.0000000 )       ( -0.0000000 )
                  (  0.0000000  0.0000000  1.0000000 )       (  0.9527160 )


      isym =  8     inv. 180 deg rotation - cart. axis [1,0,0]   

 cryst.   s( 8) = (    -1          0          0      )
                  (     0          1          0      )
                  (     0          0          1      )

 cart.    s( 8) = ( -1.0000000  0.0000000  0.0000000 )
                  (  0.0000000  1.0000000  0.0000000 )
                  (  0.0000000  0.0000000  1.0000000 )


   Cartesian axes

     site n.     atom                  positions (alat units)
         1           Nd  tau(   1) = (   0.0000000   0.6539206   1.4290740  )
         2           Nd  tau(   2) = (   0.0000000   1.0518361   0.4763580  )
         3           Al  tau(   3) = (   0.0000000   0.0000000   0.9527160  )
         4           Al  tau(   4) = (   0.0000000   0.0000000   0.0000000  )
         5           Al  tau(   5) = (   0.5000000   0.0711130   1.4290740  )
         6           Al  tau(   6) = (   0.5000000   1.6346436   0.4763580  )
         7           Al  tau(   7) = (   0.5000000   0.5128562   0.1347083  )
         8           Al  tau(   8) = (   0.5000000   1.1929004   1.7707237  )
         9           Al  tau(   9) = (   0.5000000   0.5128562   0.8180077  )
        10           Al  tau(  10) = (   0.5000000   1.1929004   1.0874243  )
        11           Co  tau(  11) = (   0.0000000   1.3923819   1.4290740  )
        12           Co  tau(  12) = (   0.0000000   0.3133748   0.4763580  )

   Crystallographic axes

     site n.     atom                  positions (cryst. coord.)
         1           Nd  tau(   1) = (  0.0000000  0.3833610  0.7500000  )
         2           Nd  tau(   2) = (  0.0000000  0.6166390  0.2500000  )
         3           Al  tau(   3) = (  0.0000000  0.0000000  0.5000000  )
         4           Al  tau(   4) = (  0.0000000  0.0000000  0.0000000  )
         5           Al  tau(   5) = (  0.5000000  0.0416900  0.7500000  )
         6           Al  tau(   6) = (  0.5000000  0.9583100  0.2500000  )
         7           Al  tau(   7) = (  0.5000000  0.3006620  0.0706970  )
         8           Al  tau(   8) = (  0.5000000  0.6993380  0.9293030  )
         9           Al  tau(   9) = (  0.5000000  0.3006620  0.4293030  )
        10           Al  tau(  10) = (  0.5000000  0.6993380  0.5706970  )
        11           Co  tau(  11) = (  0.0000000  0.8162840  0.7500000  )
        12           Co  tau(  12) = (  0.0000000  0.1837160  0.2500000  )

     number of k points=     8
                       cart. coord. in units 2pi/alat
        k(    1) = (   0.0000000   0.0000000   0.0000000), wk =   0.0740741
        k(    2) = (   0.0000000   0.0000000   0.1749385), wk =   0.1481481
        k(    3) = (   0.0000000   0.1954167   0.0000000), wk =   0.1481481
        k(    4) = (   0.0000000   0.1954167   0.1749385), wk =   0.2962963
        k(    5) = (   0.3333333   0.0000000   0.0000000), wk =   0.1481481
        k(    6) = (   0.3333333   0.0000000   0.1749385), wk =   0.2962963
        k(    7) = (   0.3333333   0.1954167   0.0000000), wk =   0.2962963
        k(    8) = (   0.3333333   0.1954167   0.1749385), wk =   0.5925926

                       cryst. coord.
        k(    1) = (   0.0000000   0.0000000   0.0000000), wk =   0.0740741
        k(    2) = (   0.0000000   0.0000000   0.3333333), wk =   0.1481481
        k(    3) = (   0.0000000   0.3333333   0.0000000), wk =   0.1481481
        k(    4) = (   0.0000000   0.3333333   0.3333333), wk =   0.2962963
        k(    5) = (   0.3333333   0.0000000   0.0000000), wk =   0.1481481
        k(    6) = (   0.3333333   0.0000000   0.3333333), wk =   0.2962963
        k(    7) = (   0.3333333   0.3333333   0.0000000), wk =   0.2962963
        k(    8) = (   0.3333333   0.3333333   0.3333333), wk =   0.5925926

     Dense  grid:    90519 G-vectors     FFT dimensions: (  40,  72,  72)

     Smooth grid:    32057 G-vectors     FFT dimensions: (  27,  45,  54)

     Dynamical RAM for                 wfc:       0.98 MB

     Dynamical RAM for     wfc (w. buffer):       4.88 MB

     Dynamical RAM for           str. fact:       1.04 MB

     Dynamical RAM for           local pot:       0.00 MB

     Dynamical RAM for          nlocal pot:       3.72 MB

     Dynamical RAM for                qrad:       8.96 MB

     Dynamical RAM for          rho,v,vnew:       2.22 MB

     Dynamical RAM for               rhoin:       0.74 MB

     Dynamical RAM for            rho*nmix:       5.52 MB

     Dynamical RAM for           G-vectors:       1.36 MB

     Dynamical RAM for          h,s,v(r/c):       0.19 MB

     Dynamical RAM for          <psi|beta>:       0.24 MB

     Dynamical RAM for                 psi:       1.95 MB

     Dynamical RAM for                hpsi:       1.95 MB

     Dynamical RAM for                spsi:       1.95 MB

     Dynamical RAM for      wfcinit/wfcrot:       4.06 MB

     Dynamical RAM for           addusdens:      97.38 MB

     Estimated static dynamical RAM per process >      26.28 MB

     Estimated max dynamical RAM per process >     129.18 MB

     Estimated total dynamical RAM >    1011.33 MB

     Check: negative core charge=   -0.000004

     Initial potential from superposition of free atoms

     starting charge      83.9693, renormalised to      86.0000
     Starting wfcs are  122 randomized atomic wfcs
     Checking if some PAW data can be deallocated... 
       PAW data deallocated on    7 nodes for type:  1
       PAW data deallocated on    3 nodes for type:  2

     total cpu time spent up to now is        3.3 secs

     Self-consistent Calculation

     iteration #  1     ecut=    30.00 Ry     beta= 0.70
     Davidson diagonalization with overlap

---- Real-time Memory Report at c_bands before calling an iterative solver
           269 MiB given to the printing process from OS
             0 MiB allocation reported by mallinfo(arena+hblkhd)
        141056 MiB available memory on the node where the printing process lives
------------------
     ethr =  1.00E-02,  avg # of iterations =  2.6

     total cpu time spent up to now is        4.8 secs

     total energy              =   -1974.48139404 Ry
     estimated scf accuracy    <      15.82701087 Ry

     iteration #  2     ecut=    30.00 Ry     beta= 0.70
     Davidson diagonalization with overlap

---- Real-time Memory Report at c_bands before calling an iterative solver
           371 MiB given to the printing process from OS
             0 MiB allocation reported by mallinfo(arena+hblkhd)
        140164 MiB available memory on the node where the printing process lives
------------------
     ethr =  1.00E-02,  avg # of iterations =  5.1

     total cpu time spent up to now is        6.6 secs

     total energy              =   -1962.50174929 Ry
     estimated scf accuracy    <     556.55995419 Ry

     iteration #  3     ecut=    30.00 Ry     beta= 0.70
     Davidson diagonalization with overlap

---- Real-time Memory Report at c_bands before calling an iterative solver
           373 MiB given to the printing process from OS
             0 MiB allocation reported by mallinfo(arena+hblkhd)
        139954 MiB available memory on the node where the printing process lives
------------------
     ethr =  1.00E-02,  avg # of iterations =  3.0

     total cpu time spent up to now is        8.2 secs

     total energy              =   -1981.20366283 Ry
     estimated scf accuracy    <     100.17423045 Ry

     iteration #  4     ecut=    30.00 Ry     beta= 0.70
     Davidson diagonalization with overlap

---- Real-time Memory Report at c_bands before calling an iterative solver
           375 MiB given to the printing process from OS
             0 MiB allocation reported by mallinfo(arena+hblkhd)
        139954 MiB available memory on the node where the printing process lives
------------------
     ethr =  1.00E-02,  avg # of iterations =  2.0

     total cpu time spent up to now is        9.6 secs

     total energy              =   -1987.04258727 Ry
     estimated scf accuracy    <      16.04320599 Ry

     iteration #  5     ecut=    30.00 Ry     beta= 0.70
     Davidson diagonalization with overlap

---- Real-time Memory Report at c_bands before calling an iterative solver
           376 MiB given to the printing process from OS
             0 MiB allocation reported by mallinfo(arena+hblkhd)
        140280 MiB available memory on the node where the printing process lives
------------------
     ethr =  1.00E-02,  avg # of iterations =  1.0

     total cpu time spent up to now is       10.9 secs

     total energy              =   -1987.68702635 Ry
     estimated scf accuracy    <       3.81420631 Ry

     iteration #  6     ecut=    30.00 Ry     beta= 0.70
     Davidson diagonalization with overlap

---- Real-time Memory Report at c_bands before calling an iterative solver
           378 MiB given to the printing process from OS
             0 MiB allocation reported by mallinfo(arena+hblkhd)
        139396 MiB available memory on the node where the printing process lives
------------------
     ethr =  4.44E-03,  avg # of iterations =  1.4

     total cpu time spent up to now is       12.4 secs

     total energy              =   -1987.76820573 Ry
     estimated scf accuracy    <       3.45047184 Ry

     iteration #  7     ecut=    30.00 Ry     beta= 0.70
     Davidson diagonalization with overlap

---- Real-time Memory Report at c_bands before calling an iterative solver
           380 MiB given to the printing process from OS
             0 MiB allocation reported by mallinfo(arena+hblkhd)
        139229 MiB available memory on the node where the printing process lives
------------------
     ethr =  4.01E-03,  avg # of iterations =  1.4

     total cpu time spent up to now is       13.6 secs

     total energy              =   -1987.02003179 Ry
     estimated scf accuracy    <      20.19985177 Ry

     iteration #  8     ecut=    30.00 Ry     beta= 0.70
     Davidson diagonalization with overlap

---- Real-time Memory Report at c_bands before calling an iterative solver
           380 MiB given to the printing process from OS
             0 MiB allocation reported by mallinfo(arena+hblkhd)
        139228 MiB available memory on the node where the printing process lives
------------------
     ethr =  4.01E-03,  avg # of iterations =  1.1

     total cpu time spent up to now is       14.9 secs

     total energy              =   -1987.74691561 Ry
     estimated scf accuracy    <       2.77308628 Ry

     iteration #  9     ecut=    30.00 Ry     beta= 0.70
     Davidson diagonalization with overlap

---- Real-time Memory Report at c_bands before calling an iterative solver
           380 MiB given to the printing process from OS
             0 MiB allocation reported by mallinfo(arena+hblkhd)
        139049 MiB available memory on the node where the printing process lives
------------------
     ethr =  3.22E-03,  avg # of iterations =  1.0

     total cpu time spent up to now is       16.2 secs

     total energy              =   -1987.84362386 Ry
     estimated scf accuracy    <       0.12636879 Ry

     iteration # 10     ecut=    30.00 Ry     beta= 0.70
     Davidson diagonalization with overlap

---- Real-time Memory Report at c_bands before calling an iterative solver
           381 MiB given to the printing process from OS
             0 MiB allocation reported by mallinfo(arena+hblkhd)
        140615 MiB available memory on the node where the printing process lives
------------------
     ethr =  1.47E-04,  avg # of iterations =  8.8

     total cpu time spent up to now is       17.7 secs

     total energy              =   -1987.85856922 Ry
     estimated scf accuracy    <       0.32670684 Ry

     iteration # 11     ecut=    30.00 Ry     beta= 0.70
     Davidson diagonalization with overlap

---- Real-time Memory Report at c_bands before calling an iterative solver
           382 MiB given to the printing process from OS
             0 MiB allocation reported by mallinfo(arena+hblkhd)
        140678 MiB available memory on the node where the printing process lives
------------------
     ethr =  1.47E-04,  avg # of iterations =  1.1

     total cpu time spent up to now is       18.9 secs

     total energy              =   -1987.83867137 Ry
     estimated scf accuracy    <       0.27652018 Ry

     iteration # 12     ecut=    30.00 Ry     beta= 0.70
     Davidson diagonalization with overlap

---- Real-time Memory Report at c_bands before calling an iterative solver
           382 MiB given to the printing process from OS
             0 MiB allocation reported by mallinfo(arena+hblkhd)
        140635 MiB available memory on the node where the printing process lives
------------------
     ethr =  1.47E-04,  avg # of iterations =  1.0

     total cpu time spent up to now is       20.4 secs

     total energy              =   -1987.85038723 Ry
     estimated scf accuracy    <       0.05150113 Ry

     iteration # 13     ecut=    30.00 Ry     beta= 0.70
     Davidson diagonalization with overlap

---- Real-time Memory Report at c_bands before calling an iterative solver
           382 MiB given to the printing process from OS
             0 MiB allocation reported by mallinfo(arena+hblkhd)
        140266 MiB available memory on the node where the printing process lives
------------------
     ethr =  5.99E-05,  avg # of iterations =  1.4

     total cpu time spent up to now is       22.0 secs

     total energy              =   -1987.85205961 Ry
     estimated scf accuracy    <       0.00711438 Ry

     iteration # 14     ecut=    30.00 Ry     beta= 0.70
     Davidson diagonalization with overlap

---- Real-time Memory Report at c_bands before calling an iterative solver
           382 MiB given to the printing process from OS
             0 MiB allocation reported by mallinfo(arena+hblkhd)
        140097 MiB available memory on the node where the printing process lives
------------------
     ethr =  8.27E-06,  avg # of iterations =  6.6

     total cpu time spent up to now is       23.4 secs

     total energy              =   -1987.85345370 Ry
     estimated scf accuracy    <       0.00476119 Ry

     iteration # 15     ecut=    30.00 Ry     beta= 0.70
     Davidson diagonalization with overlap

---- Real-time Memory Report at c_bands before calling an iterative solver
           382 MiB given to the printing process from OS
             0 MiB allocation reported by mallinfo(arena+hblkhd)
        140099 MiB available memory on the node where the printing process lives
------------------
     ethr =  5.54E-06,  avg # of iterations =  1.4

     total cpu time spent up to now is       24.7 secs

     total energy              =   -1987.85361704 Ry
     estimated scf accuracy    <       0.00314815 Ry

     iteration # 16     ecut=    30.00 Ry     beta= 0.70
     Davidson diagonalization with overlap

---- Real-time Memory Report at c_bands before calling an iterative solver
           382 MiB given to the printing process from OS
             0 MiB allocation reported by mallinfo(arena+hblkhd)
        140419 MiB available memory on the node where the printing process lives
------------------
     ethr =  3.66E-06,  avg # of iterations =  3.8

     total cpu time spent up to now is       26.0 secs

     total energy              =   -1987.85373724 Ry
     estimated scf accuracy    <       0.00073590 Ry

     iteration # 17     ecut=    30.00 Ry     beta= 0.70
     Davidson diagonalization with overlap

---- Real-time Memory Report at c_bands before calling an iterative solver
           382 MiB given to the printing process from OS
             0 MiB allocation reported by mallinfo(arena+hblkhd)
        139910 MiB available memory on the node where the printing process lives
------------------
     ethr =  8.56E-07,  avg # of iterations =  2.4

     total cpu time spent up to now is       27.3 secs

     total energy              =   -1987.85377253 Ry
     estimated scf accuracy    <       0.00056863 Ry

     iteration # 18     ecut=    30.00 Ry     beta= 0.70
     Davidson diagonalization with overlap

---- Real-time Memory Report at c_bands before calling an iterative solver
           382 MiB given to the printing process from OS
             0 MiB allocation reported by mallinfo(arena+hblkhd)
        139585 MiB available memory on the node where the printing process lives
------------------
     ethr =  6.61E-07,  avg # of iterations =  1.2

     total cpu time spent up to now is       28.5 secs

     total energy              =   -1987.85387511 Ry
     estimated scf accuracy    <       0.00007047 Ry

     iteration # 19     ecut=    30.00 Ry     beta= 0.70
     Davidson diagonalization with overlap

---- Real-time Memory Report at c_bands before calling an iterative solver
           382 MiB given to the printing process from OS
             0 MiB allocation reported by mallinfo(arena+hblkhd)
        139420 MiB available memory on the node where the printing process lives
------------------
     ethr =  8.19E-08,  avg # of iterations =  2.2

     total cpu time spent up to now is       29.7 secs

     total energy              =   -1987.85390597 Ry
     estimated scf accuracy    <       0.00002604 Ry

     iteration # 20     ecut=    30.00 Ry     beta= 0.70
     Davidson diagonalization with overlap

---- Real-time Memory Report at c_bands before calling an iterative solver
           383 MiB given to the printing process from OS
             0 MiB allocation reported by mallinfo(arena+hblkhd)
        139253 MiB available memory on the node where the printing process lives
------------------
     ethr =  3.03E-08,  avg # of iterations =  1.9

     total cpu time spent up to now is       31.0 secs

     total energy              =   -1987.85390560 Ry
     estimated scf accuracy    <       0.00002489 Ry

     iteration # 21     ecut=    30.00 Ry     beta= 0.70
     Davidson diagonalization with overlap

---- Real-time Memory Report at c_bands before calling an iterative solver
           383 MiB given to the printing process from OS
             0 MiB allocation reported by mallinfo(arena+hblkhd)
        139095 MiB available memory on the node where the printing process lives
------------------
     ethr =  2.89E-08,  avg # of iterations =  1.1

     total cpu time spent up to now is       32.2 secs

     total energy              =   -1987.85390746 Ry
     estimated scf accuracy    <       0.00001545 Ry

     iteration # 22     ecut=    30.00 Ry     beta= 0.70
     Davidson diagonalization with overlap

---- Real-time Memory Report at c_bands before calling an iterative solver
           383 MiB given to the printing process from OS
             0 MiB allocation reported by mallinfo(arena+hblkhd)
        140918 MiB available memory on the node where the printing process lives
------------------
     ethr =  1.80E-08,  avg # of iterations =  1.4

     total cpu time spent up to now is       33.4 secs

     total energy              =   -1987.85391267 Ry
     estimated scf accuracy    <       0.00000620 Ry

     iteration # 23     ecut=    30.00 Ry     beta= 0.70
     Davidson diagonalization with overlap

---- Real-time Memory Report at c_bands before calling an iterative solver
           383 MiB given to the printing process from OS
             0 MiB allocation reported by mallinfo(arena+hblkhd)
        140896 MiB available memory on the node where the printing process lives
------------------
     ethr =  7.21E-09,  avg # of iterations =  1.6

     total cpu time spent up to now is       34.7 secs

     total energy              =   -1987.85391322 Ry
     estimated scf accuracy    <       0.00000320 Ry

     iteration # 24     ecut=    30.00 Ry     beta= 0.70
     Davidson diagonalization with overlap

---- Real-time Memory Report at c_bands before calling an iterative solver
           383 MiB given to the printing process from OS
             0 MiB allocation reported by mallinfo(arena+hblkhd)
        140763 MiB available memory on the node where the printing process lives
------------------
     ethr =  3.72E-09,  avg # of iterations =  1.8

     total cpu time spent up to now is       35.9 secs

     End of self-consistent calculation

          k = 0.0000 0.0000 0.0000 (  4031 PWs)   bands (ev):

   -84.5256 -84.5248 -47.8110 -47.8088 -47.8070 -47.8047 -47.7560 -47.7497
   -26.6463 -26.6368  -8.0847  -8.0131  -8.0044  -7.8923  -7.8148  -7.7922
     0.4401   2.4985   2.9667   4.7946   4.8101   5.9065   6.4404   6.4527
     7.5530   7.8202   7.8973   7.9192   8.0347   8.1150   8.2738   8.3606
     8.4377   8.6965   9.1462   9.1967   9.9115  10.1425  10.1966  10.2098
    10.3520  10.3709  10.3723  10.3764  10.4800  10.4868  10.5021  10.5176
    10.5524  10.6031  10.7266  10.8766  10.8860  10.9619  11.5244  11.7313
    11.9350  11.9625  12.1080  12.4996  12.6044  12.6473  12.8492  13.1447

     occupation numbers 
     1.0000   1.0000   1.0000   1.0000   1.0000   1.0000   1.0000   1.0000
     1.0000   1.0000   1.0000   1.0000   1.0000   1.0000   1.0000   1.0000
     1.0000   1.0000   1.0000   1.0000   1.0000   1.0000   1.0000   1.0000
     1.0000   1.0000   1.0000   1.0000   1.0000   1.0000   1.0000   1.0000
     1.0000   1.0000   1.0000   1.0000   1.0000   1.0000   1.0000   1.0000
     1.0000   1.0000   1.0000   0.0000   0.0000   0.0000   0.0000   0.0000
     0.0000   0.0000   0.0000   0.0000   0.0000   0.0000   0.0000   0.0000
     0.0000   0.0000   0.0000   0.0000   0.0000   0.0000   0.0000   0.0000

          k = 0.0000 0.0000 0.1749 (  4006 PWs)   bands (ev):

   -84.5251 -84.5249 -47.8070 -47.8065 -47.8053 -47.8034 -47.7543 -47.7533
   -26.6439 -26.6392  -8.0638  -8.0283  -7.9802  -7.9239  -7.8092  -7.7978
     0.7227   1.5173   4.0002   4.9306   5.1346   5.3578   5.7835   6.6817
     7.5645   7.8056   7.8936   7.9119   8.1417   8.1750   8.3127   8.3772
     8.6604   8.8091   9.2899   9.4001   9.5896   9.7774   9.9425  10.1885
    10.2415  10.2715  10.3574  10.4025  10.4186  10.4498  10.4976  10.5022
    10.5367  10.5451  10.6489  10.7195  10.9757  11.0051  11.6193  11.6302
    11.7022  11.7855  12.0238  12.5600  12.7902  13.0702  13.3392  13.5757

     occupation numbers 
     1.0000   1.0000   1.0000   1.0000   1.0000   1.0000   1.0000   1.0000
     1.0000   1.0000   1.0000   1.0000   1.0000   1.0000   1.0000   1.0000
     1.0000   1.0000   1.0000   1.0000   1.0000   1.0000   1.0000   1.0000
     1.0000   1.0000   1.0000   1.0000   1.0000   1.0000   1.0000   1.0000
     1.0000   1.0000   1.0000   1.0000   1.0000   1.0000   1.0000   1.0000
     1.0000   1.0000   1.0000   0.0000   0.0000   0.0000   0.0000   0.0000
     0.0000   0.0000   0.0000   0.0000   0.0000   0.0000   0.0000   0.0000
     0.0000   0.0000   0.0000   0.0000   0.0000   0.0000   0.0000   0.0000

          k = 0.0000 0.1954 0.0000 (  4001 PWs)   bands (ev):

   -84.5251 -84.5249 -47.8076 -47.8062 -47.8059 -47.8047 -47.7539 -47.7504
   -26.6463 -26.6368  -8.0831  -8.0153  -8.0110  -7.8937  -7.8148  -7.7923
     0.6721   2.3690   2.9721   3.8673   5.3148   5.3691   6.9019   7.4639
     7.5752   7.7536   7.9389   7.9780   8.0406   8.3187   8.3316   8.3457
     8.6893   8.9630   8.9914   9.2202   9.5704   9.9107  10.0202  10.1526
    10.3102  10.3410  10.3683  10.3988  10.4926  10.5052  10.5057  10.5247
    10.5330  10.5562  10.6439  10.6921  10.7943  10.8022  11.0162  11.5632
    11.6090  12.0624  12.0758  12.0940  12.2959  12.6824  13.2160  13.4479

     occupation numbers 
     1.0000   1.0000   1.0000   1.0000   1.0000   1.0000   1.0000   1.0000
     1.0000   1.0000   1.0000   1.0000   1.0000   1.0000   1.0000   1.0000
     1.0000   1.0000   1.0000   1.0000   1.0000   1.0000   1.0000   1.0000
     1.0000   1.0000   1.0000   1.0000   1.0000   1.0000   1.0000   1.0000
     1.0000   1.0000   1.0000   1.0000   1.0000   1.0000   1.0000   1.0000
     1.0000   1.0000   1.0000   0.0000   0.0000   0.0000   0.0000   0.0000
     0.0000   0.0000   0.0000   0.0000   0.0000   0.0000   0.0000   0.0000
     0.0000   0.0000   0.0000   0.0000   0.0000   0.0000   0.0000   0.0000

          k = 0.0000 0.1954 0.1749 (  4016 PWs)   bands (ev):

   -84.5253 -84.5250 -47.8082 -47.8071 -47.8062 -47.8051 -47.7550 -47.7530
   -26.6439 -26.6392  -8.0675  -8.0322  -7.9818  -7.9229  -7.8092  -7.7979
     0.9318   1.6616   3.2623   4.1268   5.0249   6.2669   6.6597   6.9350
     7.5230   7.8314   7.9264   7.9556   8.0922   8.2875   8.3648   8.3877
     8.7384   9.0071   9.1001   9.3319   9.4523   9.5998   9.6018   9.8711
    10.1893  10.2925  10.3719  10.3974  10.4165  10.4771  10.5083  10.5178
    10.5471  10.5477  10.5668  10.6060  10.7481  10.7667  11.4511  11.5422
    11.6781  12.0119  12.3581  12.6353  12.8596  13.0557  13.1438  13.6770

     occupation numbers 
     1.0000   1.0000   1.0000   1.0000   1.0000   1.0000   1.0000   1.0000
     1.0000   1.0000   1.0000   1.0000   1.0000   1.0000   1.0000   1.0000
     1.0000   1.0000   1.0000   1.0000   1.0000   1.0000   1.0000   1.0000
     1.0000   1.0000   1.0000   1.0000   1.0000   1.0000   1.0000   1.0000
     1.0000   1.0000   1.0000   1.0000   1.0000   1.0000   1.0000   1.0000
     1.0000   1.0000   1.0000   0.0000   0.0000   0.0000   0.0000   0.0000
     0.0000   0.0000   0.0000   0.0000   0.0000   0.0000   0.0000   0.0000
     0.0000   0.0000   0.0000   0.0000   0.0000   0.0000   0.0000   0.0000

          k = 0.3333 0.0000 0.0000 (  3987 PWs)   bands (ev):

   -84.5249 -84.5247 -47.8061 -47.8054 -47.8036 -47.8027 -47.7539 -47.7513
   -26.6354 -26.6262  -8.0509  -8.0445  -8.0113  -7.9784  -7.9684  -7.8664
     1.4791   3.4626   3.6726   4.4246   5.2857   5.2965   5.8027   6.4507
     6.5614   7.2722   7.3118   7.4422   7.9260   8.1436   8.4862   8.4947
     8.5542   8.5565   8.8623   9.1415   9.3482   9.3768   9.4330   9.6258
    10.1979  10.2682  10.3052  10.4027  10.4037  10.4347  10.4403  10.4708
    10.5339  10.5677  10.5715  10.5788  10.5869  10.7429  10.7689  11.1447
    11.4777  11.7132  12.3155  12.9057  13.0402  13.2395  13.7124  14.0713

     occupation numbers 
     1.0000   1.0000   1.0000   1.0000   1.0000   1.0000   1.0000   1.0000
     1.0000   1.0000   1.0000   1.0000   1.0000   1.0000   1.0000   1.0000
     1.0000   1.0000   1.0000   1.0000   1.0000   1.0000   1.0000   1.0000
     1.0000   1.0000   1.0000   1.0000   1.0000   1.0000   1.0000   1.0000
     1.0000   1.0000   1.0000   1.0000   1.0000   1.0000   1.0000   1.0000
     1.0000   1.0000   1.0000   0.0000   0.0000   0.0000   0.0000   0.0000
     0.0000   0.0000   0.0000   0.0000   0.0000   0.0000   0.0000   0.0000
     0.0000   0.0000   0.0000   0.0000   0.0000   0.0000   0.0000   0.0000

          k = 0.3333 0.0000 0.1749 (  4004 PWs)   bands (ev):

   -84.5250 -84.5249 -47.8071 -47.8051 -47.8045 -47.8038 -47.7540 -47.7535
   -26.6331 -26.6285  -8.0411  -8.0258  -8.0201  -7.9920  -7.9468  -7.8953
     1.7343   2.4625   4.6213   4.6730   5.2011   5.2558   5.7008   6.0368
     6.6310   7.3360   7.3916   7.9101   7.9384   8.0858   8.3181   8.4827
     8.5226   8.6676   8.8309   8.9079   9.2273   9.3156   9.5442   9.6478
    10.2568  10.2897  10.3231  10.3708  10.3895  10.4294  10.4477  10.4832
    10.5013  10.5442  10.5689  10.6016  10.6508  10.6716  11.0231  11.0437
    11.0964  11.8391  12.2041  12.2124  12.5675  12.9675  13.4107  13.9743

     occupation numbers 
     1.0000   1.0000   1.0000   1.0000   1.0000   1.0000   1.0000   1.0000
     1.0000   1.0000   1.0000   1.0000   1.0000   1.0000   1.0000   1.0000
     1.0000   1.0000   1.0000   1.0000   1.0000   1.0000   1.0000   1.0000
     1.0000   1.0000   1.0000   1.0000   1.0000   1.0000   1.0000   1.0000
     1.0000   1.0000   1.0000   1.0000   1.0000   1.0000   1.0000   1.0000
     1.0000   1.0000   1.0000   0.0000   0.0000   0.0000   0.0000   0.0000
     0.0000   0.0000   0.0000   0.0000   0.0000   0.0000   0.0000   0.0000
     0.0000   0.0000   0.0000   0.0000   0.0000   0.0000   0.0000   0.0000

          k = 0.3333 0.1954 0.0000 (  3995 PWs)   bands (ev):

   -84.5251 -84.5247 -47.8071 -47.8052 -47.8044 -47.8028 -47.7546 -47.7521
   -26.6354 -26.6262  -8.0502  -8.0433  -8.0117  -7.9795  -7.9739  -7.8675
     1.6149   3.2686   3.7800   4.4839   4.8619   5.3569   5.9841   6.2929
     6.4919   7.2260   7.7582   7.9573   8.0572   8.1871   8.3022   8.4691
     8.5696   8.5880   8.7811   8.9852   9.2579   9.2744   9.4736   9.6248
    10.2833  10.2894  10.3210  10.3755  10.3937  10.3950  10.4461  10.4927
    10.5102  10.5693  10.5877  10.5893  10.5999  10.6895  10.8282  11.1141
    11.2122  12.1554  12.1926  12.5545  12.7555  12.8986  13.0590  13.6986

     occupation numbers 
     1.0000   1.0000   1.0000   1.0000   1.0000   1.0000   1.0000   1.0000
     1.0000   1.0000   1.0000   1.0000   1.0000   1.0000   1.0000   1.0000
     1.0000   1.0000   1.0000   1.0000   1.0000   1.0000   1.0000   1.0000
     1.0000   1.0000   1.0000   1.0000   1.0000   1.0000   1.0000   1.0000
     1.0000   1.0000   1.0000   1.0000   1.0000   1.0000   1.0000   1.0000
     1.0000   1.0000   1.0000   0.0000   0.0000   0.0000   0.0000   0.0000
     0.0000   0.0000   0.0000   0.0000   0.0000   0.0000   0.0000   0.0000
     0.0000   0.0000   0.0000   0.0000   0.0000   0.0000   0.0000   0.0000

          k = 0.3333 0.1954 0.1749 (  3985 PWs)   bands (ev):

   -84.5249 -84.5247 -47.8058 -47.8046 -47.8041 -47.8026 -47.7526 -47.7521
   -26.6331 -26.6285  -8.0406  -8.0279  -8.0209  -7.9951  -7.9480  -7.8947
     1.8561   2.5406   4.1496   4.5538   4.9694   5.4038   5.7632   6.7291
     7.0602   7.2104   7.5306   7.5792   7.9963   8.1313   8.3222   8.3265
     8.4327   8.6360   8.8958   9.0594   9.1336   9.2648   9.3894   9.4443
    10.2858  10.3132  10.3527  10.3586  10.3940  10.4226  10.4415  10.4965
    10.5165  10.5394  10.5518  10.5906  10.6413  10.6591  10.9481  11.1223
    11.2389  11.5105  12.2222  12.3474  12.4669  12.9315  13.3825  13.5637

     occupation numbers 
     1.0000   1.0000   1.0000   1.0000   1.0000   1.0000   1.0000   1.0000
     1.0000   1.0000   1.0000   1.0000   1.0000   1.0000   1.0000   1.0000
     1.0000   1.0000   1.0000   1.0000   1.0000   1.0000   1.0000   1.0000
     1.0000   1.0000   1.0000   1.0000   1.0000   1.0000   1.0000   1.0000
     1.0000   1.0000   1.0000   1.0000   1.0000   1.0000   1.0000   1.0000
     1.0000   1.0000   1.0000   0.0000   0.0000   0.0000   0.0000   0.0000
     0.0000   0.0000   0.0000   0.0000   0.0000   0.0000   0.0000   0.0000
     0.0000   0.0000   0.0000   0.0000   0.0000   0.0000   0.0000   0.0000

     highest occupied, lowest unoccupied level (ev):    10.3723   10.3586

!    total energy              =   -1987.85391344 Ry
     estimated scf accuracy    <       0.00000024 Ry

     The total energy is the sum of the following terms:
     one-electron contribution =    -619.81978699 Ry
     hartree contribution      =     358.37465356 Ry
     xc contribution           =    -113.89330380 Ry
     ewald contribution        =    -474.88779022 Ry
     one-center paw contrib.   =   -1137.62768600 Ry
      -> PAW hartree energy AE =     162.82459677 Ry
      -> PAW hartree energy PS =    -162.11384447 Ry
      -> PAW xc energy AE      =    -885.94637193 Ry
      -> PAW xc energy PS      =      25.10770594 Ry
      -> total E_H with PAW    =     359.08540586 Ry
      -> total E_XC with PAW   =    -974.73196978 Ry

     convergence has been achieved in  24 iterations

     Writing all to output data dir calculations_bands_val/myprefix.save/
 
     init_run     :      9.48s CPU      2.88s WALL (       1 calls)
     electrons    :    122.09s CPU     32.69s WALL (       1 calls)

     Called by init_run:
     wfcinit      :      1.50s CPU      0.40s WALL (       1 calls)
     wfcinit:atom :      0.01s CPU      0.00s WALL (       4 calls)
     wfcinit:wfcr :      1.39s CPU      0.37s WALL (       4 calls)
     potinit      :      3.61s CPU      0.94s WALL (       1 calls)
     hinit0       :      3.51s CPU      1.27s WALL (       1 calls)

     Called by electrons:
     c_bands      :     36.77s CPU      9.61s WALL (      24 calls)
     sum_band     :     17.20s CPU      5.12s WALL (      24 calls)
     v_of_rho     :      1.46s CPU      0.38s WALL (      25 calls)
     v_h          :      0.12s CPU      0.03s WALL (      25 calls)
     v_xc         :      1.34s CPU      0.35s WALL (      25 calls)
     newd         :      9.97s CPU      2.81s WALL (      25 calls)
     PAW_pot      :     58.59s CPU     15.25s WALL (      25 calls)
     mix_rho      :      0.50s CPU      0.13s WALL (      24 calls)

     Called by c_bands:
     init_us_2    :      0.42s CPU      0.11s WALL (     196 calls)
     init_us_2:cp :      0.41s CPU      0.11s WALL (     196 calls)
     cegterg      :     31.39s CPU      8.17s WALL (      96 calls)

     Called by sum_band:
     sum_band:wei :      0.01s CPU      0.00s WALL (      24 calls)
     sum_band:loo :      5.28s CPU      1.36s WALL (      24 calls)
     sum_band:buf :      0.09s CPU      0.02s WALL (      96 calls)
     sum_band:ini :      0.17s CPU      0.04s WALL (      96 calls)
     sum_band:cal :      0.44s CPU      0.11s WALL (      96 calls)
     sum_band:bec :      0.10s CPU      0.03s WALL (      96 calls)
     addusdens    :      9.19s CPU      3.02s WALL (      24 calls)
     addusd:skk   :      0.02s CPU      0.01s WALL (      72 calls)
     addusd:dgemm :      1.82s CPU      1.13s WALL (      72 calls)
     addusd:qvan2 :      6.87s CPU      1.74s WALL (      72 calls)

     Called by *egterg:
     cdiaghg      :      5.37s CPU      1.41s WALL (     318 calls)
     cegterg:over :      1.03s CPU      0.27s WALL (     222 calls)
     cegterg:upda :      0.59s CPU      0.15s WALL (     222 calls)
     cegterg:last :      0.89s CPU      0.23s WALL (     153 calls)
     cdiaghg:chol :      0.37s CPU      0.10s WALL (     318 calls)
     cdiaghg:inve :      0.07s CPU      0.02s WALL (     318 calls)
     cdiaghg:para :      0.83s CPU      0.22s WALL (     636 calls)
     h_psi        :     23.15s CPU      6.01s WALL (     322 calls)
     s_psi        :      0.80s CPU      0.22s WALL (     322 calls)
     g_psi        :      0.04s CPU      0.01s WALL (     222 calls)

     Called by h_psi:
     h_psi:calbec :      1.20s CPU      0.32s WALL (     322 calls)
     vloc_psi     :     20.78s CPU      5.40s WALL (     322 calls)
     add_vuspsi   :      1.08s CPU      0.28s WALL (     322 calls)

     General routines
     calbec       :      1.63s CPU      0.43s WALL (     418 calls)
     fft          :      2.46s CPU      0.75s WALL (     323 calls)
     ffts         :      0.58s CPU      0.15s WALL (      49 calls)
     fftw         :     21.61s CPU      5.62s WALL (   34092 calls)
     interpolate  :      0.66s CPU      0.18s WALL (      25 calls)
 
     Parallel routines

     PAW routines
     PAW_pot      :     58.59s CPU     15.25s WALL (      25 calls)
     PAW_symme    :      0.18s CPU      0.05s WALL (      49 calls)
 
     PWSCF        :   2m12.67s CPU     36.23s WALL

 
   This run was terminated on:  13:57:37   4Jun2023            

=------------------------------------------------------------------------------=
   JOB DONE.
=------------------------------------------------------------------------------=
