
     Program PWSCF v.7.0 starts on  4Jun2023 at 12:27:33 

     This program is part of the open-source Quantum ESPRESSO suite
     for quantum simulation of materials; please cite
         "P. Giannozzi et al., J. Phys.:Condens. Matter 21 395502 (2009);
         "P. Giannozzi et al., J. Phys.:Condens. Matter 29 465901 (2017);
         "P. Giannozzi et al., J. Chem. Phys. 152 154105 (2020);
          URL http://www.quantum-espresso.org", 
     in publications or presentations arising from this work. More details at
     http://www.quantum-espresso.org/quote

     Parallel version (MPI & OpenMP), running on      32 processor cores
     Number of MPI processes:                 8
     Threads/MPI process:                     4

     MPI processes distributed on     1 nodes
     K-points division:     npool     =       2
     R & G space division:  proc/nbgrp/npool/nimage =       4
     142272 MiB available memory on the printing compute node when the environment starts
 
     Reading input from espresso_417.pwi
Warning: card &CELL ignored
Warning: card / ignored

     Current dimensions of program PWSCF are:
     Max number of different atomic species (ntypx) = 10
     Max number of k-points (npk) =  40000
     Max angular momentum in pseudopotentials (lmaxx) =  4
     Message from routine setup:
     using ibrav=0 with symmetry is DISCOURAGED, use correct ibrav instead

     Subspace diagonalization in iterative solution of the eigenvalue problem:
     one sub-group per band group will be used
     scalapack distributed-memory algorithm (size of sub-group:  2*  2 procs)

 
     Parallelization info
     --------------------
     sticks:   dense  smooth     PW     G-vecs:    dense   smooth      PW
     Min         422     213     60                14245     5035     766
     Max         423     214     61                14246     5037     769
     Sum        1689     853    241                56983    20143    3067
 
     Using Slab Decomposition
 


     bravais-lattice index     =            0
     lattice parameter (alat)  =       9.3372  a.u.
     unit-cell volume          =     907.1863 (a.u.)^3
     number of atoms/cell      =           16
     number of atomic types    =            3
     number of electrons       =        28.00
     number of Kohn-Sham states=           64
     kinetic-energy cutoff     =      30.0000  Ry
     charge density cutoff     =     240.0000  Ry
     scf convergence threshold =      1.0E-06
     mixing beta               =       0.7000
     number of iterations used =            8  plain     mixing
     Exchange-correlation= PBE
                           (   1   4   3   4   0   0   0)

     celldm(1)=   9.337190  celldm(2)=   0.000000  celldm(3)=   0.000000
     celldm(4)=   0.000000  celldm(5)=   0.000000  celldm(6)=   0.000000

     crystal axes: (cart. coord. in units of alat)
               a(1) = (   1.000000   0.000000   0.000000 )  
               a(2) = (   0.000000   1.016595   0.000000 )  
               a(3) = (   0.000000   0.000000   1.096226 )  

     reciprocal axes: (cart. coord. in units 2 pi/alat)
               b(1) = (  1.000000  0.000000  0.000000 )  
               b(2) = (  0.000000  0.983676  0.000000 )  
               b(3) = (  0.000000  0.000000  0.912221 )  


     PseudoPot. # 1 for B  read from file:
     /home/pragov/projects/rrg-bengioy-ad/pragov/crystal_structure_design/SSSP/b_pbe_v1.4.uspp.F.UPF
     MD5 check sum: cc6de2960df11db49a60e589f9ebb39b
     Pseudo is Ultrasoft + core correction, Zval =  3.0
     Generated by new atomic code, or converted to UPF format
     Using radial grid of  781 points,  4 beta functions with: 
                l(1) =   0
                l(2) =   0
                l(3) =   1
                l(4) =   1
     Q(r) pseudized with  8 coefficients,  rinner =    1.100   1.100   1.100


     PseudoPot. # 2 for H  read from file:
     /home/pragov/projects/rrg-bengioy-ad/pragov/crystal_structure_design/SSSP/H.pbe-rrkjus_psl.1.0.0.UPF
     MD5 check sum: f52b6d4d1c606e5624b1dc7b2218f220
     Pseudo is Ultrasoft, Zval =  1.0
     Generated using "atomic" code by A. Dal Corso  v.5.1
     Using radial grid of  929 points,  2 beta functions with: 
                l(1) =   0
                l(2) =   0
     Q(r) pseudized with 0 coefficients 


     PseudoPot. # 3 for N  read from file:
     /home/pragov/projects/rrg-bengioy-ad/pragov/crystal_structure_design/SSSP/N.pbe-n-radius_5.UPF
     MD5 check sum: 16739722b17309cd8fe442a2ace49922
     Pseudo is Ultrasoft + core correction, Zval =  5.0
     Generated using "atomic" code by A. Dal Corso  v.5.1
     Using radial grid of 1085 points,  4 beta functions with: 
                l(1) =   0
                l(2) =   0
                l(3) =   1
                l(4) =   1
     Q(r) pseudized with 0 coefficients 


     atomic species   valence    mass     pseudopotential
        B              3.00    10.81000     B ( 1.00)
        H              1.00     1.00800     H ( 1.00)
        N              5.00    14.00700     N ( 1.00)

      4 Sym. Ops. (no inversion) found ( 2 have fractional translation)


                                    s                        frac. trans.

      isym =  1     identity                                     

 cryst.   s( 1) = (     1          0          0      )
                  (     0          1          0      )
                  (     0          0          1      )

 cart.    s( 1) = (  1.0000000  0.0000000  0.0000000 )
                  (  0.0000000  1.0000000  0.0000000 )
                  (  0.0000000  0.0000000  1.0000000 )


      isym =  2     180 deg rotation - cart. axis [0,1,0]        

 cryst.   s( 2) = (    -1          0          0      )    f =(  0.0000000 )
                  (     0          1          0      )       (  0.5000000 )
                  (     0          0         -1      )       ( -0.5000000 )

 cart.    s( 2) = ( -1.0000000  0.0000000  0.0000000 )    f =(  0.0000000 )
                  (  0.0000000  1.0000000  0.0000000 )       (  0.5082974 )
                  (  0.0000000  0.0000000 -1.0000000 )       ( -0.5481130 )


      isym =  3     inv. 180 deg rotation - cart. axis [0,0,1]   

 cryst.   s( 3) = (     1          0          0      )
                  (     0          1          0      )
                  (     0          0         -1      )

 cart.    s( 3) = (  1.0000000  0.0000000  0.0000000 )
                  (  0.0000000  1.0000000  0.0000000 )
                  (  0.0000000  0.0000000 -1.0000000 )


      isym =  4     inv. 180 deg rotation - cart. axis [1,0,0]   

 cryst.   s( 4) = (    -1          0          0      )    f =(  0.0000000 )
                  (     0          1          0      )       (  0.5000000 )
                  (     0          0          1      )       (  0.5000000 )

 cart.    s( 4) = ( -1.0000000  0.0000000  0.0000000 )    f =(  0.0000000 )
                  (  0.0000000  1.0000000  0.0000000 )       (  0.5082974 )
                  (  0.0000000  0.0000000  1.0000000 )       (  0.5481130 )


   Cartesian axes

     site n.     atom                  positions (alat units)
         1           B   tau(   1) = (   0.1788690   1.0087588   0.0000000  )
         2           B   tau(   2) = (   0.8211310   0.5004615   0.5481130  )
         3           H   tau(   3) = (   0.7198580   0.4035830   0.3444013  )
         4           H   tau(   4) = (   0.8476100   0.9113823   0.3800243  )
         5           H   tau(   5) = (   0.7198580   0.4035830   0.7518246  )
         6           H   tau(   6) = (   0.2801420   0.9118804   0.8925143  )
         7           H   tau(   7) = (   0.2801420   0.9118804   0.2037117  )
         8           H   tau(   8) = (   0.0670380   0.4636943   0.5481130  )
         9           H   tau(   9) = (   0.9329620   0.9719916   0.0000000  )
        10           H   tau(  10) = (   0.1523900   0.4030849   0.1680887  )
        11           H   tau(  11) = (   0.4370660   0.3541338   0.0000000  )
        12           H   tau(  12) = (   0.5629340   0.8624312   0.5481130  )
        13           H   tau(  13) = (   0.8476100   0.9113823   0.7162017  )
        14           H   tau(  14) = (   0.1523900   0.4030849   0.9281372  )
        15           N   tau(  15) = (   0.7658930   0.8185916   0.5481130  )
        16           N   tau(  16) = (   0.2341070   0.3102942   0.0000000  )

   Crystallographic axes

     site n.     atom                  positions (cryst. coord.)
         1           B   tau(   1) = (  0.1788690  0.9922920  0.0000000  )
         2           B   tau(   2) = (  0.8211310  0.4922920  0.5000000  )
         3           H   tau(   3) = (  0.7198580  0.3969950  0.3141700  )
         4           H   tau(   4) = (  0.8476100  0.8965050  0.3466660  )
         5           H   tau(   5) = (  0.7198580  0.3969950  0.6858300  )
         6           H   tau(   6) = (  0.2801420  0.8969950  0.8141700  )
         7           H   tau(   7) = (  0.2801420  0.8969950  0.1858300  )
         8           H   tau(   8) = (  0.0670380  0.4561250  0.5000000  )
         9           H   tau(   9) = (  0.9329620  0.9561250  0.0000000  )
        10           H   tau(  10) = (  0.1523900  0.3965050  0.1533340  )
        11           H   tau(  11) = (  0.4370660  0.3483530  0.0000000  )
        12           H   tau(  12) = (  0.5629340  0.8483530  0.5000000  )
        13           H   tau(  13) = (  0.8476100  0.8965050  0.6533340  )
        14           H   tau(  14) = (  0.1523900  0.3965050  0.8466660  )
        15           N   tau(  15) = (  0.7658930  0.8052290  0.5000000  )
        16           N   tau(  16) = (  0.2341070  0.3052290  0.0000000  )

     number of k points=     8
                       cart. coord. in units 2pi/alat
        k(    1) = (   0.0000000   0.0000000   0.0000000), wk =   0.0740741
        k(    2) = (   0.0000000   0.0000000   0.3040736), wk =   0.1481481
        k(    3) = (   0.0000000   0.3278921   0.0000000), wk =   0.1481481
        k(    4) = (   0.0000000   0.3278921   0.3040736), wk =   0.2962963
        k(    5) = (   0.3333333   0.0000000   0.0000000), wk =   0.1481481
        k(    6) = (   0.3333333   0.0000000   0.3040736), wk =   0.2962963
        k(    7) = (   0.3333333   0.3278921   0.0000000), wk =   0.2962963
        k(    8) = (   0.3333333   0.3278921   0.3040736), wk =   0.5925926

                       cryst. coord.
        k(    1) = (   0.0000000   0.0000000   0.0000000), wk =   0.0740741
        k(    2) = (   0.0000000   0.0000000   0.3333333), wk =   0.1481481
        k(    3) = (   0.0000000   0.3333333   0.0000000), wk =   0.1481481
        k(    4) = (   0.0000000   0.3333333   0.3333333), wk =   0.2962963
        k(    5) = (   0.3333333   0.0000000   0.0000000), wk =   0.1481481
        k(    6) = (   0.3333333   0.0000000   0.3333333), wk =   0.2962963
        k(    7) = (   0.3333333   0.3333333   0.0000000), wk =   0.2962963
        k(    8) = (   0.3333333   0.3333333   0.3333333), wk =   0.5925926

     Dense  grid:    56983 G-vectors     FFT dimensions: (  48,  48,  54)

     Smooth grid:    20143 G-vectors     FFT dimensions: (  36,  36,  36)

     Dynamical RAM for                 wfc:       0.61 MB

     Dynamical RAM for     wfc (w. buffer):       3.07 MB

     Dynamical RAM for           str. fact:       0.65 MB

     Dynamical RAM for           local pot:       0.00 MB

     Dynamical RAM for          nlocal pot:       0.54 MB

     Dynamical RAM for                qrad:       1.07 MB

     Dynamical RAM for          rho,v,vnew:       1.39 MB

     Dynamical RAM for               rhoin:       0.46 MB

     Dynamical RAM for            rho*nmix:       3.48 MB

     Dynamical RAM for           G-vectors:       0.85 MB

     Dynamical RAM for          h,s,v(r/c):       0.19 MB

     Dynamical RAM for          <psi|beta>:       0.05 MB

     Dynamical RAM for                 psi:       1.23 MB

     Dynamical RAM for                hpsi:       1.23 MB

     Dynamical RAM for                spsi:       1.23 MB

     Dynamical RAM for      wfcinit/wfcrot:       1.32 MB

     Dynamical RAM for           addusdens:       6.09 MB

     Estimated static dynamical RAM per process >      10.13 MB

     Estimated max dynamical RAM per process >      19.70 MB

     Estimated total dynamical RAM >     143.68 MB

     Check: negative core charge=   -0.000002

     Initial potential from superposition of free atoms

     starting charge      27.9993, renormalised to      28.0000
     Starting wfcs are   28 randomized atomic wfcs +   36 random wfcs

     total cpu time spent up to now is        1.6 secs

     Self-consistent Calculation

     iteration #  1     ecut=    30.00 Ry     beta= 0.70
     Davidson diagonalization with overlap

---- Real-time Memory Report at c_bands before calling an iterative solver
           183 MiB given to the printing process from OS
             0 MiB allocation reported by mallinfo(arena+hblkhd)
        141623 MiB available memory on the node where the printing process lives
------------------
     ethr =  1.00E-02,  avg # of iterations =  7.1

     total cpu time spent up to now is        2.5 secs

     total energy              =     -67.02916813 Ry
     estimated scf accuracy    <       1.57593075 Ry

     iteration #  2     ecut=    30.00 Ry     beta= 0.70
     Davidson diagonalization with overlap

---- Real-time Memory Report at c_bands before calling an iterative solver
           194 MiB given to the printing process from OS
             0 MiB allocation reported by mallinfo(arena+hblkhd)
        141536 MiB available memory on the node where the printing process lives
------------------
     ethr =  5.63E-03,  avg # of iterations =  1.0

     total cpu time spent up to now is        2.8 secs

     total energy              =     -67.32244951 Ry
     estimated scf accuracy    <       0.49114688 Ry

     iteration #  3     ecut=    30.00 Ry     beta= 0.70
     Davidson diagonalization with overlap

---- Real-time Memory Report at c_bands before calling an iterative solver
           198 MiB given to the printing process from OS
             0 MiB allocation reported by mallinfo(arena+hblkhd)
        141502 MiB available memory on the node where the printing process lives
------------------
     ethr =  1.75E-03,  avg # of iterations =  1.0

     total cpu time spent up to now is        3.0 secs

     total energy              =     -67.43633521 Ry
     estimated scf accuracy    <       0.02636270 Ry

     iteration #  4     ecut=    30.00 Ry     beta= 0.70
     Davidson diagonalization with overlap

---- Real-time Memory Report at c_bands before calling an iterative solver
           198 MiB given to the printing process from OS
             0 MiB allocation reported by mallinfo(arena+hblkhd)
        141500 MiB available memory on the node where the printing process lives
------------------
     ethr =  9.42E-05,  avg # of iterations =  2.8

     total cpu time spent up to now is        3.4 secs

     total energy              =     -67.44195552 Ry
     estimated scf accuracy    <       0.00331910 Ry

     iteration #  5     ecut=    30.00 Ry     beta= 0.70
     Davidson diagonalization with overlap

---- Real-time Memory Report at c_bands before calling an iterative solver
           198 MiB given to the printing process from OS
             0 MiB allocation reported by mallinfo(arena+hblkhd)
        141501 MiB available memory on the node where the printing process lives
------------------
     ethr =  1.19E-05,  avg # of iterations =  5.9

     total cpu time spent up to now is        3.8 secs

     total energy              =     -67.44269680 Ry
     estimated scf accuracy    <       0.00005831 Ry

     iteration #  6     ecut=    30.00 Ry     beta= 0.70
     Davidson diagonalization with overlap

---- Real-time Memory Report at c_bands before calling an iterative solver
           198 MiB given to the printing process from OS
             0 MiB allocation reported by mallinfo(arena+hblkhd)
        141496 MiB available memory on the node where the printing process lives
------------------
     ethr =  2.08E-07,  avg # of iterations =  2.5

     total cpu time spent up to now is        4.1 secs

     total energy              =     -67.44270668 Ry
     estimated scf accuracy    <       0.00000141 Ry

     iteration #  7     ecut=    30.00 Ry     beta= 0.70
     Davidson diagonalization with overlap

---- Real-time Memory Report at c_bands before calling an iterative solver
           198 MiB given to the printing process from OS
             0 MiB allocation reported by mallinfo(arena+hblkhd)
        141496 MiB available memory on the node where the printing process lives
------------------
     ethr =  5.02E-09,  avg # of iterations =  1.1

     total cpu time spent up to now is        4.4 secs

     End of self-consistent calculation

          k = 0.0000 0.0000 0.0000 (  2541 PWs)   bands (ev):

   -18.6321 -18.5116  -8.6211  -8.5911  -8.4109  -8.1617  -8.1266  -7.9979
    -5.5190  -4.7961  -3.0522  -2.5865  -2.3996  -2.2388   3.8406   4.5221
     6.1443   6.2345   6.3162   6.8679   7.0206   7.9065   7.9362   8.8710
    10.2912  10.8094  10.8280  10.9623  11.7135  12.2988  12.7839  13.0736
    13.1313  13.2042  13.7608  14.2471  14.8301  15.4234  16.7218  16.8359
    16.9080  17.1194  17.7177  18.0747  18.7359  19.3468  19.6095  20.3443
    21.3746  22.0397  22.3569  22.4493  22.6521  23.2846  23.9245  24.4676
    24.6119  24.7551  24.7733  25.2867  25.4746  25.6497  26.0572  26.7505

     occupation numbers 
     1.0000   1.0000   1.0000   1.0000   1.0000   1.0000   1.0000   1.0000
     1.0000   1.0000   1.0000   1.0000   1.0000   1.0000   0.0000   0.0000
     0.0000   0.0000   0.0000   0.0000   0.0000   0.0000   0.0000   0.0000
     0.0000   0.0000   0.0000   0.0000   0.0000   0.0000   0.0000   0.0000
     0.0000   0.0000   0.0000   0.0000   0.0000   0.0000   0.0000   0.0000
     0.0000   0.0000   0.0000   0.0000   0.0000   0.0000   0.0000   0.0000
     0.0000   0.0000   0.0000   0.0000   0.0000   0.0000   0.0000   0.0000
     0.0000   0.0000   0.0000   0.0000   0.0000   0.0000   0.0000   0.0000

          k = 0.0000 0.0000 0.3041 (  2514 PWs)   bands (ev):

   -18.5992 -18.5384  -8.8405  -8.7393  -8.3319  -8.2491  -8.0132  -7.7820
    -5.2326  -4.8492  -2.8481  -2.7627  -2.6541  -2.4125   4.3266   4.8086
     6.1416   6.4298   6.5240   7.3446   7.3829   7.6137   8.3533   8.9834
     9.4444  10.1382  10.2041  10.7129  11.5081  11.9684  12.1581  12.5004
    12.6091  13.0335  13.9438  14.0421  14.4458  16.3018  16.8240  17.3776
    17.7943  17.8621  18.4443  18.6102  19.0022  19.3719  20.1663  20.3449
    20.4609  20.9006  21.0732  21.6214  22.7027  23.3013  23.6539  24.0740
    24.3048  25.0378  25.2432  25.8655  26.0836  26.3675  26.4454  27.0404

     occupation numbers 
     1.0000   1.0000   1.0000   1.0000   1.0000   1.0000   1.0000   1.0000
     1.0000   1.0000   1.0000   1.0000   1.0000   1.0000   0.0000   0.0000
     0.0000   0.0000   0.0000   0.0000   0.0000   0.0000   0.0000   0.0000
     0.0000   0.0000   0.0000   0.0000   0.0000   0.0000   0.0000   0.0000
     0.0000   0.0000   0.0000   0.0000   0.0000   0.0000   0.0000   0.0000
     0.0000   0.0000   0.0000   0.0000   0.0000   0.0000   0.0000   0.0000
     0.0000   0.0000   0.0000   0.0000   0.0000   0.0000   0.0000   0.0000
     0.0000   0.0000   0.0000   0.0000   0.0000   0.0000   0.0000   0.0000

          k = 0.0000 0.3279 0.0000 (  2494 PWs)   bands (ev):

   -18.5943 -18.5339  -8.6296  -8.6186  -8.4713  -8.2629  -8.2206  -8.2121
    -4.7946  -4.4245  -2.8727  -2.6978  -2.5924  -2.4541   3.8298   4.1099
     4.9949   5.8535   6.6865   6.9986   7.7292   7.8348   8.6816   9.0329
     9.6719   9.7893  10.8556  11.4464  12.1503  12.2940  12.5724  13.1458
    13.9384  14.2556  14.2722  14.8811  15.0133  15.1782  16.4082  17.0417
    17.3834  17.5330  18.1204  18.2344  18.6139  18.7480  19.4048  20.2570
    20.4499  21.1049  21.1374  21.4211  21.7628  22.2793  22.8961  22.9274
    23.2080  23.9804  24.5245  24.8589  25.9311  25.9801  26.8144  26.8553

     occupation numbers 
     1.0000   1.0000   1.0000   1.0000   1.0000   1.0000   1.0000   1.0000
     1.0000   1.0000   1.0000   1.0000   1.0000   1.0000   0.0000   0.0000
     0.0000   0.0000   0.0000   0.0000   0.0000   0.0000   0.0000   0.0000
     0.0000   0.0000   0.0000   0.0000   0.0000   0.0000   0.0000   0.0000
     0.0000   0.0000   0.0000   0.0000   0.0000   0.0000   0.0000   0.0000
     0.0000   0.0000   0.0000   0.0000   0.0000   0.0000   0.0000   0.0000
     0.0000   0.0000   0.0000   0.0000   0.0000   0.0000   0.0000   0.0000
     0.0000   0.0000   0.0000   0.0000   0.0000   0.0000   0.0000   0.0000

          k = 0.0000 0.3279 0.3041 (  2514 PWs)   bands (ev):

   -18.5764 -18.5462  -8.9393  -8.8907  -8.3400  -8.2917  -8.0172  -7.9052
    -4.6522  -4.4394  -3.0289  -2.9954  -2.5677  -2.4240   4.5001   4.7828
     5.2314   6.1079   6.3562   6.8405   7.9156   8.1475   8.1658   8.8246
     9.4853   9.6019  10.0693  10.7628  11.5386  11.7363  12.8365  12.9530
    13.7645  13.9717  14.5205  15.1033  15.2577  15.4463  16.2698  16.8115
    17.1263  17.9042  18.3250  19.0784  19.2608  19.5582  19.6320  20.0805
    20.3701  20.3862  21.3162  21.4528  22.0186  22.2319  22.8634  23.3727
    23.7626  24.0490  24.2298  24.7593  24.9385  25.4803  26.5071  26.9429

     occupation numbers 
     1.0000   1.0000   1.0000   1.0000   1.0000   1.0000   1.0000   1.0000
     1.0000   1.0000   1.0000   1.0000   1.0000   1.0000   0.0000   0.0000
     0.0000   0.0000   0.0000   0.0000   0.0000   0.0000   0.0000   0.0000
     0.0000   0.0000   0.0000   0.0000   0.0000   0.0000   0.0000   0.0000
     0.0000   0.0000   0.0000   0.0000   0.0000   0.0000   0.0000   0.0000
     0.0000   0.0000   0.0000   0.0000   0.0000   0.0000   0.0000   0.0000
     0.0000   0.0000   0.0000   0.0000   0.0000   0.0000   0.0000   0.0000
     0.0000   0.0000   0.0000   0.0000   0.0000   0.0000   0.0000   0.0000

          k = 0.3333 0.0000 0.0000 (  2508 PWs)   bands (ev):

   -18.6007 -18.5295  -8.8078  -8.5419  -8.5303  -8.1816  -8.1149  -7.8083
    -5.2501  -4.8296  -3.1870  -2.7093  -2.5501  -2.4081   4.3709   4.9316
     5.8441   6.5667   6.7396   7.1120   7.6652   8.1571   8.6651   8.7278
     9.4347   9.9649  10.8311  11.1845  11.7214  11.7493  12.2762  12.6900
    13.0444  13.2538  14.0707  14.1575  14.1774  14.7409  16.1507  16.4873
    16.8399  17.0114  18.0209  19.0114  19.2844  19.6069  19.9157  20.4938
    20.6163  21.4703  21.7210  22.5281  22.7773  23.2465  23.2966  24.1440
    24.4071  24.4706  24.9010  25.2333  25.4659  25.8123  26.2282  26.3825

     occupation numbers 
     1.0000   1.0000   1.0000   1.0000   1.0000   1.0000   1.0000   1.0000
     1.0000   1.0000   1.0000   1.0000   1.0000   1.0000   0.0000   0.0000
     0.0000   0.0000   0.0000   0.0000   0.0000   0.0000   0.0000   0.0000
     0.0000   0.0000   0.0000   0.0000   0.0000   0.0000   0.0000   0.0000
     0.0000   0.0000   0.0000   0.0000   0.0000   0.0000   0.0000   0.0000
     0.0000   0.0000   0.0000   0.0000   0.0000   0.0000   0.0000   0.0000
     0.0000   0.0000   0.0000   0.0000   0.0000   0.0000   0.0000   0.0000
     0.0000   0.0000   0.0000   0.0000   0.0000   0.0000   0.0000   0.0000

          k = 0.3333 0.0000 0.3041 (  2521 PWs)   bands (ev):

   -18.5801 -18.5446  -8.8725  -8.7781  -8.4282  -8.1714  -7.9422  -7.8828
    -5.1214  -4.9164  -2.9331  -2.7238  -2.6348  -2.5287   4.7162   5.2227
     5.7959   6.3601   6.5362   7.1180   8.3479   8.6717   8.7118   9.0483
     9.3251   9.9807  10.0457  10.5489  10.9379  11.4752  12.0143  12.1933
    12.7642  12.8745  13.3657  14.2132  14.9465  15.6039  16.0650  16.6999
    17.1421  17.8807  18.3434  18.8056  18.8912  19.3800  19.8896  20.3762
    20.6520  21.1134  21.7407  22.8221  22.8980  23.0789  23.6715  23.8213
    24.1079  24.6055  24.8615  25.4181  25.5585  25.6527  25.9810  26.2792

     occupation numbers 
     1.0000   1.0000   1.0000   1.0000   1.0000   1.0000   1.0000   1.0000
     1.0000   1.0000   1.0000   1.0000   1.0000   1.0000   0.0000   0.0000
     0.0000   0.0000   0.0000   0.0000   0.0000   0.0000   0.0000   0.0000
     0.0000   0.0000   0.0000   0.0000   0.0000   0.0000   0.0000   0.0000
     0.0000   0.0000   0.0000   0.0000   0.0000   0.0000   0.0000   0.0000
     0.0000   0.0000   0.0000   0.0000   0.0000   0.0000   0.0000   0.0000
     0.0000   0.0000   0.0000   0.0000   0.0000   0.0000   0.0000   0.0000
     0.0000   0.0000   0.0000   0.0000   0.0000   0.0000   0.0000   0.0000

          k = 0.3333 0.3279 0.0000 (  2513 PWs)   bands (ev):

   -18.5757 -18.5404  -8.8959  -8.8013  -8.4169  -8.2370  -8.0906  -7.9729
    -4.6620  -4.4295  -3.0906  -2.8022  -2.7515  -2.6473   4.3998   4.9110
     5.7097   6.4195   6.5259   7.0403   7.3291   7.9265   8.8026   8.9743
     9.6081   9.9656  10.4868  11.1595  11.4425  11.6118  12.6984  12.8240
    13.3412  13.9922  14.6139  14.6785  15.0173  15.1614  15.7528  16.9233
    17.1412  17.1768  17.7994  18.1571  18.7703  19.2068  19.2747  20.4005
    20.5615  20.7892  21.3268  21.5328  22.1444  22.6624  23.1325  23.2263
    23.6526  23.7234  24.6321  24.6949  25.4743  25.7626  26.3401  26.7732

     occupation numbers 
     1.0000   1.0000   1.0000   1.0000   1.0000   1.0000   1.0000   1.0000
     1.0000   1.0000   1.0000   1.0000   1.0000   1.0000   0.0000   0.0000
     0.0000   0.0000   0.0000   0.0000   0.0000   0.0000   0.0000   0.0000
     0.0000   0.0000   0.0000   0.0000   0.0000   0.0000   0.0000   0.0000
     0.0000   0.0000   0.0000   0.0000   0.0000   0.0000   0.0000   0.0000
     0.0000   0.0000   0.0000   0.0000   0.0000   0.0000   0.0000   0.0000
     0.0000   0.0000   0.0000   0.0000   0.0000   0.0000   0.0000   0.0000
     0.0000   0.0000   0.0000   0.0000   0.0000   0.0000   0.0000   0.0000

          k = 0.3333 0.3279 0.3041 (  2521 PWs)   bands (ev):

   -18.5640 -18.5462  -8.8927  -8.8113  -8.5072  -8.3009  -8.0289  -8.0015
    -4.5592  -4.4482  -2.9744  -2.8959  -2.7076  -2.6194   4.7008   4.9253
     5.7915   6.2077   6.8370   7.1347   7.9408   8.1382   8.5500   8.8358
     9.1251   9.8107  10.2382  10.7558  11.2629  11.4262  12.2530  12.7125
    13.0695  13.4973  13.9047  14.6772  15.1083  15.5096  16.2947  16.7737
    17.2341  17.4140  18.0454  18.4862  18.7197  19.5592  19.9425  20.4291
    20.4578  20.8379  21.4279  21.7358  22.1211  22.6908  22.9929  23.4678
    23.8020  24.1864  24.6804  25.2453  25.6069  26.1399  26.1801  26.6987

     occupation numbers 
     1.0000   1.0000   1.0000   1.0000   1.0000   1.0000   1.0000   1.0000
     1.0000   1.0000   1.0000   1.0000   1.0000   1.0000   0.0000   0.0000
     0.0000   0.0000   0.0000   0.0000   0.0000   0.0000   0.0000   0.0000
     0.0000   0.0000   0.0000   0.0000   0.0000   0.0000   0.0000   0.0000
     0.0000   0.0000   0.0000   0.0000   0.0000   0.0000   0.0000   0.0000
     0.0000   0.0000   0.0000   0.0000   0.0000   0.0000   0.0000   0.0000
     0.0000   0.0000   0.0000   0.0000   0.0000   0.0000   0.0000   0.0000
     0.0000   0.0000   0.0000   0.0000   0.0000   0.0000   0.0000   0.0000

     highest occupied, lowest unoccupied level (ev):    -2.2388    3.8298

!    total energy              =     -67.44270692 Ry
     estimated scf accuracy    <       0.00000008 Ry

     The total energy is the sum of the following terms:
     one-electron contribution =     -45.44032950 Ry
     hartree contribution      =      29.92083413 Ry
     xc contribution           =     -25.42107237 Ry
     ewald contribution        =     -26.50213918 Ry

     convergence has been achieved in   7 iterations

     Writing all to output data dir calculations_bands_val/myprefix.save/
 
     init_run     :      3.66s CPU      1.46s WALL (       1 calls)
     electrons    :     10.67s CPU      2.82s WALL (       1 calls)

     Called by init_run:
     wfcinit      :      0.40s CPU      0.11s WALL (       1 calls)
     wfcinit:atom :      0.00s CPU      0.00s WALL (       4 calls)
     wfcinit:wfcr :      0.37s CPU      0.10s WALL (       4 calls)
     potinit      :      1.15s CPU      0.30s WALL (       1 calls)
     hinit0       :      1.86s CPU      0.84s WALL (       1 calls)

     Called by electrons:
     c_bands      :      8.25s CPU      2.16s WALL (       7 calls)
     sum_band     :      1.65s CPU      0.44s WALL (       7 calls)
     v_of_rho     :      0.30s CPU      0.08s WALL (       8 calls)
     v_h          :      0.03s CPU      0.01s WALL (       8 calls)
     v_xc         :      0.28s CPU      0.07s WALL (       8 calls)
     newd         :      0.24s CPU      0.07s WALL (       8 calls)
     mix_rho      :      0.05s CPU      0.01s WALL (       7 calls)

     Called by c_bands:
     init_us_2    :      0.04s CPU      0.01s WALL (      60 calls)
     init_us_2:cp :      0.03s CPU      0.01s WALL (      60 calls)
     cegterg      :      7.44s CPU      1.95s WALL (      28 calls)

     Called by sum_band:
     sum_band:wei :      0.01s CPU      0.00s WALL (       7 calls)
     sum_band:loo :      1.09s CPU      0.28s WALL (       7 calls)
     sum_band:buf :      0.02s CPU      0.01s WALL (      28 calls)
     sum_band:ini :      0.02s CPU      0.00s WALL (      28 calls)
     sum_band:cal :      0.04s CPU      0.01s WALL (      28 calls)
     sum_band:bec :      0.01s CPU      0.00s WALL (      28 calls)
     addusdens    :      0.16s CPU      0.04s WALL (       7 calls)
     addusd:skk   :      0.01s CPU      0.00s WALL (      21 calls)
     addusd:dgemm :      0.02s CPU      0.01s WALL (      21 calls)
     addusd:qvan2 :      0.09s CPU      0.02s WALL (      21 calls)

     Called by *egterg:
     cdiaghg      :      1.80s CPU      0.47s WALL (     115 calls)
     cegterg:over :      0.28s CPU      0.07s WALL (      87 calls)
     cegterg:upda :      0.14s CPU      0.04s WALL (      87 calls)
     cegterg:last :      0.23s CPU      0.06s WALL (      52 calls)
     cdiaghg:chol :      0.14s CPU      0.04s WALL (     115 calls)
     cdiaghg:inve :      0.03s CPU      0.01s WALL (     115 calls)
     cdiaghg:para :      0.31s CPU      0.08s WALL (     230 calls)
     h_psi        :      5.10s CPU      1.34s WALL (     119 calls)
     s_psi        :      0.05s CPU      0.01s WALL (     119 calls)
     g_psi        :      0.01s CPU      0.00s WALL (      87 calls)

     Called by h_psi:
     h_psi:calbec :      0.11s CPU      0.03s WALL (     119 calls)
     vloc_psi     :      4.90s CPU      1.28s WALL (     119 calls)
     add_vuspsi   :      0.07s CPU      0.02s WALL (     119 calls)

     General routines
     calbec       :      0.14s CPU      0.04s WALL (     147 calls)
     fft          :      1.33s CPU      0.48s WALL (     102 calls)
     ffts         :      0.94s CPU      0.25s WALL (      15 calls)
     fftw         :      4.73s CPU      1.24s WALL (   10894 calls)
     interpolate  :      0.95s CPU      0.25s WALL (       8 calls)
 
     Parallel routines
 
     PWSCF        :     15.96s CPU      4.90s WALL

 
   This run was terminated on:  12:27:38   4Jun2023            

=------------------------------------------------------------------------------=
   JOB DONE.
=------------------------------------------------------------------------------=
