
     Program PWSCF v.7.0 starts on  4Jun2023 at 11:13:22 

     This program is part of the open-source Quantum ESPRESSO suite
     for quantum simulation of materials; please cite
         "P. Giannozzi et al., J. Phys.:Condens. Matter 21 395502 (2009);
         "P. Giannozzi et al., J. Phys.:Condens. Matter 29 465901 (2017);
         "P. Giannozzi et al., J. Chem. Phys. 152 154105 (2020);
          URL http://www.quantum-espresso.org", 
     in publications or presentations arising from this work. More details at
     http://www.quantum-espresso.org/quote

     Parallel version (MPI & OpenMP), running on      32 processor cores
     Number of MPI processes:                 8
     Threads/MPI process:                     4

     MPI processes distributed on     1 nodes
     K-points division:     npool     =       2
     R & G space division:  proc/nbgrp/npool/nimage =       4
     143946 MiB available memory on the printing compute node when the environment starts
 
     Reading input from espresso_184.pwi
Warning: card &CELL ignored
Warning: card / ignored

     Current dimensions of program PWSCF are:
     Max number of different atomic species (ntypx) = 10
     Max number of k-points (npk) =  40000
     Max angular momentum in pseudopotentials (lmaxx) =  4
     Message from routine setup:
     using ibrav=0 with symmetry is DISCOURAGED, use correct ibrav instead

     Subspace diagonalization in iterative solution of the eigenvalue problem:
     one sub-group per band group will be used
     scalapack distributed-memory algorithm (size of sub-group:  2*  2 procs)

 
     Parallelization info
     --------------------
     sticks:   dense  smooth     PW     G-vecs:    dense   smooth      PW
     Min         323     160     47                13878     4897     807
     Max         324     161     49                13883     4899     810
     Sum        1293     643    193                55517    19593    3231
 
     Using Slab Decomposition
 


     bravais-lattice index     =            0
     lattice parameter (alat)  =       9.2132  a.u.
     unit-cell volume          =     883.4819 (a.u.)^3
     number of atoms/cell      =            6
     number of atomic types    =            2
     number of electrons       =        72.00
     number of Kohn-Sham states=           64
     kinetic-energy cutoff     =      30.0000  Ry
     charge density cutoff     =     240.0000  Ry
     scf convergence threshold =      1.0E-06
     mixing beta               =       0.7000
     number of iterations used =            8  plain     mixing
     Exchange-correlation=  SLA  PW   PBX  PBC
                           (   1   4   3   4   0   0   0)

     celldm(1)=   9.213203  celldm(2)=   0.000000  celldm(3)=   0.000000
     celldm(4)=   0.000000  celldm(5)=   0.000000  celldm(6)=   0.000000

     crystal axes: (cart. coord. in units of alat)
               a(1) = (   1.000000   0.000000   0.000000 )  
               a(2) = (   0.606646   0.794972   0.000000 )  
               a(3) = (   0.726003   0.359228   1.421065 )  

     reciprocal axes: (cart. coord. in units 2 pi/alat)
               b(1) = (  1.000000 -0.763104 -0.317983 )  
               b(2) = (  0.000000  1.257906 -0.317983 )  
               b(3) = (  0.000000  0.000000  0.703698 )  


     PseudoPot. # 1 for Yb read from file:
     /home/pragov/projects/rrg-bengioy-ad/pragov/crystal_structure_design/SSSP/Yb.GGA-PBE-paw-v1.0.UPF
     MD5 check sum: 43b6465ad8021f06e3edb42ae292e187
     Pseudo is Projector augmented-wave + core cor, Zval = 24.0
     Generated using ATOMPAW code
     Shape of augmentation charge: BESSEL
     Using radial grid of 1117 points,  8 beta functions with: 
                l(1) =   0
                l(2) =   0
                l(3) =   1
                l(4) =   1
                l(5) =   2
                l(6) =   2
                l(7) =   3
                l(8) =   3
     Q(r) pseudized with 0 coefficients 


     PseudoPot. # 2 for S  read from file:
     /home/pragov/projects/rrg-bengioy-ad/pragov/crystal_structure_design/SSSP/s_pbe_v1.4.uspp.F.UPF
     MD5 check sum: 88d86576ff6df21479756cfb9bdac1df
     Pseudo is Ultrasoft + core correction, Zval =  6.0
     Generated by new atomic code, or converted to UPF format
     Using radial grid of  907 points,  6 beta functions with: 
                l(1) =   0
                l(2) =   0
                l(3) =   1
                l(4) =   1
                l(5) =   2
                l(6) =   2
     Q(r) pseudized with  8 coefficients,  rinner =    1.300   1.300   1.300
                                                       1.300   1.300

     atomic species   valence    mass     pseudopotential
        Yb            24.00   173.05400     Yb( 1.00)
        S              6.00    32.06000     S ( 1.00)

      2 Sym. Ops., with inversion, found


                                    s                        frac. trans.

      isym =  1     identity                                     

 cryst.   s( 1) = (     1          0          0      )
                  (     0          1          0      )
                  (     0          0          1      )

 cart.    s( 1) = (  1.0000000 -0.0000000 -0.0000000 )
                  (  0.0000000  1.0000000 -0.0000000 )
                  (  0.0000000  0.0000000  1.0000000 )


      isym =  2     inversion                                    

 cryst.   s( 2) = (    -1          0          0      )
                  (     0         -1          0      )
                  (     0          0         -1      )

 cart.    s( 2) = ( -1.0000000  0.0000000  0.0000000 )
                  (  0.0000000 -1.0000000  0.0000000 )
                  (  0.0000000  0.0000000 -1.0000000 )


   Cartesian axes

     site n.     atom                  positions (alat units)
         1           Yb  tau(   1) = (   1.1287678   0.1963809   0.3552663  )
         2           Yb  tau(   2) = (   1.2038818   0.9578190   1.0657989  )
         3           S   tau(   3) = (   0.8807512   0.5643922   0.7509491  )
         4           S   tau(   4) = (   1.7126710   0.9760278   1.3806486  )
         5           S   tau(   5) = (   1.4518984   0.5898078   0.6701161  )
         6           S   tau(   6) = (   0.6199786   0.1781721   0.0404165  )

   Crystallographic axes

     site n.     atom                  positions (cryst. coord.)
         1           Yb  tau(   1) = (  0.8659400  0.1340600  0.2500000  )
         2           Yb  tau(   2) = (  0.1340600  0.8659400  0.7500000  )
         3           S   tau(   3) = (  0.2112720  0.4711630  0.5284410  )
         4           S   tau(   4) = (  0.5288370  0.7887280  0.9715590  )
         5           S   tau(   5) = (  0.7887280  0.5288370  0.4715590  )
         6           S   tau(   6) = (  0.4711630  0.2112720  0.0284410  )

     number of k points=    14
                       cart. coord. in units 2pi/alat
        k(    1) = (   0.0000000   0.0000000   0.0000000), wk =   0.0740741
        k(    2) = (   0.0000000   0.0000000   0.2345658), wk =   0.1481481
        k(    3) = (   0.0000000   0.4193020  -0.1059945), wk =   0.1481481
        k(    4) = (   0.0000000   0.4193020   0.1285714), wk =   0.1481481
        k(    5) = (   0.0000000   0.4193020  -0.3405603), wk =   0.1481481
        k(    6) = (   0.3333333  -0.2543680  -0.1059945), wk =   0.1481481
        k(    7) = (   0.3333333  -0.2543680   0.1285714), wk =   0.1481481
        k(    8) = (   0.3333333  -0.2543680  -0.3405603), wk =   0.1481481
        k(    9) = (   0.3333333   0.1649340  -0.2119889), wk =   0.1481481
        k(   10) = (   0.3333333   0.1649340   0.0225769), wk =   0.1481481
        k(   11) = (   0.3333333   0.1649340  -0.4465548), wk =   0.1481481
        k(   12) = (   0.3333333  -0.6736700   0.0000000), wk =   0.1481481
        k(   13) = (   0.3333333  -0.6736700   0.2345658), wk =   0.1481481
        k(   14) = (   0.3333333  -0.6736700  -0.2345658), wk =   0.1481481

                       cryst. coord.
        k(    1) = (   0.0000000   0.0000000   0.0000000), wk =   0.0740741
        k(    2) = (   0.0000000   0.0000000   0.3333333), wk =   0.1481481
        k(    3) = (   0.0000000   0.3333333  -0.0000000), wk =   0.1481481
        k(    4) = (   0.0000000   0.3333333   0.3333333), wk =   0.1481481
        k(    5) = (   0.0000000   0.3333333  -0.3333333), wk =   0.1481481
        k(    6) = (   0.3333333   0.0000000  -0.0000000), wk =   0.1481481
        k(    7) = (   0.3333333   0.0000000   0.3333333), wk =   0.1481481
        k(    8) = (   0.3333333   0.0000000  -0.3333333), wk =   0.1481481
        k(    9) = (   0.3333333   0.3333333  -0.0000000), wk =   0.1481481
        k(   10) = (   0.3333333   0.3333333   0.3333333), wk =   0.1481481
        k(   11) = (   0.3333333   0.3333333  -0.3333333), wk =   0.1481481
        k(   12) = (   0.3333333  -0.3333333  -0.0000000), wk =   0.1481481
        k(   13) = (   0.3333333  -0.3333333   0.3333333), wk =   0.1481481
        k(   14) = (   0.3333333  -0.3333333  -0.3333333), wk =   0.1481481

     Dense  grid:    55517 G-vectors     FFT dimensions: (  45,  45,  75)

     Smooth grid:    19593 G-vectors     FFT dimensions: (  36,  36,  54)

     Dynamical RAM for                 wfc:       0.60 MB

     Dynamical RAM for     wfc (w. buffer):       4.78 MB

     Dynamical RAM for           str. fact:       0.42 MB

     Dynamical RAM for           local pot:       0.00 MB

     Dynamical RAM for          nlocal pot:       1.27 MB

     Dynamical RAM for                qrad:       5.97 MB

     Dynamical RAM for          rho,v,vnew:       1.52 MB

     Dynamical RAM for               rhoin:       0.51 MB

     Dynamical RAM for            rho*nmix:       3.39 MB

     Dynamical RAM for           G-vectors:       0.83 MB

     Dynamical RAM for          h,s,v(r/c):       0.19 MB

     Dynamical RAM for          <psi|beta>:       0.13 MB

     Dynamical RAM for                 psi:       1.20 MB

     Dynamical RAM for                hpsi:       1.20 MB

     Dynamical RAM for                spsi:       1.20 MB

     Dynamical RAM for      wfcinit/wfcrot:       1.64 MB

     Dynamical RAM for           addusdens:      59.31 MB

     Estimated static dynamical RAM per process >      17.40 MB

     Estimated max dynamical RAM per process >      80.10 MB

     Estimated total dynamical RAM >     627.26 MB

     Initial potential from superposition of free atoms

     starting charge      71.9918, renormalised to      72.0000
     Starting wfcs are   80 randomized atomic wfcs
     Checking if some PAW data can be deallocated... 
       PAW data deallocated on    4 nodes for type:  1

     total cpu time spent up to now is        2.3 secs

     Self-consistent Calculation

     iteration #  1     ecut=    30.00 Ry     beta= 0.70
     Davidson diagonalization with overlap

---- Real-time Memory Report at c_bands before calling an iterative solver
           221 MiB given to the printing process from OS
             0 MiB allocation reported by mallinfo(arena+hblkhd)
        143277 MiB available memory on the node where the printing process lives
------------------
     ethr =  1.00E-02,  avg # of iterations =  9.1

     total cpu time spent up to now is        3.9 secs

     total energy              =   -2118.32079802 Ry
     estimated scf accuracy    <       0.75019729 Ry

     iteration #  2     ecut=    30.00 Ry     beta= 0.70
     Davidson diagonalization with overlap

---- Real-time Memory Report at c_bands before calling an iterative solver
           277 MiB given to the printing process from OS
             0 MiB allocation reported by mallinfo(arena+hblkhd)
        143117 MiB available memory on the node where the printing process lives
------------------
     ethr =  1.04E-03,  avg # of iterations =  3.0

     total cpu time spent up to now is        5.1 secs

     total energy              =   -2106.50659534 Ry
     estimated scf accuracy    <     196.53988603 Ry

     iteration #  3     ecut=    30.00 Ry     beta= 0.70
     Davidson diagonalization with overlap

---- Real-time Memory Report at c_bands before calling an iterative solver
           283 MiB given to the printing process from OS
             0 MiB allocation reported by mallinfo(arena+hblkhd)
        143094 MiB available memory on the node where the printing process lives
------------------
     ethr =  1.04E-03,  avg # of iterations =  3.0

     total cpu time spent up to now is        6.3 secs

     total energy              =   -2119.29065197 Ry
     estimated scf accuracy    <       0.44262971 Ry

     iteration #  4     ecut=    30.00 Ry     beta= 0.70
     Davidson diagonalization with overlap

---- Real-time Memory Report at c_bands before calling an iterative solver
           283 MiB given to the printing process from OS
             0 MiB allocation reported by mallinfo(arena+hblkhd)
        143092 MiB available memory on the node where the printing process lives
------------------
     ethr =  6.15E-04,  avg # of iterations =  1.1

     total cpu time spent up to now is        7.3 secs

     total energy              =   -2119.25183506 Ry
     estimated scf accuracy    <       0.39727268 Ry

     iteration #  5     ecut=    30.00 Ry     beta= 0.70
     Davidson diagonalization with overlap

---- Real-time Memory Report at c_bands before calling an iterative solver
           283 MiB given to the printing process from OS
             0 MiB allocation reported by mallinfo(arena+hblkhd)
        143092 MiB available memory on the node where the printing process lives
------------------
     ethr =  5.52E-04,  avg # of iterations =  1.1

     total cpu time spent up to now is        8.2 secs

     total energy              =   -2119.23417761 Ry
     estimated scf accuracy    <       0.30106288 Ry

     iteration #  6     ecut=    30.00 Ry     beta= 0.70
     Davidson diagonalization with overlap

---- Real-time Memory Report at c_bands before calling an iterative solver
           283 MiB given to the printing process from OS
             0 MiB allocation reported by mallinfo(arena+hblkhd)
        143092 MiB available memory on the node where the printing process lives
------------------
     ethr =  4.18E-04,  avg # of iterations =  1.4

     total cpu time spent up to now is        9.2 secs

     total energy              =   -2119.20816691 Ry
     estimated scf accuracy    <       0.24875576 Ry

     iteration #  7     ecut=    30.00 Ry     beta= 0.70
     Davidson diagonalization with overlap

---- Real-time Memory Report at c_bands before calling an iterative solver
           283 MiB given to the printing process from OS
             0 MiB allocation reported by mallinfo(arena+hblkhd)
        143094 MiB available memory on the node where the printing process lives
------------------
     ethr =  3.45E-04,  avg # of iterations =  1.7

     total cpu time spent up to now is       10.2 secs

     total energy              =   -2119.17013357 Ry
     estimated scf accuracy    <       0.17966003 Ry

     iteration #  8     ecut=    30.00 Ry     beta= 0.70
     Davidson diagonalization with overlap

---- Real-time Memory Report at c_bands before calling an iterative solver
           283 MiB given to the printing process from OS
             0 MiB allocation reported by mallinfo(arena+hblkhd)
        143090 MiB available memory on the node where the printing process lives
------------------
     ethr =  2.50E-04,  avg # of iterations =  1.0

     total cpu time spent up to now is       11.7 secs

     total energy              =   -2119.15364581 Ry
     estimated scf accuracy    <       0.06914303 Ry

     iteration #  9     ecut=    30.00 Ry     beta= 0.70
     Davidson diagonalization with overlap

---- Real-time Memory Report at c_bands before calling an iterative solver
           283 MiB given to the printing process from OS
             0 MiB allocation reported by mallinfo(arena+hblkhd)
        143089 MiB available memory on the node where the printing process lives
------------------
     ethr =  9.60E-05,  avg # of iterations =  1.2

     total cpu time spent up to now is       12.7 secs

     total energy              =   -2119.16267582 Ry
     estimated scf accuracy    <       0.00045860 Ry

     iteration # 10     ecut=    30.00 Ry     beta= 0.70
     Davidson diagonalization with overlap

---- Real-time Memory Report at c_bands before calling an iterative solver
           283 MiB given to the printing process from OS
             0 MiB allocation reported by mallinfo(arena+hblkhd)
        143091 MiB available memory on the node where the printing process lives
------------------
     ethr =  6.37E-07,  avg # of iterations =  8.2

     total cpu time spent up to now is       14.1 secs

     total energy              =   -2119.16393228 Ry
     estimated scf accuracy    <       0.00322762 Ry

     iteration # 11     ecut=    30.00 Ry     beta= 0.70
     Davidson diagonalization with overlap

---- Real-time Memory Report at c_bands before calling an iterative solver
           286 MiB given to the printing process from OS
             0 MiB allocation reported by mallinfo(arena+hblkhd)
        143071 MiB available memory on the node where the printing process lives
------------------
     ethr =  6.37E-07,  avg # of iterations =  1.0

     total cpu time spent up to now is       15.0 secs

     total energy              =   -2119.16678345 Ry
     estimated scf accuracy    <       0.00679601 Ry

     iteration # 12     ecut=    30.00 Ry     beta= 0.70
     Davidson diagonalization with overlap

---- Real-time Memory Report at c_bands before calling an iterative solver
           286 MiB given to the printing process from OS
             0 MiB allocation reported by mallinfo(arena+hblkhd)
        143071 MiB available memory on the node where the printing process lives
------------------
     ethr =  6.37E-07,  avg # of iterations =  3.1

     total cpu time spent up to now is       16.2 secs

     total energy              =   -2119.16927371 Ry
     estimated scf accuracy    <       0.10841250 Ry

     iteration # 13     ecut=    30.00 Ry     beta= 0.70
     Davidson diagonalization with overlap

---- Real-time Memory Report at c_bands before calling an iterative solver
           286 MiB given to the printing process from OS
             0 MiB allocation reported by mallinfo(arena+hblkhd)
        143069 MiB available memory on the node where the printing process lives
------------------
     ethr =  6.37E-07,  avg # of iterations =  1.0

     total cpu time spent up to now is       17.1 secs

     total energy              =   -2119.15560618 Ry
     estimated scf accuracy    <       0.08546907 Ry

     iteration # 14     ecut=    30.00 Ry     beta= 0.70
     Davidson diagonalization with overlap

---- Real-time Memory Report at c_bands before calling an iterative solver
           286 MiB given to the printing process from OS
             0 MiB allocation reported by mallinfo(arena+hblkhd)
        143069 MiB available memory on the node where the printing process lives
------------------
     ethr =  6.37E-07,  avg # of iterations =  3.0

     total cpu time spent up to now is       18.2 secs

     total energy              =   -2119.16318179 Ry
     estimated scf accuracy    <       0.00004937 Ry

     iteration # 15     ecut=    30.00 Ry     beta= 0.70
     Davidson diagonalization with overlap

---- Real-time Memory Report at c_bands before calling an iterative solver
           287 MiB given to the printing process from OS
             0 MiB allocation reported by mallinfo(arena+hblkhd)
        143065 MiB available memory on the node where the printing process lives
------------------
     ethr =  6.86E-08,  avg # of iterations =  3.1

     total cpu time spent up to now is       19.5 secs

     total energy              =   -2119.16468036 Ry
     estimated scf accuracy    <       0.01169688 Ry

     iteration # 16     ecut=    30.00 Ry     beta= 0.70
     Davidson diagonalization with overlap

---- Real-time Memory Report at c_bands before calling an iterative solver
           287 MiB given to the printing process from OS
             0 MiB allocation reported by mallinfo(arena+hblkhd)
        143064 MiB available memory on the node where the printing process lives
------------------
     ethr =  6.86E-08,  avg # of iterations =  2.0

     total cpu time spent up to now is       20.4 secs

     total energy              =   -2119.16344214 Ry
     estimated scf accuracy    <       0.01674201 Ry

     iteration # 17     ecut=    30.00 Ry     beta= 0.70
     Davidson diagonalization with overlap

---- Real-time Memory Report at c_bands before calling an iterative solver
           287 MiB given to the printing process from OS
             0 MiB allocation reported by mallinfo(arena+hblkhd)
        143063 MiB available memory on the node where the printing process lives
------------------
     ethr =  6.86E-08,  avg # of iterations =  2.1

     total cpu time spent up to now is       21.5 secs

     total energy              =   -2119.16311892 Ry
     estimated scf accuracy    <       0.00516945 Ry

     iteration # 18     ecut=    30.00 Ry     beta= 0.70
     Davidson diagonalization with overlap

---- Real-time Memory Report at c_bands before calling an iterative solver
           287 MiB given to the printing process from OS
             0 MiB allocation reported by mallinfo(arena+hblkhd)
        143064 MiB available memory on the node where the printing process lives
------------------
     ethr =  6.86E-08,  avg # of iterations =  2.9

     total cpu time spent up to now is       22.5 secs

     total energy              =   -2119.16323148 Ry
     estimated scf accuracy    <       0.00082143 Ry

     iteration # 19     ecut=    30.00 Ry     beta= 0.70
     Davidson diagonalization with overlap

---- Real-time Memory Report at c_bands before calling an iterative solver
           287 MiB given to the printing process from OS
             0 MiB allocation reported by mallinfo(arena+hblkhd)
        143064 MiB available memory on the node where the printing process lives
------------------
     ethr =  6.86E-08,  avg # of iterations =  1.9

     total cpu time spent up to now is       23.5 secs

     total energy              =   -2119.16319186 Ry
     estimated scf accuracy    <       0.00034223 Ry

     iteration # 20     ecut=    30.00 Ry     beta= 0.70
     Davidson diagonalization with overlap

---- Real-time Memory Report at c_bands before calling an iterative solver
           287 MiB given to the printing process from OS
             0 MiB allocation reported by mallinfo(arena+hblkhd)
        143064 MiB available memory on the node where the printing process lives
------------------
     ethr =  6.86E-08,  avg # of iterations =  1.0

     total cpu time spent up to now is       24.4 secs

     total energy              =   -2119.16320414 Ry
     estimated scf accuracy    <       0.00003288 Ry

     iteration # 21     ecut=    30.00 Ry     beta= 0.70
     Davidson diagonalization with overlap

---- Real-time Memory Report at c_bands before calling an iterative solver
           287 MiB given to the printing process from OS
             0 MiB allocation reported by mallinfo(arena+hblkhd)
        143064 MiB available memory on the node where the printing process lives
------------------
     ethr =  4.57E-08,  avg # of iterations =  1.0

     total cpu time spent up to now is       25.3 secs

     total energy              =   -2119.16320455 Ry
     estimated scf accuracy    <       0.00000518 Ry

     iteration # 22     ecut=    30.00 Ry     beta= 0.70
     Davidson diagonalization with overlap

---- Real-time Memory Report at c_bands before calling an iterative solver
           287 MiB given to the printing process from OS
             0 MiB allocation reported by mallinfo(arena+hblkhd)
        143046 MiB available memory on the node where the printing process lives
------------------
     ethr =  7.19E-09,  avg # of iterations =  1.6

     total cpu time spent up to now is       26.3 secs

     End of self-consistent calculation

          k = 0.0000 0.0000 0.0000 (  2421 PWs)   bands (ev):

   -40.8351 -40.8333 -13.2807 -13.1954 -13.1856 -13.1853 -13.1717 -13.1661
    -5.3097  -4.7141  -0.5510  -0.2002   3.6436   3.6988   4.3252   6.0819
     6.5317   6.9822   7.6746   8.1343   8.1927   9.0877  10.8396  10.8673
    10.8716  10.8869  10.9042  10.9302  10.9463  10.9483  10.9833  10.9926
    11.0127  11.0169  11.0369  11.0396  12.2481  12.4051  13.0360  13.3850
    13.5168  13.6488  13.8237  15.0453  15.1068  15.9280  16.5720  17.2465
    17.4302  17.4590  17.5367  17.8514  18.3395  19.1627  19.3042  19.6239
    20.8471  21.4734  21.5619  21.9942  22.1597  22.6963  23.2493  23.3081

     occupation numbers 
     1.0000   1.0000   1.0000   1.0000   1.0000   1.0000   1.0000   1.0000
     1.0000   1.0000   1.0000   1.0000   1.0000   1.0000   1.0000   1.0000
     1.0000   1.0000   1.0000   1.0000   1.0000   1.0000   1.0000   1.0000
     1.0000   1.0000   1.0000   1.0000   1.0000   1.0000   1.0000   1.0000
     1.0000   1.0000   1.0000   1.0000   0.0000   0.0000   0.0000   0.0000
     0.0000   0.0000   0.0000   0.0000   0.0000   0.0000   0.0000   0.0000
     0.0000   0.0000   0.0000   0.0000   0.0000   0.0000   0.0000   0.0000
     0.0000   0.0000   0.0000   0.0000   0.0000   0.0000   0.0000   0.0000

          k = 0.0000 0.0000 0.2346 (  2436 PWs)   bands (ev):

   -40.8346 -40.8337 -13.2532 -13.1972 -13.1936 -13.1879 -13.1809 -13.1736
    -5.1689  -4.8719  -0.4658  -0.2908   3.6008   3.6535   4.9236   6.0717
     6.2792   6.3946   7.9576   8.1656   8.2274   8.7457  10.8496  10.8682
    10.8874  10.8965  10.9052  10.9194  10.9460  10.9463  10.9824  10.9899
    10.9939  11.0166  11.0333  11.0420  11.8239  12.1854  13.0249  13.5541
    14.1766  14.3232  14.8238  15.1543  15.6949  16.2228  16.4532  16.4673
    16.8535  16.9264  17.1141  17.9331  18.1910  18.4246  18.7618  20.1183
    21.0470  21.2777  21.3697  21.7093  22.2249  22.6018  22.9786  23.7753

     occupation numbers 
     1.0000   1.0000   1.0000   1.0000   1.0000   1.0000   1.0000   1.0000
     1.0000   1.0000   1.0000   1.0000   1.0000   1.0000   1.0000   1.0000
     1.0000   1.0000   1.0000   1.0000   1.0000   1.0000   1.0000   1.0000
     1.0000   1.0000   1.0000   1.0000   1.0000   1.0000   1.0000   1.0000
     1.0000   1.0000   1.0000   1.0000   0.0000   0.0000   0.0000   0.0000
     0.0000   0.0000   0.0000   0.0000   0.0000   0.0000   0.0000   0.0000
     0.0000   0.0000   0.0000   0.0000   0.0000   0.0000   0.0000   0.0000
     0.0000   0.0000   0.0000   0.0000   0.0000   0.0000   0.0000   0.0000

          k = 0.0000 0.4193-0.1060 (  2448 PWs)   bands (ev):

   -40.8343 -40.8330 -13.2453 -13.2445 -13.2222 -13.1960 -13.1845 -13.1706
    -4.9002  -4.6238  -1.5115  -0.4269   3.5657   4.8366   5.2017   5.8399
     5.9461   6.3905   7.5431   8.0750   8.6562   8.8312  10.8495  10.8741
    10.8991  10.9064  10.9090  10.9162  10.9244  10.9412  10.9509  10.9736
    10.9773  10.9922  11.0053  11.0545  11.7940  12.7277  13.4033  13.8974
    14.6591  14.8269  14.9504  15.0888  15.5151  15.6753  16.0845  16.4142
    16.5324  17.2168  17.6854  18.1544  18.4819  18.8116  19.3311  19.8525
    19.9615  20.5607  21.3083  21.6006  21.7874  22.7078  23.3571  23.8756

     occupation numbers 
     1.0000   1.0000   1.0000   1.0000   1.0000   1.0000   1.0000   1.0000
     1.0000   1.0000   1.0000   1.0000   1.0000   1.0000   1.0000   1.0000
     1.0000   1.0000   1.0000   1.0000   1.0000   1.0000   1.0000   1.0000
     1.0000   1.0000   1.0000   1.0000   1.0000   1.0000   1.0000   1.0000
     1.0000   1.0000   1.0000   1.0000   0.0000   0.0000   0.0000   0.0000
     0.0000   0.0000   0.0000   0.0000   0.0000   0.0000   0.0000   0.0000
     0.0000   0.0000   0.0000   0.0000   0.0000   0.0000   0.0000   0.0000
     0.0000   0.0000   0.0000   0.0000   0.0000   0.0000   0.0000   0.0000

          k = 0.0000 0.4193 0.1286 (  2449 PWs)   bands (ev):

   -40.8342 -40.8332 -13.2486 -13.2412 -13.2192 -13.1979 -13.1820 -13.1743
    -4.8906  -4.6347  -1.5097  -0.4299   3.5845   4.8817   5.0754   5.7419
     6.1482   6.5099   7.4566   7.8511   8.7468   8.8357  10.8281  10.8794
    10.8973  10.9040  10.9097  10.9198  10.9400  10.9491  10.9563  10.9680
    10.9727  10.9921  10.9979  11.0612  11.7303  12.9515  13.5872  13.8892
    14.4734  14.6086  14.9277  15.2612  15.4399  15.8547  16.0421  16.3866
    16.4661  17.1254  17.7495  18.1028  18.4711  19.0120  19.3386  19.8598
    20.2698  20.6967  20.9252  21.0707  22.1357  22.5602  22.7481  23.8203

     occupation numbers 
     1.0000   1.0000   1.0000   1.0000   1.0000   1.0000   1.0000   1.0000
     1.0000   1.0000   1.0000   1.0000   1.0000   1.0000   1.0000   1.0000
     1.0000   1.0000   1.0000   1.0000   1.0000   1.0000   1.0000   1.0000
     1.0000   1.0000   1.0000   1.0000   1.0000   1.0000   1.0000   1.0000
     1.0000   1.0000   1.0000   1.0000   0.0000   0.0000   0.0000   0.0000
     0.0000   0.0000   0.0000   0.0000   0.0000   0.0000   0.0000   0.0000
     0.0000   0.0000   0.0000   0.0000   0.0000   0.0000   0.0000   0.0000
     0.0000   0.0000   0.0000   0.0000   0.0000   0.0000   0.0000   0.0000

          k = 0.0000 0.4193-0.3406 (  2462 PWs)   bands (ev):

   -40.8339 -40.8334 -13.2563 -13.2328 -13.2081 -13.2044 -13.1815 -13.1804
    -4.8702  -4.6538  -1.5131  -0.4267   3.5373   4.7838   5.4650   5.5384
     6.1386   6.4142   7.5341   7.8448   8.7652   8.9337  10.8227  10.8677
    10.9028  10.9053  10.9112  10.9211  10.9331  10.9451  10.9563  10.9703
    10.9824  11.0031  11.0220  11.0361  11.8579  12.4304  13.5120  13.6436
    14.2928  14.5898  14.9459  15.2271  15.5043  15.9154  16.2324  16.8057
    17.1198  17.3275  17.6332  17.9778  18.4868  18.9937  19.0739  19.7162
    20.6566  20.7704  21.2976  21.8100  21.8415  22.4600  22.7826  23.2608

     occupation numbers 
     1.0000   1.0000   1.0000   1.0000   1.0000   1.0000   1.0000   1.0000
     1.0000   1.0000   1.0000   1.0000   1.0000   1.0000   1.0000   1.0000
     1.0000   1.0000   1.0000   1.0000   1.0000   1.0000   1.0000   1.0000
     1.0000   1.0000   1.0000   1.0000   1.0000   1.0000   1.0000   1.0000
     1.0000   1.0000   1.0000   1.0000   0.0000   0.0000   0.0000   0.0000
     0.0000   0.0000   0.0000   0.0000   0.0000   0.0000   0.0000   0.0000
     0.0000   0.0000   0.0000   0.0000   0.0000   0.0000   0.0000   0.0000
     0.0000   0.0000   0.0000   0.0000   0.0000   0.0000   0.0000   0.0000

          k = 0.3333-0.2544-0.1060 (  2448 PWs)   bands (ev):

   -40.8343 -40.8330 -13.2453 -13.2445 -13.2222 -13.1960 -13.1845 -13.1706
    -4.9001  -4.6238  -1.5116  -0.4269   3.5657   4.8366   5.2017   5.8399
     5.9461   6.3905   7.5431   8.0750   8.6563   8.8312  10.8495  10.8741
    10.8991  10.9064  10.9090  10.9162  10.9244  10.9412  10.9509  10.9736
    10.9773  10.9922  11.0053  11.0545  11.7940  12.7278  13.4033  13.8974
    14.6591  14.8269  14.9504  15.0888  15.5151  15.6753  16.0845  16.4142
    16.5324  17.2168  17.6854  18.1544  18.4819  18.8116  19.3311  19.8525
    19.9615  20.5607  21.3083  21.6006  21.7874  22.7078  23.3571  23.8757

     occupation numbers 
     1.0000   1.0000   1.0000   1.0000   1.0000   1.0000   1.0000   1.0000
     1.0000   1.0000   1.0000   1.0000   1.0000   1.0000   1.0000   1.0000
     1.0000   1.0000   1.0000   1.0000   1.0000   1.0000   1.0000   1.0000
     1.0000   1.0000   1.0000   1.0000   1.0000   1.0000   1.0000   1.0000
     1.0000   1.0000   1.0000   1.0000   0.0000   0.0000   0.0000   0.0000
     0.0000   0.0000   0.0000   0.0000   0.0000   0.0000   0.0000   0.0000
     0.0000   0.0000   0.0000   0.0000   0.0000   0.0000   0.0000   0.0000
     0.0000   0.0000   0.0000   0.0000   0.0000   0.0000   0.0000   0.0000

          k = 0.3333-0.2544 0.1286 (  2449 PWs)   bands (ev):

   -40.8342 -40.8332 -13.2486 -13.2412 -13.2192 -13.1979 -13.1820 -13.1743
    -4.8905  -4.6347  -1.5097  -0.4299   3.5845   4.8817   5.0754   5.7418
     6.1482   6.5099   7.4565   7.8511   8.7468   8.8357  10.8281  10.8794
    10.8973  10.9040  10.9097  10.9198  10.9400  10.9491  10.9563  10.9680
    10.9727  10.9921  10.9979  11.0612  11.7303  12.9515  13.5872  13.8892
    14.4734  14.6086  14.9277  15.2612  15.4399  15.8547  16.0421  16.3866
    16.4661  17.1254  17.7495  18.1028  18.4711  19.0120  19.3386  19.8598
    20.2698  20.6967  20.9252  21.0707  22.1358  22.5602  22.7481  23.8203

     occupation numbers 
     1.0000   1.0000   1.0000   1.0000   1.0000   1.0000   1.0000   1.0000
     1.0000   1.0000   1.0000   1.0000   1.0000   1.0000   1.0000   1.0000
     1.0000   1.0000   1.0000   1.0000   1.0000   1.0000   1.0000   1.0000
     1.0000   1.0000   1.0000   1.0000   1.0000   1.0000   1.0000   1.0000
     1.0000   1.0000   1.0000   1.0000   0.0000   0.0000   0.0000   0.0000
     0.0000   0.0000   0.0000   0.0000   0.0000   0.0000   0.0000   0.0000
     0.0000   0.0000   0.0000   0.0000   0.0000   0.0000   0.0000   0.0000
     0.0000   0.0000   0.0000   0.0000   0.0000   0.0000   0.0000   0.0000

          k = 0.3333-0.2544-0.3406 (  2462 PWs)   bands (ev):

   -40.8339 -40.8334 -13.2563 -13.2328 -13.2081 -13.2044 -13.1815 -13.1804
    -4.8701  -4.6539  -1.5131  -0.4267   3.5373   4.7838   5.4650   5.5384
     6.1386   6.4142   7.5340   7.8448   8.7652   8.9337  10.8227  10.8677
    10.9028  10.9053  10.9112  10.9211  10.9331  10.9451  10.9563  10.9703
    10.9824  11.0031  11.0220  11.0361  11.8578  12.4304  13.5120  13.6436
    14.2928  14.5898  14.9459  15.2271  15.5043  15.9154  16.2324  16.8057
    17.1198  17.3275  17.6332  17.9778  18.4868  18.9937  19.0739  19.7162
    20.6566  20.7705  21.2976  21.8100  21.8415  22.4600  22.7826  23.2608

     occupation numbers 
     1.0000   1.0000   1.0000   1.0000   1.0000   1.0000   1.0000   1.0000
     1.0000   1.0000   1.0000   1.0000   1.0000   1.0000   1.0000   1.0000
     1.0000   1.0000   1.0000   1.0000   1.0000   1.0000   1.0000   1.0000
     1.0000   1.0000   1.0000   1.0000   1.0000   1.0000   1.0000   1.0000
     1.0000   1.0000   1.0000   1.0000   0.0000   0.0000   0.0000   0.0000
     0.0000   0.0000   0.0000   0.0000   0.0000   0.0000   0.0000   0.0000
     0.0000   0.0000   0.0000   0.0000   0.0000   0.0000   0.0000   0.0000
     0.0000   0.0000   0.0000   0.0000   0.0000   0.0000   0.0000   0.0000

          k = 0.3333 0.1649-0.2120 (  2447 PWs)   bands (ev):

   -40.8345 -40.8336 -13.2515 -13.2360 -13.1901 -13.1897 -13.1886 -13.1716
    -4.7369  -4.6465  -1.5079  -1.4948   5.1928   5.2158   6.0572   6.2860
     6.3797   6.3842   7.4640   7.7985   8.1305   8.1626  10.8130  10.8244
    10.8917  10.8958  10.8985  10.9085  10.9451  10.9482  10.9640  10.9723
    11.0165  11.0180  11.0422  11.0513  11.5331  11.9944  13.0381  13.1776
    14.2326  14.2756  14.7588  14.9592  15.1794  15.4557  15.6379  16.1640
    16.2354  17.1217  17.3199  17.8813  18.5740  18.9684  19.2037  19.8148
    20.2062  21.0391  21.1701  21.9298  22.0266  22.7292  23.5541  23.7061

     occupation numbers 
     1.0000   1.0000   1.0000   1.0000   1.0000   1.0000   1.0000   1.0000
     1.0000   1.0000   1.0000   1.0000   1.0000   1.0000   1.0000   1.0000
     1.0000   1.0000   1.0000   1.0000   1.0000   1.0000   1.0000   1.0000
     1.0000   1.0000   1.0000   1.0000   1.0000   1.0000   1.0000   1.0000
     1.0000   1.0000   1.0000   1.0000   0.0000   0.0000   0.0000   0.0000
     0.0000   0.0000   0.0000   0.0000   0.0000   0.0000   0.0000   0.0000
     0.0000   0.0000   0.0000   0.0000   0.0000   0.0000   0.0000   0.0000
     0.0000   0.0000   0.0000   0.0000   0.0000   0.0000   0.0000   0.0000

          k = 0.3333 0.1649 0.0226 (  2447 PWs)   bands (ev):

   -40.8345 -40.8336 -13.2455 -13.2127 -13.2025 -13.1948 -13.1894 -13.1827
    -4.8499  -4.5321  -1.5503  -1.4250   4.6420   5.4941   6.0486   6.2417
     6.3104   6.4297   7.6160   7.8566   8.2199   8.7013  10.8100  10.8273
    10.8897  10.8961  10.8975  10.9112  10.9443  10.9474  10.9631  10.9801
    11.0244  11.0247  11.0739  11.0922  11.6196  11.9032  12.8939  13.3955
    13.5481  13.5661  14.5734  14.6003  14.6982  15.2903  15.9348  16.0693
    16.7527  17.0772  17.8065  18.4275  18.6302  19.1718  19.8101  20.3383
    20.4730  20.8433  21.6430  21.8086  21.8673  22.5903  22.9145  23.6210

     occupation numbers 
     1.0000   1.0000   1.0000   1.0000   1.0000   1.0000   1.0000   1.0000
     1.0000   1.0000   1.0000   1.0000   1.0000   1.0000   1.0000   1.0000
     1.0000   1.0000   1.0000   1.0000   1.0000   1.0000   1.0000   1.0000
     1.0000   1.0000   1.0000   1.0000   1.0000   1.0000   1.0000   1.0000
     1.0000   1.0000   1.0000   1.0000   0.0000   0.0000   0.0000   0.0000
     0.0000   0.0000   0.0000   0.0000   0.0000   0.0000   0.0000   0.0000
     0.0000   0.0000   0.0000   0.0000   0.0000   0.0000   0.0000   0.0000
     0.0000   0.0000   0.0000   0.0000   0.0000   0.0000   0.0000   0.0000

          k = 0.3333 0.1649-0.4466 (  2455 PWs)   bands (ev):

   -40.8341 -40.8340 -13.2528 -13.2322 -13.1935 -13.1880 -13.1852 -13.1759
    -4.8035  -4.5754  -1.5593  -1.4450   4.7681   5.7227   6.1302   6.2010
     6.4146   6.4400   7.5994   7.6969   7.7220   8.3433  10.8165  10.8182
    10.8874  10.8909  10.8963  10.9078  10.9298  10.9430  10.9710  10.9821
    11.0081  11.0144  11.0327  11.0619  11.7236  11.8984  12.8803  13.1763
    13.8385  13.9806  14.9114  14.9379  15.6115  15.8551  16.1493  16.2437
    16.6015  16.8459  17.3287  17.7811  18.3878  18.4707  19.0169  19.7697
    20.1963  20.6731  21.2318  21.7192  22.0035  23.0761  23.4025  24.1513

     occupation numbers 
     1.0000   1.0000   1.0000   1.0000   1.0000   1.0000   1.0000   1.0000
     1.0000   1.0000   1.0000   1.0000   1.0000   1.0000   1.0000   1.0000
     1.0000   1.0000   1.0000   1.0000   1.0000   1.0000   1.0000   1.0000
     1.0000   1.0000   1.0000   1.0000   1.0000   1.0000   1.0000   1.0000
     1.0000   1.0000   1.0000   1.0000   0.0000   0.0000   0.0000   0.0000
     0.0000   0.0000   0.0000   0.0000   0.0000   0.0000   0.0000   0.0000
     0.0000   0.0000   0.0000   0.0000   0.0000   0.0000   0.0000   0.0000
     0.0000   0.0000   0.0000   0.0000   0.0000   0.0000   0.0000   0.0000

          k = 0.3333-0.6737 0.0000 (  2463 PWs)   bands (ev):

   -40.8340 -40.8332 -13.2482 -13.2341 -13.2299 -13.2198 -13.1837 -13.1682
    -4.5932  -4.5641  -1.5827  -1.5191   4.6207   5.2293   5.3685   5.9901
     6.2037   6.5193   7.9828   8.0646   8.2208   8.5705  10.8098  10.8352
    10.8951  10.9089  10.9156  10.9209  10.9281  10.9440  10.9551  10.9645
    10.9727  11.0030  11.0253  11.0801  11.7293  12.0436  13.0360  13.4159
    14.0515  14.1979  14.3966  15.3014  15.5816  15.8333  16.3171  16.5447
    16.5929  17.5917  17.8275  18.3309  19.0839  19.3232  19.4868  20.2272
    20.4701  20.8183  20.8825  21.3449  22.1392  22.3358  23.0039  23.6913

     occupation numbers 
     1.0000   1.0000   1.0000   1.0000   1.0000   1.0000   1.0000   1.0000
     1.0000   1.0000   1.0000   1.0000   1.0000   1.0000   1.0000   1.0000
     1.0000   1.0000   1.0000   1.0000   1.0000   1.0000   1.0000   1.0000
     1.0000   1.0000   1.0000   1.0000   1.0000   1.0000   1.0000   1.0000
     1.0000   1.0000   1.0000   1.0000   0.0000   0.0000   0.0000   0.0000
     0.0000   0.0000   0.0000   0.0000   0.0000   0.0000   0.0000   0.0000
     0.0000   0.0000   0.0000   0.0000   0.0000   0.0000   0.0000   0.0000
     0.0000   0.0000   0.0000   0.0000   0.0000   0.0000   0.0000   0.0000

          k = 0.3333-0.6737 0.2346 (  2457 PWs)   bands (ev):

   -40.8338 -40.8334 -13.2503 -13.2348 -13.2169 -13.2096 -13.1882 -13.1840
    -4.5868  -4.5723  -1.5687  -1.5371   4.8844   5.2618   5.4233   5.7850
     6.1017   6.3287   7.9398   8.1909   8.2857   8.3895  10.8167  10.8325
    10.8951  10.9072  10.9128  10.9160  10.9281  10.9480  10.9582  10.9603
    10.9774  10.9912  11.0202  11.0417  11.7968  11.9343  13.5068  13.9820
    14.0926  14.5372  14.7033  15.2998  15.4025  15.7061  15.9045  16.0999
    16.6586  17.2441  17.3527  17.5583  19.1183  19.3300  19.6752  19.8473
    20.2485  20.9517  21.4091  21.5572  22.1717  22.7481  23.0174  23.2738

     occupation numbers 
     1.0000   1.0000   1.0000   1.0000   1.0000   1.0000   1.0000   1.0000
     1.0000   1.0000   1.0000   1.0000   1.0000   1.0000   1.0000   1.0000
     1.0000   1.0000   1.0000   1.0000   1.0000   1.0000   1.0000   1.0000
     1.0000   1.0000   1.0000   1.0000   1.0000   1.0000   1.0000   1.0000
     1.0000   1.0000   1.0000   1.0000   0.0000   0.0000   0.0000   0.0000
     0.0000   0.0000   0.0000   0.0000   0.0000   0.0000   0.0000   0.0000
     0.0000   0.0000   0.0000   0.0000   0.0000   0.0000   0.0000   0.0000
     0.0000   0.0000   0.0000   0.0000   0.0000   0.0000   0.0000   0.0000

          k = 0.3333-0.6737-0.2346 (  2457 PWs)   bands (ev):

   -40.8338 -40.8334 -13.2503 -13.2348 -13.2169 -13.2096 -13.1882 -13.1840
    -4.5868  -4.5723  -1.5687  -1.5371   4.8844   5.2618   5.4233   5.7850
     6.1017   6.3287   7.9398   8.1909   8.2857   8.3895  10.8167  10.8325
    10.8951  10.9072  10.9128  10.9160  10.9281  10.9480  10.9582  10.9603
    10.9774  10.9912  11.0202  11.0417  11.7968  11.9343  13.5068  13.9820
    14.0926  14.5372  14.7033  15.2998  15.4025  15.7060  15.9045  16.0999
    16.6586  17.2441  17.3527  17.5583  19.1183  19.3300  19.6752  19.8473
    20.2485  20.9517  21.4091  21.5572  22.1716  22.7481  23.0174  23.2738

     occupation numbers 
     1.0000   1.0000   1.0000   1.0000   1.0000   1.0000   1.0000   1.0000
     1.0000   1.0000   1.0000   1.0000   1.0000   1.0000   1.0000   1.0000
     1.0000   1.0000   1.0000   1.0000   1.0000   1.0000   1.0000   1.0000
     1.0000   1.0000   1.0000   1.0000   1.0000   1.0000   1.0000   1.0000
     1.0000   1.0000   1.0000   1.0000   0.0000   0.0000   0.0000   0.0000
     0.0000   0.0000   0.0000   0.0000   0.0000   0.0000   0.0000   0.0000
     0.0000   0.0000   0.0000   0.0000   0.0000   0.0000   0.0000   0.0000
     0.0000   0.0000   0.0000   0.0000   0.0000   0.0000   0.0000   0.0000

     highest occupied, lowest unoccupied level (ev):    11.0922   11.5331

!    total energy              =   -2119.16320514 Ry
     estimated scf accuracy    <       0.00000001 Ry

     The total energy is the sum of the following terms:
     one-electron contribution =    -833.95074110 Ry
     hartree contribution      =     383.67174607 Ry
     xc contribution           =    -110.43355274 Ry
     ewald contribution        =    -590.13940167 Ry
     one-center paw contrib.   =    -968.31125570 Ry
      -> PAW hartree energy AE =     451.00639871 Ry
      -> PAW hartree energy PS =    -387.49110438 Ry
      -> PAW xc energy AE      =    -584.91832604 Ry
      -> PAW xc energy PS      =      37.24740385 Ry
      -> total E_H with PAW    =     447.18704040 Ry
      -> total E_XC with PAW   =    -658.10447493 Ry

     convergence has been achieved in  22 iterations

     Writing all to output data dir calculations_bands_val/myprefix.save/
 
     init_run     :      7.19s CPU      1.99s WALL (       1 calls)
     electrons    :     90.78s CPU     23.98s WALL (       1 calls)

     Called by init_run:
     wfcinit      :      1.00s CPU      0.26s WALL (       1 calls)
     wfcinit:atom :      0.01s CPU      0.00s WALL (       7 calls)
     wfcinit:wfcr :      0.92s CPU      0.24s WALL (       7 calls)
     potinit      :      2.66s CPU      0.70s WALL (       1 calls)
     hinit0       :      2.50s CPU      0.74s WALL (       1 calls)

     Called by electrons:
     c_bands      :     50.07s CPU     12.98s WALL (      22 calls)
     sum_band     :     13.39s CPU      3.77s WALL (      22 calls)
     v_of_rho     :      0.94s CPU      0.25s WALL (      23 calls)
     v_h          :      0.07s CPU      0.02s WALL (      23 calls)
     v_xc         :      0.87s CPU      0.23s WALL (      23 calls)
     newd         :      4.85s CPU      1.33s WALL (      23 calls)
     PAW_pot      :     22.14s CPU      5.81s WALL (      23 calls)
     mix_rho      :      0.30s CPU      0.08s WALL (      22 calls)

     Called by c_bands:
     init_us_2    :      0.26s CPU      0.07s WALL (     315 calls)
     init_us_2:cp :      0.25s CPU      0.07s WALL (     315 calls)
     cegterg      :     46.51s CPU     12.06s WALL (     154 calls)

     Called by sum_band:
     sum_band:wei :      0.01s CPU      0.00s WALL (      22 calls)
     sum_band:loo :      7.77s CPU      2.02s WALL (      22 calls)
     sum_band:buf :      0.06s CPU      0.01s WALL (     154 calls)
     sum_band:ini :      0.12s CPU      0.03s WALL (     154 calls)
     sum_band:cal :      0.36s CPU      0.09s WALL (     154 calls)
     sum_band:bec :      0.05s CPU      0.01s WALL (     154 calls)
     addusdens    :      4.49s CPU      1.45s WALL (      22 calls)
     addusd:skk   :      0.01s CPU      0.00s WALL (      44 calls)
     addusd:dgemm :      0.68s CPU      0.48s WALL (      44 calls)
     addusd:qvan2 :      2.52s CPU      0.63s WALL (      44 calls)

     Called by *egterg:
     cdiaghg      :      8.87s CPU      2.32s WALL (     554 calls)
     cegterg:over :      1.58s CPU      0.41s WALL (     400 calls)
     cegterg:upda :      0.70s CPU      0.18s WALL (     400 calls)
     cegterg:last :      1.05s CPU      0.27s WALL (     267 calls)
     cdiaghg:chol :      0.67s CPU      0.18s WALL (     554 calls)
     cdiaghg:inve :      0.12s CPU      0.03s WALL (     554 calls)
     cdiaghg:para :      1.42s CPU      0.37s WALL (    1108 calls)
     h_psi        :     33.71s CPU      8.73s WALL (     561 calls)
     s_psi        :      0.41s CPU      0.11s WALL (     561 calls)
     g_psi        :      0.05s CPU      0.01s WALL (     400 calls)

     Called by h_psi:
     h_psi:calbec :      1.00s CPU      0.26s WALL (     561 calls)
     vloc_psi     :     32.14s CPU      8.32s WALL (     561 calls)
     add_vuspsi   :      0.49s CPU      0.13s WALL (     561 calls)

     General routines
     calbec       :      1.34s CPU      0.35s WALL (     715 calls)
     fft          :      1.17s CPU      0.30s WALL (     297 calls)
     ffts         :      0.99s CPU      0.26s WALL (      45 calls)
     fftw         :     35.31s CPU      9.15s WALL (   57900 calls)
     interpolate  :      1.03s CPU      0.27s WALL (      23 calls)
 
     Parallel routines

     PAW routines
     PAW_pot      :     22.14s CPU      5.81s WALL (      23 calls)
     PAW_symme    :      0.05s CPU      0.01s WALL (      45 calls)
 
     PWSCF        :   1m39.59s CPU     26.76s WALL

 
   This run was terminated on:  11:13:49   4Jun2023            

=------------------------------------------------------------------------------=
   JOB DONE.
=------------------------------------------------------------------------------=
