
     Program PWSCF v.7.0 starts on  4Jun2023 at 14:40: 8 

     This program is part of the open-source Quantum ESPRESSO suite
     for quantum simulation of materials; please cite
         "P. Giannozzi et al., J. Phys.:Condens. Matter 21 395502 (2009);
         "P. Giannozzi et al., J. Phys.:Condens. Matter 29 465901 (2017);
         "P. Giannozzi et al., J. Chem. Phys. 152 154105 (2020);
          URL http://www.quantum-espresso.org", 
     in publications or presentations arising from this work. More details at
     http://www.quantum-espresso.org/quote

     Parallel version (MPI & OpenMP), running on      32 processor cores
     Number of MPI processes:                 8
     Threads/MPI process:                     4

     MPI processes distributed on     1 nodes
     K-points division:     npool     =       2
     R & G space division:  proc/nbgrp/npool/nimage =       4
     143204 MiB available memory on the printing compute node when the environment starts
 
     Reading input from espresso_764.pwi
Warning: card &CELL ignored
Warning: card / ignored

     Current dimensions of program PWSCF are:
     Max number of different atomic species (ntypx) = 10
     Max number of k-points (npk) =  40000
     Max angular momentum in pseudopotentials (lmaxx) =  4
     file O.pbe-n-kjpaw_psl.0.1.UPF: wavefunction(s)  2P renormalized
     Message from routine setup:
     using ibrav=0 with symmetry is DISCOURAGED, use correct ibrav instead

     Subspace diagonalization in iterative solution of the eigenvalue problem:
     one sub-group per band group will be used
     scalapack distributed-memory algorithm (size of sub-group:  2*  2 procs)

 
     Parallelization info
     --------------------
     sticks:   dense  smooth     PW     G-vecs:    dense   smooth      PW
     Min         271     136     37                11287     3972     615
     Max         272     137     38                11290     3975     618
     Sum        1085     545    149                45155    15893    2467
 
     Using Slab Decomposition
 


     bravais-lattice index     =            0
     lattice parameter (alat)  =       7.5017  a.u.
     unit-cell volume          =     717.6289 (a.u.)^3
     number of atoms/cell      =            6
     number of atomic types    =            3
     number of electrons       =        62.00
     number of Kohn-Sham states=           64
     kinetic-energy cutoff     =      30.0000  Ry
     charge density cutoff     =     240.0000  Ry
     scf convergence threshold =      1.0E-06
     mixing beta               =       0.7000
     number of iterations used =            8  plain     mixing
     Exchange-correlation= SLA  PW   PBX  PBC
                           (   1   4   3   4   0   0   0)

     celldm(1)=   7.501685  celldm(2)=   0.000000  celldm(3)=   0.000000
     celldm(4)=   0.000000  celldm(5)=   0.000000  celldm(6)=   0.000000

     crystal axes: (cart. coord. in units of alat)
               a(1) = (   1.000000   0.000000   0.000000 )  
               a(2) = (   0.000000   1.000000   0.000000 )  
               a(3) = (   0.000000   0.000000   1.699900 )  

     reciprocal axes: (cart. coord. in units 2 pi/alat)
               b(1) = (  1.000000  0.000000  0.000000 )  
               b(2) = (  0.000000  1.000000  0.000000 )  
               b(3) = (  0.000000  0.000000  0.588270 )  


     PseudoPot. # 1 for Gd read from file:
     /home/pragov/projects/rrg-bengioy-ad/pragov/crystal_structure_design/SSSP/Gd.GGA-PBE-paw-v1.0.UPF
     MD5 check sum: 3e8e0d208da550914ae52eaf991d13de
     Pseudo is Projector augmented-wave + core cor, Zval = 18.0
     Generated using ATOMPAW code
     Shape of augmentation charge: BESSEL
     Using radial grid of 1110 points,  8 beta functions with: 
                l(1) =   0
                l(2) =   0
                l(3) =   1
                l(4) =   1
                l(5) =   2
                l(6) =   2
                l(7) =   3
                l(8) =   3
     Q(r) pseudized with 0 coefficients 


     PseudoPot. # 2 for Cl read from file:
     /home/pragov/projects/rrg-bengioy-ad/pragov/crystal_structure_design/SSSP/cl_pbe_v1.4.uspp.F.UPF
     MD5 check sum: fc6f6913ecf08c9257cb748ef0700058
     Pseudo is Ultrasoft + core correction, Zval =  7.0
     Generated by new atomic code, or converted to UPF format
     Using radial grid of  909 points,  6 beta functions with: 
                l(1) =   0
                l(2) =   0
                l(3) =   1
                l(4) =   1
                l(5) =   2
                l(6) =   2
     Q(r) pseudized with  8 coefficients,  rinner =    1.300   1.300   1.300
                                                       1.300   1.300

     PseudoPot. # 3 for O  read from file:
     /home/pragov/projects/rrg-bengioy-ad/pragov/crystal_structure_design/SSSP/O.pbe-n-kjpaw_psl.0.1.UPF
     MD5 check sum: 0234752ac141de4415c5fc33072bef88
     Pseudo is Projector augmented-wave + core cor, Zval =  6.0
     Generated using "atomic" code by A. Dal Corso  v.5.0.99 svn rev. 10869
     Shape of augmentation charge: BESSEL
     Using radial grid of 1095 points,  4 beta functions with: 
                l(1) =   0
                l(2) =   0
                l(3) =   1
                l(4) =   1
     Q(r) pseudized with 0 coefficients 


     atomic species   valence    mass     pseudopotential
        Gd            18.00   157.25000     Gd( 1.00)
        Cl             7.00    35.45000     Cl( 1.00)
        O              6.00    15.99900     O ( 1.00)

     16 Sym. Ops., with inversion, found ( 8 have fractional translation)


                                    s                        frac. trans.

      isym =  1     identity                                     

 cryst.   s( 1) = (     1          0          0      )
                  (     0          1          0      )
                  (     0          0          1      )

 cart.    s( 1) = (  1.0000000  0.0000000  0.0000000 )
                  (  0.0000000  1.0000000  0.0000000 )
                  (  0.0000000  0.0000000  1.0000000 )


      isym =  2     180 deg rotation - cart. axis [0,0,1]        

 cryst.   s( 2) = (    -1          0          0      )
                  (     0         -1          0      )
                  (     0          0          1      )

 cart.    s( 2) = ( -1.0000000  0.0000000  0.0000000 )
                  (  0.0000000 -1.0000000  0.0000000 )
                  (  0.0000000  0.0000000  1.0000000 )


      isym =  3     180 deg rotation - cart. axis [0,1,0]        

 cryst.   s( 3) = (    -1          0          0      )    f =(  0.5000000 )
                  (     0          1          0      )       (  0.5000000 )
                  (     0          0         -1      )       ( -0.0000000 )

 cart.    s( 3) = ( -1.0000000  0.0000000  0.0000000 )    f =(  0.5000000 )
                  (  0.0000000  1.0000000  0.0000000 )       (  0.5000000 )
                  (  0.0000000  0.0000000 -1.0000000 )       ( -0.0000000 )


      isym =  4     180 deg rotation - cart. axis [1,0,0]        

 cryst.   s( 4) = (     1          0          0      )    f =( -0.5000000 )
                  (     0         -1          0      )       (  0.5000000 )
                  (     0          0         -1      )       ( -0.0000000 )

 cart.    s( 4) = (  1.0000000  0.0000000  0.0000000 )    f =( -0.5000000 )
                  (  0.0000000 -1.0000000  0.0000000 )       (  0.5000000 )
                  (  0.0000000  0.0000000 -1.0000000 )       ( -0.0000000 )


      isym =  5     180 deg rotation - cart. axis [1,1,0]        

 cryst.   s( 5) = (     0          1          0      )
                  (     1          0          0      )
                  (     0          0         -1      )

 cart.    s( 5) = (  0.0000000  1.0000000  0.0000000 )
                  (  1.0000000  0.0000000  0.0000000 )
                  (  0.0000000  0.0000000 -1.0000000 )


      isym =  6     180 deg rotation - cart. axis [1,-1,0]       

 cryst.   s( 6) = (     0         -1          0      )
                  (    -1          0          0      )
                  (     0          0         -1      )

 cart.    s( 6) = (  0.0000000 -1.0000000  0.0000000 )
                  ( -1.0000000  0.0000000  0.0000000 )
                  (  0.0000000  0.0000000 -1.0000000 )


      isym =  7      90 deg rotation - cart. axis [0,0,-1]       

 cryst.   s( 7) = (     0         -1          0      )    f =( -0.5000000 )
                  (     1          0          0      )       (  0.5000000 )
                  (     0          0          1      )       (  0.0000000 )

 cart.    s( 7) = (  0.0000000  1.0000000  0.0000000 )    f =( -0.5000000 )
                  ( -1.0000000  0.0000000  0.0000000 )       (  0.5000000 )
                  (  0.0000000  0.0000000  1.0000000 )       (  0.0000000 )


      isym =  8      90 deg rotation - cart. axis [0,0,1]        

 cryst.   s( 8) = (     0          1          0      )    f =(  0.5000000 )
                  (    -1          0          0      )       (  0.5000000 )
                  (     0          0          1      )       (  0.0000000 )

 cart.    s( 8) = (  0.0000000 -1.0000000  0.0000000 )    f =(  0.5000000 )
                  (  1.0000000  0.0000000  0.0000000 )       (  0.5000000 )
                  (  0.0000000  0.0000000  1.0000000 )       (  0.0000000 )


      isym =  9     inversion                                    

 cryst.   s( 9) = (    -1          0          0      )    f =(  0.5000000 )
                  (     0         -1          0      )       (  0.5000000 )
                  (     0          0         -1      )       ( -0.0000000 )

 cart.    s( 9) = ( -1.0000000  0.0000000  0.0000000 )    f =(  0.5000000 )
                  (  0.0000000 -1.0000000  0.0000000 )       (  0.5000000 )
                  (  0.0000000  0.0000000 -1.0000000 )       ( -0.0000000 )


      isym = 10     inv. 180 deg rotation - cart. axis [0,0,1]   

 cryst.   s(10) = (     1          0          0      )    f =( -0.5000000 )
                  (     0          1          0      )       (  0.5000000 )
                  (     0          0         -1      )       ( -0.0000000 )

 cart.    s(10) = (  1.0000000  0.0000000  0.0000000 )    f =( -0.5000000 )
                  (  0.0000000  1.0000000  0.0000000 )       (  0.5000000 )
                  (  0.0000000  0.0000000 -1.0000000 )       ( -0.0000000 )


      isym = 11     inv. 180 deg rotation - cart. axis [0,1,0]   

 cryst.   s(11) = (     1          0          0      )
                  (     0         -1          0      )
                  (     0          0          1      )

 cart.    s(11) = (  1.0000000  0.0000000  0.0000000 )
                  (  0.0000000 -1.0000000  0.0000000 )
                  (  0.0000000  0.0000000  1.0000000 )


      isym = 12     inv. 180 deg rotation - cart. axis [1,0,0]   

 cryst.   s(12) = (    -1          0          0      )
                  (     0          1          0      )
                  (     0          0          1      )

 cart.    s(12) = ( -1.0000000  0.0000000  0.0000000 )
                  (  0.0000000  1.0000000  0.0000000 )
                  (  0.0000000  0.0000000  1.0000000 )


      isym = 13     inv. 180 deg rotation - cart. axis [1,1,0]   

 cryst.   s(13) = (     0         -1          0      )    f =(  0.5000000 )
                  (    -1          0          0      )       (  0.5000000 )
                  (     0          0          1      )       (  0.0000000 )

 cart.    s(13) = (  0.0000000 -1.0000000  0.0000000 )    f =(  0.5000000 )
                  ( -1.0000000  0.0000000  0.0000000 )       (  0.5000000 )
                  (  0.0000000  0.0000000  1.0000000 )       (  0.0000000 )


      isym = 14     inv. 180 deg rotation - cart. axis [1,-1,0]  

 cryst.   s(14) = (     0          1          0      )    f =( -0.5000000 )
                  (     1          0          0      )       (  0.5000000 )
                  (     0          0          1      )       (  0.0000000 )

 cart.    s(14) = (  0.0000000  1.0000000  0.0000000 )    f =( -0.5000000 )
                  (  1.0000000  0.0000000  0.0000000 )       (  0.5000000 )
                  (  0.0000000  0.0000000  1.0000000 )       (  0.0000000 )


      isym = 15     inv.  90 deg rotation - cart. axis [0,0,-1]  

 cryst.   s(15) = (     0          1          0      )
                  (    -1          0          0      )
                  (     0          0         -1      )

 cart.    s(15) = (  0.0000000 -1.0000000  0.0000000 )
                  (  1.0000000  0.0000000  0.0000000 )
                  (  0.0000000  0.0000000 -1.0000000 )


      isym = 16     inv.  90 deg rotation - cart. axis [0,0,1]   

 cryst.   s(16) = (     0         -1          0      )
                  (     1          0          0      )
                  (     0          0         -1      )

 cart.    s(16) = (  0.0000000  1.0000000  0.0000000 )
                  ( -1.0000000  0.0000000  0.0000000 )
                  (  0.0000000  0.0000000 -1.0000000 )


   Cartesian axes

     site n.     atom                  positions (alat units)
         1           Gd  tau(   1) = (   0.0000000   0.5000000   1.4098070  )
         2           Gd  tau(   2) = (   0.5000000   0.0000000   0.2900930  )
         3           Cl  tau(   3) = (   0.5000000   0.0000000   1.0666584  )
         4           Cl  tau(   4) = (   0.0000000   0.5000000   0.6332417  )
         5           O   tau(   5) = (   0.0000000   0.0000000   0.0000000  )
         6           O   tau(   6) = (   0.5000000   0.5000000   0.0000000  )

   Crystallographic axes

     site n.     atom                  positions (cryst. coord.)
         1           Gd  tau(   1) = (  0.0000000  0.5000000  0.8293470  )
         2           Gd  tau(   2) = (  0.5000000  0.0000000  0.1706530  )
         3           Cl  tau(   3) = (  0.5000000  0.0000000  0.6274830  )
         4           Cl  tau(   4) = (  0.0000000  0.5000000  0.3725170  )
         5           O   tau(   5) = (  0.0000000  0.0000000  0.0000000  )
         6           O   tau(   6) = (  0.5000000  0.5000000  0.0000000  )

     number of k points=     6
                       cart. coord. in units 2pi/alat
        k(    1) = (   0.0000000   0.0000000   0.0000000), wk =   0.0740741
        k(    2) = (   0.0000000   0.0000000   0.1960900), wk =   0.1481481
        k(    3) = (   0.0000000   0.3333333   0.0000000), wk =   0.2962963
        k(    4) = (   0.0000000   0.3333333   0.1960900), wk =   0.5925926
        k(    5) = (   0.3333333   0.3333333   0.0000000), wk =   0.2962963
        k(    6) = (   0.3333333   0.3333333   0.1960900), wk =   0.5925926

                       cryst. coord.
        k(    1) = (   0.0000000   0.0000000   0.0000000), wk =   0.0740741
        k(    2) = (   0.0000000   0.0000000   0.3333333), wk =   0.1481481
        k(    3) = (   0.0000000   0.3333333   0.0000000), wk =   0.2962963
        k(    4) = (   0.0000000   0.3333333   0.3333333), wk =   0.5925926
        k(    5) = (   0.3333333   0.3333333   0.0000000), wk =   0.2962963
        k(    6) = (   0.3333333   0.3333333   0.3333333), wk =   0.5925926

     Dense  grid:    45155 G-vectors     FFT dimensions: (  40,  40,  64)

     Smooth grid:    15893 G-vectors     FFT dimensions: (  30,  30,  45)

     Dynamical RAM for                 wfc:       0.49 MB

     Dynamical RAM for     wfc (w. buffer):       1.94 MB

     Dynamical RAM for           str. fact:       0.52 MB

     Dynamical RAM for           local pot:       0.00 MB

     Dynamical RAM for          nlocal pot:       0.88 MB

     Dynamical RAM for                qrad:       8.96 MB

     Dynamical RAM for          rho,v,vnew:       1.10 MB

     Dynamical RAM for               rhoin:       0.37 MB

     Dynamical RAM for            rho*nmix:       2.76 MB

     Dynamical RAM for           G-vectors:       0.68 MB

     Dynamical RAM for          h,s,v(r/c):       0.19 MB

     Dynamical RAM for          <psi|beta>:       0.11 MB

     Dynamical RAM for                 psi:       0.97 MB

     Dynamical RAM for                hpsi:       0.97 MB

     Dynamical RAM for                spsi:       0.97 MB

     Dynamical RAM for      wfcinit/wfcrot:       1.36 MB

     Dynamical RAM for           addusdens:      48.06 MB

     Estimated static dynamical RAM per process >      16.11 MB

     Estimated max dynamical RAM per process >      66.92 MB

     Estimated total dynamical RAM >     524.33 MB

     Check: negative core charge=   -0.000006

     Initial potential from superposition of free atoms

     starting charge      61.9897, renormalised to      62.0000

     negative rho (up, down):  2.989E-02 0.000E+00
     Starting wfcs are   80 randomized atomic wfcs
     Checking if some PAW data can be deallocated... 
       PAW data deallocated on    4 nodes for type:  1
       PAW data deallocated on    6 nodes for type:  3

     total cpu time spent up to now is        2.4 secs

     Self-consistent Calculation

     iteration #  1     ecut=    30.00 Ry     beta= 0.70
     Davidson diagonalization with overlap

---- Real-time Memory Report at c_bands before calling an iterative solver
           212 MiB given to the printing process from OS
             0 MiB allocation reported by mallinfo(arena+hblkhd)
        142565 MiB available memory on the node where the printing process lives
------------------
     ethr =  1.00E-02,  avg # of iterations =  6.8

     negative rho (up, down):  3.002E-02 0.000E+00

     total cpu time spent up to now is        3.2 secs

     total energy              =   -1516.76302987 Ry
     estimated scf accuracy    <       1.34481400 Ry

     iteration #  2     ecut=    30.00 Ry     beta= 0.70
     Davidson diagonalization with overlap

---- Real-time Memory Report at c_bands before calling an iterative solver
           259 MiB given to the printing process from OS
             0 MiB allocation reported by mallinfo(arena+hblkhd)
        142453 MiB available memory on the node where the printing process lives
------------------
     ethr =  2.17E-03,  avg # of iterations =  3.5

     negative rho (up, down):  3.042E-02 0.000E+00

     total cpu time spent up to now is        3.8 secs

     total energy              =   -1515.38655271 Ry
     estimated scf accuracy    <      11.78787818 Ry

     iteration #  3     ecut=    30.00 Ry     beta= 0.70
     Davidson diagonalization with overlap

---- Real-time Memory Report at c_bands before calling an iterative solver
           263 MiB given to the printing process from OS
             0 MiB allocation reported by mallinfo(arena+hblkhd)
        142418 MiB available memory on the node where the printing process lives
------------------
     ethr =  2.17E-03,  avg # of iterations =  2.2

     negative rho (up, down):  3.055E-02 0.000E+00

     total cpu time spent up to now is        4.4 secs

     total energy              =   -1517.18620850 Ry
     estimated scf accuracy    <       2.99083570 Ry

     iteration #  4     ecut=    30.00 Ry     beta= 0.70
     Davidson diagonalization with overlap

---- Real-time Memory Report at c_bands before calling an iterative solver
           263 MiB given to the printing process from OS
             0 MiB allocation reported by mallinfo(arena+hblkhd)
        142422 MiB available memory on the node where the printing process lives
------------------
     ethr =  2.17E-03,  avg # of iterations =  2.2

     negative rho (up, down):  3.054E-02 0.000E+00

     total cpu time spent up to now is        5.0 secs

     total energy              =   -1517.57807279 Ry
     estimated scf accuracy    <       0.47709438 Ry

     iteration #  5     ecut=    30.00 Ry     beta= 0.70
     Davidson diagonalization with overlap

---- Real-time Memory Report at c_bands before calling an iterative solver
           263 MiB given to the printing process from OS
             0 MiB allocation reported by mallinfo(arena+hblkhd)
        142414 MiB available memory on the node where the printing process lives
------------------
     ethr =  7.70E-04,  avg # of iterations =  1.5

     negative rho (up, down):  3.044E-02 0.000E+00

     total cpu time spent up to now is        5.5 secs

     total energy              =   -1517.57046938 Ry
     estimated scf accuracy    <       0.40399792 Ry

     iteration #  6     ecut=    30.00 Ry     beta= 0.70
     Davidson diagonalization with overlap

---- Real-time Memory Report at c_bands before calling an iterative solver
           263 MiB given to the printing process from OS
             0 MiB allocation reported by mallinfo(arena+hblkhd)
        142416 MiB available memory on the node where the printing process lives
------------------
     ethr =  6.52E-04,  avg # of iterations =  1.2

     negative rho (up, down):  3.013E-02 0.000E+00

     total cpu time spent up to now is        6.1 secs

     total energy              =   -1517.60954159 Ry
     estimated scf accuracy    <       0.14676153 Ry

     iteration #  7     ecut=    30.00 Ry     beta= 0.70
     Davidson diagonalization with overlap

---- Real-time Memory Report at c_bands before calling an iterative solver
           263 MiB given to the printing process from OS
             0 MiB allocation reported by mallinfo(arena+hblkhd)
        142415 MiB available memory on the node where the printing process lives
------------------
     ethr =  2.37E-04,  avg # of iterations =  1.5

     negative rho (up, down):  3.010E-02 0.000E+00

     total cpu time spent up to now is        6.6 secs

     total energy              =   -1517.63126514 Ry
     estimated scf accuracy    <       0.01117839 Ry

     iteration #  8     ecut=    30.00 Ry     beta= 0.70
     Davidson diagonalization with overlap

---- Real-time Memory Report at c_bands before calling an iterative solver
           263 MiB given to the printing process from OS
             0 MiB allocation reported by mallinfo(arena+hblkhd)
        142418 MiB available memory on the node where the printing process lives
------------------
     ethr =  1.80E-05,  avg # of iterations =  6.3

     negative rho (up, down):  3.009E-02 0.000E+00

     total cpu time spent up to now is        7.3 secs

     total energy              =   -1517.64035246 Ry
     estimated scf accuracy    <       0.00282497 Ry

     iteration #  9     ecut=    30.00 Ry     beta= 0.70
     Davidson diagonalization with overlap

---- Real-time Memory Report at c_bands before calling an iterative solver
           263 MiB given to the printing process from OS
             0 MiB allocation reported by mallinfo(arena+hblkhd)
        142414 MiB available memory on the node where the printing process lives
------------------
     ethr =  4.56E-06,  avg # of iterations =  4.5

     negative rho (up, down):  3.011E-02 0.000E+00

     total cpu time spent up to now is        7.9 secs

     total energy              =   -1517.64147006 Ry
     estimated scf accuracy    <       0.00198434 Ry

     iteration # 10     ecut=    30.00 Ry     beta= 0.70
     Davidson diagonalization with overlap

---- Real-time Memory Report at c_bands before calling an iterative solver
           263 MiB given to the printing process from OS
             0 MiB allocation reported by mallinfo(arena+hblkhd)
        142407 MiB available memory on the node where the printing process lives
------------------
     ethr =  3.20E-06,  avg # of iterations =  1.5

     negative rho (up, down):  3.012E-02 0.000E+00

     total cpu time spent up to now is        8.6 secs

     total energy              =   -1517.64136245 Ry
     estimated scf accuracy    <       0.00146874 Ry

     iteration # 11     ecut=    30.00 Ry     beta= 0.70
     Davidson diagonalization with overlap

---- Real-time Memory Report at c_bands before calling an iterative solver
           264 MiB given to the printing process from OS
             0 MiB allocation reported by mallinfo(arena+hblkhd)
        142411 MiB available memory on the node where the printing process lives
------------------
     ethr =  2.37E-06,  avg # of iterations =  1.3

     negative rho (up, down):  3.011E-02 0.000E+00

     total cpu time spent up to now is        9.1 secs

     total energy              =   -1517.64151007 Ry
     estimated scf accuracy    <       0.00029430 Ry

     iteration # 12     ecut=    30.00 Ry     beta= 0.70
     Davidson diagonalization with overlap

---- Real-time Memory Report at c_bands before calling an iterative solver
           264 MiB given to the printing process from OS
             0 MiB allocation reported by mallinfo(arena+hblkhd)
        142410 MiB available memory on the node where the printing process lives
------------------
     ethr =  4.75E-07,  avg # of iterations =  1.2

     negative rho (up, down):  3.011E-02 0.000E+00

     total cpu time spent up to now is        9.7 secs

     total energy              =   -1517.64165411 Ry
     estimated scf accuracy    <       0.00010350 Ry

     iteration # 13     ecut=    30.00 Ry     beta= 0.70
     Davidson diagonalization with overlap

---- Real-time Memory Report at c_bands before calling an iterative solver
           264 MiB given to the printing process from OS
             0 MiB allocation reported by mallinfo(arena+hblkhd)
        142411 MiB available memory on the node where the printing process lives
------------------
     ethr =  1.67E-07,  avg # of iterations =  1.0

     negative rho (up, down):  3.012E-02 0.000E+00

     total cpu time spent up to now is       10.3 secs

     total energy              =   -1517.64168590 Ry
     estimated scf accuracy    <       0.00001657 Ry

     iteration # 14     ecut=    30.00 Ry     beta= 0.70
     Davidson diagonalization with overlap

---- Real-time Memory Report at c_bands before calling an iterative solver
           264 MiB given to the printing process from OS
             0 MiB allocation reported by mallinfo(arena+hblkhd)
        142409 MiB available memory on the node where the printing process lives
------------------
     ethr =  2.67E-08,  avg # of iterations =  1.2

     negative rho (up, down):  3.013E-02 0.000E+00

     total cpu time spent up to now is       11.0 secs

     total energy              =   -1517.64169380 Ry
     estimated scf accuracy    <       0.00000378 Ry

     iteration # 15     ecut=    30.00 Ry     beta= 0.70
     Davidson diagonalization with overlap

---- Real-time Memory Report at c_bands before calling an iterative solver
           264 MiB given to the printing process from OS
             0 MiB allocation reported by mallinfo(arena+hblkhd)
        142410 MiB available memory on the node where the printing process lives
------------------
     ethr =  6.10E-09,  avg # of iterations =  2.3

     negative rho (up, down):  3.012E-02 0.000E+00

     total cpu time spent up to now is       11.6 secs

     total energy              =   -1517.64173128 Ry
     estimated scf accuracy    <       0.00001498 Ry

     iteration # 16     ecut=    30.00 Ry     beta= 0.70
     Davidson diagonalization with overlap

---- Real-time Memory Report at c_bands before calling an iterative solver
           264 MiB given to the printing process from OS
             0 MiB allocation reported by mallinfo(arena+hblkhd)
        142413 MiB available memory on the node where the printing process lives
------------------
     ethr =  6.10E-09,  avg # of iterations =  1.3

     negative rho (up, down):  3.012E-02 0.000E+00

     total cpu time spent up to now is       12.1 secs

     End of self-consistent calculation

          k = 0.0000 0.0000 0.0000 (  2023 PWs)   bands (ev):

   -31.7199 -31.6565 -10.7079  -9.7046  -9.7046  -9.4402  -9.4402  -9.4385
    -7.3177  -6.7055  -4.9215  -4.3982   5.4598   6.1207   6.1207   6.3462
     6.4035   6.7100   6.7100   7.3448   7.3448   8.1383   8.4721   8.4721
    10.0459  10.0463  10.0502  10.0502  10.0692  10.0820  10.0820  10.1064
    10.1064  10.1876  10.4037  10.4037  10.4501  10.4730  14.2012  14.4107
    14.5766  14.5917  15.9976  16.2328  17.0993  17.4143  17.4143  17.9490
    18.4940  18.4940  19.5921  19.6788  20.9975  20.9975  21.9727  22.5878
    22.5878  23.3331  25.1039  25.6489  25.8709  26.0514  26.4423  26.4423

     occupation numbers 
     1.0000   1.0000   1.0000   1.0000   1.0000   1.0000   1.0000   1.0000
     1.0000   1.0000   1.0000   1.0000   1.0000   1.0000   1.0000   1.0000
     1.0000   1.0000   1.0000   1.0000   1.0000   1.0000   1.0000   1.0000
     1.0000   1.0000   1.0000   1.0000   1.0000   1.0000   1.0000   0.0000
     0.0000   0.0000   0.0000   0.0000   0.0000   0.0000   0.0000   0.0000
     0.0000   0.0000   0.0000   0.0000   0.0000   0.0000   0.0000   0.0000
     0.0000   0.0000   0.0000   0.0000   0.0000   0.0000   0.0000   0.0000
     0.0000   0.0000   0.0000   0.0000   0.0000   0.0000   0.0000   0.0000

          k = 0.0000 0.0000 0.1961 (  1998 PWs)   bands (ev):

   -31.7197 -31.6567 -10.6950  -9.7026  -9.7026  -9.4868  -9.4421  -9.4421
    -7.3170  -6.5838  -5.0596  -4.3350   5.1029   6.1765   6.1765   6.4107
     6.5177   6.5177   6.8454   7.7188   7.7188   7.7771   8.2450   8.2450
    10.0265  10.0593  10.0593  10.0665  10.0728  10.0837  10.0837  10.1216
    10.1216  10.1856  10.3994  10.3994  10.4267  10.4844  14.6521  14.6715
    15.0046  15.5359  16.0804  16.1020  16.2309  17.2827  17.5855  17.5855
    18.1814  18.1814  18.7086  20.2949  20.8140  20.8140  22.3821  22.4586
    22.9141  22.9141  23.3225  24.5048  25.2831  26.6033  26.6033  28.7295

     occupation numbers 
     1.0000   1.0000   1.0000   1.0000   1.0000   1.0000   1.0000   1.0000
     1.0000   1.0000   1.0000   1.0000   1.0000   1.0000   1.0000   1.0000
     1.0000   1.0000   1.0000   1.0000   1.0000   1.0000   1.0000   1.0000
     1.0000   1.0000   1.0000   1.0000   1.0000   1.0000   1.0000   0.0000
     0.0000   0.0000   0.0000   0.0000   0.0000   0.0000   0.0000   0.0000
     0.0000   0.0000   0.0000   0.0000   0.0000   0.0000   0.0000   0.0000
     0.0000   0.0000   0.0000   0.0000   0.0000   0.0000   0.0000   0.0000
     0.0000   0.0000   0.0000   0.0000   0.0000   0.0000   0.0000   0.0000

          k = 0.0000 0.3333 0.0000 (  1989 PWs)   bands (ev):

   -31.6959 -31.6641 -10.7868 -10.4517  -9.6215  -9.5621  -9.4888  -9.4479
    -6.6153  -6.2853  -4.8453  -4.4688   5.3103   5.8599   6.3727   6.4126
     6.8365   6.8549   6.9362   7.1557   7.2219   7.7618   7.8891   7.9849
    10.0366  10.0443  10.0604  10.0660  10.0685  10.1060  10.1341  10.1658
    10.2428  10.2494  10.3164  10.3274  10.4943  10.5720  14.7120  14.8397
    15.3583  15.3764  15.6501  16.0089  16.1727  16.5951  17.0673  17.5449
    18.2671  19.0566  20.2149  21.2024  21.8758  21.9248  22.5567  22.6824
    23.3894  24.1029  24.2311  25.0575  25.0842  25.5198  26.1461  27.1362

     occupation numbers 
     1.0000   1.0000   1.0000   1.0000   1.0000   1.0000   1.0000   1.0000
     1.0000   1.0000   1.0000   1.0000   1.0000   1.0000   1.0000   1.0000
     1.0000   1.0000   1.0000   1.0000   1.0000   1.0000   1.0000   1.0000
     1.0000   1.0000   1.0000   1.0000   1.0000   1.0000   1.0000   0.0000
     0.0000   0.0000   0.0000   0.0000   0.0000   0.0000   0.0000   0.0000
     0.0000   0.0000   0.0000   0.0000   0.0000   0.0000   0.0000   0.0000
     0.0000   0.0000   0.0000   0.0000   0.0000   0.0000   0.0000   0.0000
     0.0000   0.0000   0.0000   0.0000   0.0000   0.0000   0.0000   0.0000

          k = 0.0000 0.3333 0.1961 (  1994 PWs)   bands (ev):

   -31.6958 -31.6643 -10.7950 -10.4626  -9.6206  -9.5332  -9.4897  -9.4513
    -6.6302  -6.2797  -4.8275  -4.4686   5.5071   5.7637   6.2199   6.3436
     6.4156   6.5198   6.7727   7.4143   7.5201   7.7885   8.0644   8.2653
    10.0319  10.0479  10.0589  10.0730  10.0785  10.1052  10.1187  10.1835
    10.2345  10.2690  10.3143  10.3255  10.4842  10.5668  14.7582  14.9379
    15.2354  15.6147  16.1167  16.2132  16.4317  16.7322  17.1050  17.4395
    17.9524  18.8640  19.7469  20.7836  21.0883  21.4761  22.0254  22.5280
    22.9628  23.2742  24.1477  25.2249  25.9846  26.5641  27.6594  27.8314

     occupation numbers 
     1.0000   1.0000   1.0000   1.0000   1.0000   1.0000   1.0000   1.0000
     1.0000   1.0000   1.0000   1.0000   1.0000   1.0000   1.0000   1.0000
     1.0000   1.0000   1.0000   1.0000   1.0000   1.0000   1.0000   1.0000
     1.0000   1.0000   1.0000   1.0000   1.0000   1.0000   1.0000   0.0000
     0.0000   0.0000   0.0000   0.0000   0.0000   0.0000   0.0000   0.0000
     0.0000   0.0000   0.0000   0.0000   0.0000   0.0000   0.0000   0.0000
     0.0000   0.0000   0.0000   0.0000   0.0000   0.0000   0.0000   0.0000
     0.0000   0.0000   0.0000   0.0000   0.0000   0.0000   0.0000   0.0000

          k = 0.3333 0.3333 0.0000 (  1997 PWs)   bands (ev):

   -31.6800 -31.6640 -10.9137 -10.7490  -9.7343  -9.6174  -9.5564  -9.4749
    -6.1102  -5.9670  -4.7547  -4.5469   5.6938   5.7056   5.7371   6.1208
     6.1874   6.6625   7.1847   7.3758   7.6358   7.9421   7.9741   7.9978
     9.9983  10.0028  10.0439  10.0651  10.0999  10.1255  10.2156  10.2378
    10.2702  10.3120  10.3240  10.4185  10.4917  10.5533  14.5748  14.7769
    15.3731  15.9330  16.1815  16.6556  16.7762  16.9438  17.1977  17.4136
    18.3442  18.7858  19.5398  20.6780  21.1566  21.6411  22.6183  23.1009
    23.8449  23.9663  24.1657  25.1408  25.6700  26.6234  26.7068  27.9898

     occupation numbers 
     1.0000   1.0000   1.0000   1.0000   1.0000   1.0000   1.0000   1.0000
     1.0000   1.0000   1.0000   1.0000   1.0000   1.0000   1.0000   1.0000
     1.0000   1.0000   1.0000   1.0000   1.0000   1.0000   1.0000   1.0000
     1.0000   1.0000   1.0000   1.0000   1.0000   1.0000   1.0000   0.0000
     0.0000   0.0000   0.0000   0.0000   0.0000   0.0000   0.0000   0.0000
     0.0000   0.0000   0.0000   0.0000   0.0000   0.0000   0.0000   0.0000
     0.0000   0.0000   0.0000   0.0000   0.0000   0.0000   0.0000   0.0000
     0.0000   0.0000   0.0000   0.0000   0.0000   0.0000   0.0000   0.0000

          k = 0.3333 0.3333 0.1961 (  1987 PWs)   bands (ev):

   -31.6799 -31.6641 -10.9180 -10.7473  -9.7561  -9.5995  -9.5594  -9.4686
    -6.1085  -5.9759  -4.7279  -4.5354   5.0778   5.6322   5.6619   6.3187
     6.5802   6.9329   7.1706   7.3025   7.7530   7.8193   7.9275   7.9754
     9.9991  10.0066  10.0358  10.0689  10.1033  10.1219  10.2157  10.2459
    10.2782  10.3075  10.3253  10.4191  10.4483  10.5238  14.8471  15.4710
    15.5452  16.1587  16.1822  16.3125  16.8656  16.8732  17.3788  17.8191
    18.2118  18.3522  19.5554  19.6713  20.8888  21.6301  21.9653  22.3618
    22.6645  23.8404  24.0939  25.6669  26.3367  26.7118  27.2413  28.2797

     occupation numbers 
     1.0000   1.0000   1.0000   1.0000   1.0000   1.0000   1.0000   1.0000
     1.0000   1.0000   1.0000   1.0000   1.0000   1.0000   1.0000   1.0000
     1.0000   1.0000   1.0000   1.0000   1.0000   1.0000   1.0000   1.0000
     1.0000   1.0000   1.0000   1.0000   1.0000   1.0000   1.0000   0.0000
     0.0000   0.0000   0.0000   0.0000   0.0000   0.0000   0.0000   0.0000
     0.0000   0.0000   0.0000   0.0000   0.0000   0.0000   0.0000   0.0000
     0.0000   0.0000   0.0000   0.0000   0.0000   0.0000   0.0000   0.0000
     0.0000   0.0000   0.0000   0.0000   0.0000   0.0000   0.0000   0.0000

     highest occupied, lowest unoccupied level (ev):    10.2157   10.1064

!    total energy              =   -1517.64173853 Ry
     estimated scf accuracy    <       0.00000095 Ry

     The total energy is the sum of the following terms:
     one-electron contribution =    -278.80069050 Ry
     hartree contribution      =     181.90149378 Ry
     xc contribution           =     -79.06738458 Ry
     ewald contribution        =    -390.69472771 Ry
     one-center paw contrib.   =    -950.98042952 Ry
      -> PAW hartree energy AE =     182.94028826 Ry
      -> PAW hartree energy PS =    -173.60474526 Ry
      -> PAW xc energy AE      =    -496.61135252 Ry
      -> PAW xc energy PS      =      21.31026287 Ry
      -> total E_H with PAW    =     191.23703678 Ry
      -> total E_XC with PAW   =    -554.36847423 Ry

     convergence has been achieved in  16 iterations

     Writing all to output data dir calculations_bands_val/myprefix.save/
 
     init_run     :      7.38s CPU      2.03s WALL (       1 calls)
     electrons    :     36.24s CPU      9.73s WALL (       1 calls)

     Called by init_run:
     wfcinit      :      0.37s CPU      0.10s WALL (       1 calls)
     wfcinit:atom :      0.00s CPU      0.00s WALL (       3 calls)
     wfcinit:wfcr :      0.34s CPU      0.09s WALL (       3 calls)
     potinit      :      2.71s CPU      0.71s WALL (       1 calls)
     hinit0       :      2.49s CPU      0.71s WALL (       1 calls)

     Called by electrons:
     c_bands      :     12.04s CPU      3.14s WALL (      16 calls)
     sum_band     :      5.39s CPU      1.59s WALL (      16 calls)
     v_of_rho     :      0.51s CPU      0.13s WALL (      17 calls)
     v_h          :      0.05s CPU      0.01s WALL (      17 calls)
     v_xc         :      0.46s CPU      0.12s WALL (      17 calls)
     newd         :      3.67s CPU      1.01s WALL (      17 calls)
     PAW_pot      :     16.15s CPU      4.26s WALL (      17 calls)
     mix_rho      :      0.15s CPU      0.04s WALL (      16 calls)

     Called by c_bands:
     init_us_2    :      0.11s CPU      0.03s WALL (      99 calls)
     init_us_2:cp :      0.11s CPU      0.03s WALL (      99 calls)
     cegterg      :      9.98s CPU      2.60s WALL (      48 calls)

     Called by sum_band:
     sum_band:wei :      0.00s CPU      0.00s WALL (      16 calls)
     sum_band:loo :      1.66s CPU      0.44s WALL (      16 calls)
     sum_band:buf :      0.02s CPU      0.01s WALL (      48 calls)
     sum_band:ini :      0.05s CPU      0.01s WALL (      48 calls)
     sum_band:cal :      0.09s CPU      0.02s WALL (      48 calls)
     sum_band:bec :      0.03s CPU      0.01s WALL (      48 calls)
     addusdens    :      3.19s CPU      1.01s WALL (      16 calls)
     addusd:skk   :      0.01s CPU      0.00s WALL (      48 calls)
     addusd:dgemm :      0.59s CPU      0.34s WALL (      48 calls)
     addusd:qvan2 :      2.20s CPU      0.55s WALL (      48 calls)

     Called by *egterg:
     cdiaghg      :      2.53s CPU      0.66s WALL (     157 calls)
     cegterg:over :      0.31s CPU      0.08s WALL (     109 calls)
     cegterg:upda :      0.17s CPU      0.04s WALL (     109 calls)
     cegterg:last :      0.24s CPU      0.06s WALL (      74 calls)
     cdiaghg:chol :      0.17s CPU      0.05s WALL (     157 calls)
     cdiaghg:inve :      0.04s CPU      0.01s WALL (     157 calls)
     cdiaghg:para :      0.36s CPU      0.09s WALL (     314 calls)
     h_psi        :      6.69s CPU      1.74s WALL (     160 calls)
     s_psi        :      0.11s CPU      0.03s WALL (     160 calls)
     g_psi        :      0.01s CPU      0.00s WALL (     109 calls)

     Called by h_psi:
     h_psi:calbec :      0.23s CPU      0.06s WALL (     160 calls)
     vloc_psi     :      6.28s CPU      1.63s WALL (     160 calls)
     add_vuspsi   :      0.15s CPU      0.04s WALL (     160 calls)

     General routines
     calbec       :      0.32s CPU      0.09s WALL (     208 calls)
     fft          :      1.31s CPU      0.36s WALL (     219 calls)
     ffts         :      0.53s CPU      0.14s WALL (      33 calls)
     fftw         :      6.41s CPU      1.68s WALL (   16890 calls)
     interpolate  :      0.56s CPU      0.15s WALL (      17 calls)
 
     Parallel routines

     PAW routines
     PAW_pot      :     16.15s CPU      4.26s WALL (      17 calls)
     PAW_symme    :      0.41s CPU      0.11s WALL (      33 calls)
 
     PWSCF        :     44.36s CPU     12.25s WALL

 
   This run was terminated on:  14:40:20   4Jun2023            

=------------------------------------------------------------------------------=
   JOB DONE.
=------------------------------------------------------------------------------=
