
     Program PWSCF v.7.0 starts on  4Jun2023 at 12:36:41 

     This program is part of the open-source Quantum ESPRESSO suite
     for quantum simulation of materials; please cite
         "P. Giannozzi et al., J. Phys.:Condens. Matter 21 395502 (2009);
         "P. Giannozzi et al., J. Phys.:Condens. Matter 29 465901 (2017);
         "P. Giannozzi et al., J. Chem. Phys. 152 154105 (2020);
          URL http://www.quantum-espresso.org", 
     in publications or presentations arising from this work. More details at
     http://www.quantum-espresso.org/quote

     Parallel version (MPI & OpenMP), running on      32 processor cores
     Number of MPI processes:                 8
     Threads/MPI process:                     4

     MPI processes distributed on     1 nodes
     K-points division:     npool     =       2
     R & G space division:  proc/nbgrp/npool/nimage =       4
     141938 MiB available memory on the printing compute node when the environment starts
 
     Reading input from espresso_452.pwi
Warning: card &CELL ignored
Warning: card / ignored

     Current dimensions of program PWSCF are:
     Max number of different atomic species (ntypx) = 10
     Max number of k-points (npk) =  40000
     Max angular momentum in pseudopotentials (lmaxx) =  4
     file O.pbe-n-kjpaw_psl.0.1.UPF: wavefunction(s)  2P renormalized
     Message from routine setup:
     using ibrav=0 with symmetry is DISCOURAGED, use correct ibrav instead

     Subspace diagonalization in iterative solution of the eigenvalue problem:
     one sub-group per band group will be used
     scalapack distributed-memory algorithm (size of sub-group:  2*  2 procs)

 
     Parallelization info
     --------------------
     sticks:   dense  smooth     PW     G-vecs:    dense   smooth      PW
     Min         403     202     60                15352     5451     874
     Max         404     203     61                15353     5454     876
     Sum        1615     811    241                61411    21811    3499
 
     Using Slab Decomposition
 


     bravais-lattice index     =            0
     lattice parameter (alat)  =       9.4125  a.u.
     unit-cell volume          =     978.5909 (a.u.)^3
     number of atoms/cell      =           16
     number of atomic types    =            4
     number of electrons       =        76.00
     number of Kohn-Sham states=           64
     kinetic-energy cutoff     =      30.0000  Ry
     charge density cutoff     =     240.0000  Ry
     scf convergence threshold =      1.0E-06
     mixing beta               =       0.7000
     number of iterations used =            8  plain     mixing
     Exchange-correlation= SLA  PW   PBX  PBC
                           (   1   4   3   4   0   0   0)

     celldm(1)=   9.412454  celldm(2)=   0.000000  celldm(3)=   0.000000
     celldm(4)=   0.000000  celldm(5)=   0.000000  celldm(6)=   0.000000

     crystal axes: (cart. coord. in units of alat)
               a(1) = (   1.000000   0.000000   0.000000 )  
               a(2) = (   0.000000   0.952410   0.000000 )  
               a(3) = (   0.000000   0.952274   1.232165 )  

     reciprocal axes: (cart. coord. in units 2 pi/alat)
               b(1) = (  1.000000  0.000000  0.000000 )  
               b(2) = (  0.000000  1.049968 -0.811464 )  
               b(3) = (  0.000000  0.000000  0.811580 )  


     PseudoPot. # 1 for Li read from file:
     /home/pragov/projects/rrg-bengioy-ad/pragov/crystal_structure_design/SSSP/li_pbe_v1.4.uspp.F.UPF
     MD5 check sum: e912e257baa3777c20ea3d68f190483c
     Pseudo is Ultrasoft, Zval =  3.0
     Generated by new atomic code, or converted to UPF format
     Using radial grid of  751 points,  5 beta functions with: 
                l(1) =   0
                l(2) =   0
                l(3) =   0
                l(4) =   1
                l(5) =   1
     Q(r) pseudized with 10 coefficients,  rinner =    1.150   1.150   1.150


     PseudoPot. # 2 for Be read from file:
     /home/pragov/projects/rrg-bengioy-ad/pragov/crystal_structure_design/SSSP/be_pbe_v1.4.uspp.F.UPF
     MD5 check sum: 5ecff1440924c7c98ad504bef30f5264
     Pseudo is Ultrasoft, Zval =  4.0
     Generated by new atomic code, or converted to UPF format
     Using radial grid of  769 points,  6 beta functions with: 
                l(1) =   0
                l(2) =   0
                l(3) =   0
                l(4) =   1
                l(5) =   1
                l(6) =   2
     Q(r) pseudized with 10 coefficients,  rinner =    1.000   1.000   1.000
                                                       1.000   1.000

     PseudoPot. # 3 for Si read from file:
     /home/pragov/projects/rrg-bengioy-ad/pragov/crystal_structure_design/SSSP/Si.pbe-n-rrkjus_psl.1.0.0.UPF
     MD5 check sum: 0b0bb1205258b0d07b9f9672cf965d36
     Pseudo is Ultrasoft + core correction, Zval =  4.0
     Generated using "atomic" code by A. Dal Corso  v.5.1
     Using radial grid of 1141 points,  6 beta functions with: 
                l(1) =   0
                l(2) =   0
                l(3) =   1
                l(4) =   1
                l(5) =   2
                l(6) =   2
     Q(r) pseudized with 0 coefficients 


     PseudoPot. # 4 for O  read from file:
     /home/pragov/projects/rrg-bengioy-ad/pragov/crystal_structure_design/SSSP/O.pbe-n-kjpaw_psl.0.1.UPF
     MD5 check sum: 0234752ac141de4415c5fc33072bef88
     Pseudo is Projector augmented-wave + core cor, Zval =  6.0
     Generated using "atomic" code by A. Dal Corso  v.5.0.99 svn rev. 10869
     Shape of augmentation charge: BESSEL
     Using radial grid of 1095 points,  4 beta functions with: 
                l(1) =   0
                l(2) =   0
                l(3) =   1
                l(4) =   1
     Q(r) pseudized with 0 coefficients 


     atomic species   valence    mass     pseudopotential
        Li             3.00     6.94000     Li( 1.00)
        Be             4.00     9.01218     Be( 1.00)
        Si             4.00    28.08500     Si( 1.00)
        O              6.00    15.99900     O ( 1.00)

      2 Sym. Ops. (no inversion) found ( 1 have fractional translation)


                                    s                        frac. trans.

      isym =  1     identity                                     

 cryst.   s( 1) = (     1          0          0      )
                  (     0          1          0      )
                  (     0          0          1      )

 cart.    s( 1) = (  1.0000000  0.0000000  0.0000000 )
                  (  0.0000000  1.0000000 -0.0000000 )
                  (  0.0000000  0.0000000  1.0000000 )


      isym =  2     inv. 180 deg rotation - cart. axis [1,0,0]   

 cryst.   s( 2) = (    -1          0          0      )    f =(  0.0000000 )
                  (     0          1          0      )       (  0.0000000 )
                  (     0          0          1      )       (  0.5000000 )

 cart.    s( 2) = ( -1.0000000  0.0000000  0.0000000 )    f =(  0.0000000 )
                  (  0.0000000  1.0000000 -0.0000000 )       (  0.4761369 )
                  (  0.0000000  0.0000000  1.0000000 )       (  0.6160824 )


   Cartesian axes

     site n.     atom                  positions (alat units)
         1           Li  tau(   1) = (   0.1747030   0.9537456   0.6166984  )
         2           Li  tau(   2) = (   0.8252970   0.4776087   0.0006161  )
         3           Li  tau(   3) = (   0.3354990   0.4777239   0.3112694  )
         4           Li  tau(   4) = (   0.6645010   0.9538609   0.9273518  )
         5           Be  tau(   5) = (   0.3199410   1.4202485   0.9261825  )
         6           Be  tau(   6) = (   0.6800590   0.9441115   0.3101001  )
         7           Si  tau(   7) = (   0.1799280   0.9440253   0.0035141  )
         8           Si  tau(   8) = (   0.8200720   1.4201623   0.6195965  )
         9           O   tau(   9) = (   0.2003990   1.5672716   1.1974386  )
        10           O   tau(  10) = (   0.6998760   0.6145630   0.3488665  )
        11           O   tau(  11) = (   0.8616670   0.0775682   0.0414993  )
        12           O   tau(  12) = (   0.7996010   1.0911346   0.5813563  )
        13           O   tau(  13) = (   0.1383330   0.5537052   0.6575817  )
        14           O   tau(  14) = (   0.3589780   1.0303738   0.2695077  )
        15           O   tau(  15) = (   0.6410220   1.5065108   0.8855900  )
        16           O   tau(  16) = (   0.3001240   1.0906999   0.9649488  )

   Crystallographic axes

     site n.     atom                  positions (cryst. coord.)
         1           Li  tau(   1) = (  0.1747030  0.5009740  0.5005000  )
         2           Li  tau(   2) = (  0.8252970  0.5009740  0.0005000  )
         3           Li  tau(   3) = (  0.3354990  0.2490110  0.2526200  )
         4           Li  tau(   4) = (  0.6645010  0.2490110  0.7526200  )
         5           Be  tau(   5) = (  0.3199410  0.7396520  0.7516710  )
         6           Be  tau(   6) = (  0.6800590  0.7396520  0.2516710  )
         7           Si  tau(   7) = (  0.1799280  0.9883450  0.0028520  )
         8           Si  tau(   8) = (  0.8200720  0.9883450  0.5028520  )
         9           O   tau(   9) = (  0.2003990  0.6739070  0.9718170  )
        10           O   tau(  10) = (  0.6998760  0.3621790  0.2831330  )
        11           O   tau(  11) = (  0.8616670  0.0477690  0.0336800  )
        12           O   tau(  12) = (  0.7996010  0.6739070  0.4718170  )
        13           O   tau(  13) = (  0.1383330  0.0477690  0.5336800  )
        14           O   tau(  14) = (  0.3589780  0.8631640  0.2187270  )
        15           O   tau(  15) = (  0.6410220  0.8631640  0.7187270  )
        16           O   tau(  16) = (  0.3001240  0.3621790  0.7831330  )

     number of k points=    10
                       cart. coord. in units 2pi/alat
        k(    1) = (   0.0000000   0.0000000   0.0000000), wk =   0.0740741
        k(    2) = (   0.0000000   0.0000000   0.2705266), wk =   0.1481481
        k(    3) = (   0.0000000   0.3499894  -0.2704880), wk =   0.1481481
        k(    4) = (   0.0000000   0.3499894   0.0000386), wk =   0.1481481
        k(    5) = (   0.0000000   0.3499894  -0.5410146), wk =   0.1481481
        k(    6) = (   0.3333333   0.0000000   0.0000000), wk =   0.1481481
        k(    7) = (   0.3333333   0.0000000   0.2705266), wk =   0.2962963
        k(    8) = (   0.3333333   0.3499894  -0.2704880), wk =   0.2962963
        k(    9) = (   0.3333333   0.3499894   0.0000386), wk =   0.2962963
        k(   10) = (   0.3333333   0.3499894  -0.5410146), wk =   0.2962963

                       cryst. coord.
        k(    1) = (   0.0000000   0.0000000   0.0000000), wk =   0.0740741
        k(    2) = (   0.0000000   0.0000000   0.3333333), wk =   0.1481481
        k(    3) = (   0.0000000   0.3333333   0.0000000), wk =   0.1481481
        k(    4) = (   0.0000000   0.3333333   0.3333333), wk =   0.1481481
        k(    5) = (   0.0000000   0.3333333  -0.3333333), wk =   0.1481481
        k(    6) = (   0.3333333   0.0000000   0.0000000), wk =   0.1481481
        k(    7) = (   0.3333333   0.0000000   0.3333333), wk =   0.2962963
        k(    8) = (   0.3333333   0.3333333   0.0000000), wk =   0.2962963
        k(    9) = (   0.3333333   0.3333333   0.3333333), wk =   0.2962963
        k(   10) = (   0.3333333   0.3333333  -0.3333333), wk =   0.2962963

     Dense  grid:    61411 G-vectors     FFT dimensions: (  48,  45,  80)

     Smooth grid:    21811 G-vectors     FFT dimensions: (  36,  32,  54)

     Dynamical RAM for                 wfc:       0.66 MB

     Dynamical RAM for     wfc (w. buffer):       3.97 MB

     Dynamical RAM for           str. fact:       0.94 MB

     Dynamical RAM for           local pot:       0.00 MB

     Dynamical RAM for          nlocal pot:       1.70 MB

     Dynamical RAM for                qrad:       4.98 MB

     Dynamical RAM for          rho,v,vnew:       1.69 MB

     Dynamical RAM for               rhoin:       0.56 MB

     Dynamical RAM for            rho*nmix:       3.75 MB

     Dynamical RAM for           G-vectors:       0.92 MB

     Dynamical RAM for          h,s,v(r/c):       0.19 MB

     Dynamical RAM for          <psi|beta>:       0.16 MB

     Dynamical RAM for                 psi:       1.32 MB

     Dynamical RAM for                hpsi:       1.32 MB

     Dynamical RAM for                spsi:       1.32 MB

     Dynamical RAM for      wfcinit/wfcrot:       1.56 MB

     Dynamical RAM for           addusdens:      22.84 MB

     Estimated static dynamical RAM per process >      17.58 MB

     Estimated max dynamical RAM per process >      44.17 MB

     Estimated total dynamical RAM >     338.33 MB

     Check: negative core charge=   -0.000014

     Initial potential from superposition of free atoms

     starting charge      74.1956, renormalised to      76.0000
     Starting wfcs are   70 randomized atomic wfcs
     Checking if some PAW data can be deallocated... 
       PAW data deallocated on    4 nodes for type:  4

     total cpu time spent up to now is        2.5 secs

     Self-consistent Calculation

     iteration #  1     ecut=    30.00 Ry     beta= 0.70
     Davidson diagonalization with overlap

---- Real-time Memory Report at c_bands before calling an iterative solver
           201 MiB given to the printing process from OS
             0 MiB allocation reported by mallinfo(arena+hblkhd)
        141190 MiB available memory on the node where the printing process lives
------------------
     ethr =  1.00E-02,  avg # of iterations =  4.1

     total cpu time spent up to now is        3.3 secs

     total energy              =    -471.45127107 Ry
     estimated scf accuracy    <       1.30903470 Ry

     iteration #  2     ecut=    30.00 Ry     beta= 0.70
     Davidson diagonalization with overlap

---- Real-time Memory Report at c_bands before calling an iterative solver
           235 MiB given to the printing process from OS
             0 MiB allocation reported by mallinfo(arena+hblkhd)
        141077 MiB available memory on the node where the printing process lives
------------------
     ethr =  1.72E-03,  avg # of iterations =  2.1

     total cpu time spent up to now is        3.9 secs

     total energy              =    -471.77382973 Ry
     estimated scf accuracy    <       0.92310916 Ry

     iteration #  3     ecut=    30.00 Ry     beta= 0.70
     Davidson diagonalization with overlap

---- Real-time Memory Report at c_bands before calling an iterative solver
           243 MiB given to the printing process from OS
             0 MiB allocation reported by mallinfo(arena+hblkhd)
        141048 MiB available memory on the node where the printing process lives
------------------
     ethr =  1.21E-03,  avg # of iterations =  2.0

     total cpu time spent up to now is        4.5 secs

     total energy              =    -471.96803184 Ry
     estimated scf accuracy    <       0.01152374 Ry

     iteration #  4     ecut=    30.00 Ry     beta= 0.70
     Davidson diagonalization with overlap

---- Real-time Memory Report at c_bands before calling an iterative solver
           243 MiB given to the printing process from OS
             0 MiB allocation reported by mallinfo(arena+hblkhd)
        141044 MiB available memory on the node where the printing process lives
------------------
     ethr =  1.52E-05,  avg # of iterations = 12.5

     total cpu time spent up to now is        5.6 secs

     total energy              =    -471.96958969 Ry
     estimated scf accuracy    <       0.00170506 Ry

     iteration #  5     ecut=    30.00 Ry     beta= 0.70
     Davidson diagonalization with overlap

---- Real-time Memory Report at c_bands before calling an iterative solver
           247 MiB given to the printing process from OS
             0 MiB allocation reported by mallinfo(arena+hblkhd)
        141009 MiB available memory on the node where the printing process lives
------------------
     ethr =  2.24E-06,  avg # of iterations =  3.1

     total cpu time spent up to now is        6.2 secs

     total energy              =    -471.96987906 Ry
     estimated scf accuracy    <       0.00039691 Ry

     iteration #  6     ecut=    30.00 Ry     beta= 0.70
     Davidson diagonalization with overlap

---- Real-time Memory Report at c_bands before calling an iterative solver
           247 MiB given to the printing process from OS
             0 MiB allocation reported by mallinfo(arena+hblkhd)
        141006 MiB available memory on the node where the printing process lives
------------------
     ethr =  5.22E-07,  avg # of iterations =  2.0

     total cpu time spent up to now is        6.7 secs

     total energy              =    -471.96993740 Ry
     estimated scf accuracy    <       0.00002424 Ry

     iteration #  7     ecut=    30.00 Ry     beta= 0.70
     Davidson diagonalization with overlap

---- Real-time Memory Report at c_bands before calling an iterative solver
           248 MiB given to the printing process from OS
             0 MiB allocation reported by mallinfo(arena+hblkhd)
        141012 MiB available memory on the node where the printing process lives
------------------
     ethr =  3.19E-08,  avg # of iterations =  2.0

     total cpu time spent up to now is        7.3 secs

     End of self-consistent calculation

          k = 0.0000 0.0000 0.0000 (  2723 PWs)   bands (ev):

   -92.5698 -92.5635 -38.2202 -38.2097 -38.2060 -38.1941 -14.4575 -13.8415
   -13.1199 -12.7047 -12.6864 -12.6501 -12.5865 -12.5516  -2.2072  -1.9122
    -0.6770  -0.5965  -0.4322  -0.2974  -0.1262   0.6080   1.1192   1.3299
     1.8094   1.9771   2.0496   2.1950   2.3321   2.7074   2.9604   3.1631
     3.2524   3.3348   3.3397   3.4299   3.4855   3.6753   9.8156  12.5843
    13.0026  13.2889  13.4066  13.4228  14.0386  14.1243  15.1882  15.5982
    15.6598  16.8723  16.9173  16.9444  17.1000  17.5325  17.6700  17.8617
    17.9623  18.3241  18.7461  19.3018  19.3080  19.3533  19.9574  20.0236

     occupation numbers 
     1.0000   1.0000   1.0000   1.0000   1.0000   1.0000   1.0000   1.0000
     1.0000   1.0000   1.0000   1.0000   1.0000   1.0000   1.0000   1.0000
     1.0000   1.0000   1.0000   1.0000   1.0000   1.0000   1.0000   1.0000
     1.0000   1.0000   1.0000   1.0000   1.0000   1.0000   1.0000   1.0000
     1.0000   1.0000   1.0000   1.0000   1.0000   1.0000   0.0000   0.0000
     0.0000   0.0000   0.0000   0.0000   0.0000   0.0000   0.0000   0.0000
     0.0000   0.0000   0.0000   0.0000   0.0000   0.0000   0.0000   0.0000
     0.0000   0.0000   0.0000   0.0000   0.0000   0.0000   0.0000   0.0000

          k = 0.0000 0.0000 0.2705 (  2728 PWs)   bands (ev):

   -92.5701 -92.5645 -38.2186 -38.2142 -38.2013 -38.1963 -14.3457 -14.0593
   -12.9277 -12.6916 -12.6872 -12.6531 -12.6519 -12.5825  -2.0659  -1.9212
    -0.8667  -0.8608  -0.3678  -0.0504   0.2877   0.2885   1.2405   1.2798
     1.5782   1.9389   2.1021   2.2986   2.6138   2.6906   2.8908   3.0436
     3.1689   3.1934   3.3055   3.3357   3.4396   3.6755  10.5153  11.9401
    12.8308  12.8901  13.9157  14.1306  14.3472  14.5089  15.1441  15.2179
    16.0313  16.2921  16.5113  16.8372  16.9394  17.3680  17.4317  17.7899
    18.0701  18.1080  18.7754  19.2573  19.7233  19.7468  20.0923  20.1024

     occupation numbers 
     1.0000   1.0000   1.0000   1.0000   1.0000   1.0000   1.0000   1.0000
     1.0000   1.0000   1.0000   1.0000   1.0000   1.0000   1.0000   1.0000
     1.0000   1.0000   1.0000   1.0000   1.0000   1.0000   1.0000   1.0000
     1.0000   1.0000   1.0000   1.0000   1.0000   1.0000   1.0000   1.0000
     1.0000   1.0000   1.0000   1.0000   1.0000   1.0000   0.0000   0.0000
     0.0000   0.0000   0.0000   0.0000   0.0000   0.0000   0.0000   0.0000
     0.0000   0.0000   0.0000   0.0000   0.0000   0.0000   0.0000   0.0000
     0.0000   0.0000   0.0000   0.0000   0.0000   0.0000   0.0000   0.0000

          k = 0.0000 0.3500-0.2705 (  2711 PWs)   bands (ev):

   -92.5661 -92.5644 -38.2164 -38.2131 -38.2011 -38.1984 -14.1663 -13.9928
   -13.0278 -12.9079 -12.6984 -12.6654 -12.6572 -12.6088  -2.0778  -1.9391
    -0.5736  -0.5480  -0.1449   0.1768   0.3898   0.5485   1.0220   1.0275
     1.7441   1.7930   1.9203   1.9842   2.5492   2.6316   2.7849   2.7860
     3.0800   3.2059   3.3108   3.3441   3.7378   3.8268  11.2795  11.9725
    12.7625  13.0582  13.4301  13.5035  14.0794  14.4524  14.5025  14.9048
    15.5975  15.8306  16.1820  16.5234  16.9106  17.0230  17.7745  18.2044
    18.6408  18.8439  18.8734  19.3167  19.7255  19.7508  20.3722  20.4179

     occupation numbers 
     1.0000   1.0000   1.0000   1.0000   1.0000   1.0000   1.0000   1.0000
     1.0000   1.0000   1.0000   1.0000   1.0000   1.0000   1.0000   1.0000
     1.0000   1.0000   1.0000   1.0000   1.0000   1.0000   1.0000   1.0000
     1.0000   1.0000   1.0000   1.0000   1.0000   1.0000   1.0000   1.0000
     1.0000   1.0000   1.0000   1.0000   1.0000   1.0000   0.0000   0.0000
     0.0000   0.0000   0.0000   0.0000   0.0000   0.0000   0.0000   0.0000
     0.0000   0.0000   0.0000   0.0000   0.0000   0.0000   0.0000   0.0000
     0.0000   0.0000   0.0000   0.0000   0.0000   0.0000   0.0000   0.0000

          k = 0.0000 0.3500 0.0000 (  2710 PWs)   bands (ev):

   -92.5660 -92.5639 -38.2173 -38.2111 -38.2032 -38.1972 -14.2459 -13.8875
   -13.0893 -12.7823 -12.7323 -12.6804 -12.6615 -12.6429  -2.2421  -1.8696
    -0.6100  -0.3641  -0.1200   0.0786   0.1719   0.5336   1.0147   1.2179
     1.5117   1.7504   2.0766   2.0910   2.6184   2.6666   2.9361   3.0469
     3.0887   3.2447   3.2944   3.4033   3.4739   3.7584  10.9054  12.1524
    12.5850  12.6158  13.2335  13.4275  13.7256  13.9292  15.1784  15.2671
    16.1539  16.2897  16.3580  16.6567  17.2437  17.5573  17.8271  17.9377
    18.2011  18.6032  18.7335  19.1433  19.2095  19.8069  20.2673  20.4723

     occupation numbers 
     1.0000   1.0000   1.0000   1.0000   1.0000   1.0000   1.0000   1.0000
     1.0000   1.0000   1.0000   1.0000   1.0000   1.0000   1.0000   1.0000
     1.0000   1.0000   1.0000   1.0000   1.0000   1.0000   1.0000   1.0000
     1.0000   1.0000   1.0000   1.0000   1.0000   1.0000   1.0000   1.0000
     1.0000   1.0000   1.0000   1.0000   1.0000   1.0000   0.0000   0.0000
     0.0000   0.0000   0.0000   0.0000   0.0000   0.0000   0.0000   0.0000
     0.0000   0.0000   0.0000   0.0000   0.0000   0.0000   0.0000   0.0000
     0.0000   0.0000   0.0000   0.0000   0.0000   0.0000   0.0000   0.0000

          k = 0.0000 0.3500-0.5410 (  2711 PWs)   bands (ev):

   -92.5661 -92.5644 -38.2164 -38.2131 -38.2012 -38.1983 -14.1692 -13.9882
   -13.0500 -12.8826 -12.6879 -12.6738 -12.6504 -12.6222  -2.1368  -1.8929
    -0.6013  -0.3795  -0.1098   0.0411   0.3258   0.4437   1.0112   1.3733
     1.5593   1.7552   1.8958   2.0415   2.4097   2.7113   2.7810   2.9019
     3.0986   3.1241   3.2727   3.3977   3.6705   3.8826  11.2738  12.0343
    12.7256  12.9597  13.5001  13.6186  13.9430  14.2549  14.8846  14.8916
    15.4777  15.6249  16.5128  16.5250  16.6432  17.2336  17.5242  18.2683
    18.7145  18.8416  19.0877  19.1633  19.6721  19.8720  20.2768  20.4034

     occupation numbers 
     1.0000   1.0000   1.0000   1.0000   1.0000   1.0000   1.0000   1.0000
     1.0000   1.0000   1.0000   1.0000   1.0000   1.0000   1.0000   1.0000
     1.0000   1.0000   1.0000   1.0000   1.0000   1.0000   1.0000   1.0000
     1.0000   1.0000   1.0000   1.0000   1.0000   1.0000   1.0000   1.0000
     1.0000   1.0000   1.0000   1.0000   1.0000   1.0000   0.0000   0.0000
     0.0000   0.0000   0.0000   0.0000   0.0000   0.0000   0.0000   0.0000
     0.0000   0.0000   0.0000   0.0000   0.0000   0.0000   0.0000   0.0000
     0.0000   0.0000   0.0000   0.0000   0.0000   0.0000   0.0000   0.0000

          k = 0.3333 0.0000 0.0000 (  2712 PWs)   bands (ev):

   -92.5681 -92.5642 -38.2171 -38.2110 -38.2038 -38.1980 -14.2789 -13.9311
   -13.0891 -12.8628 -12.6679 -12.6534 -12.6156 -12.5780  -2.0134  -1.8589
    -0.7037  -0.5904  -0.3970  -0.0373   0.1645   0.2331   1.3085   1.4181
     1.8081   1.8189   2.1137   2.2515   2.3706   2.4199   2.7074   2.9270
     3.1424   3.2351   3.3261   3.4811   3.6433   3.6802  10.7933  12.2730
    12.8289  13.0486  13.1415  13.3019  14.0647  14.6051  14.8785  15.3072
    15.7589  16.2774  16.5205  16.8103  17.4251  17.5710  18.0188  18.1999
    18.5322  18.7209  19.0403  19.1918  19.5686  19.6209  19.9227  19.9949

     occupation numbers 
     1.0000   1.0000   1.0000   1.0000   1.0000   1.0000   1.0000   1.0000
     1.0000   1.0000   1.0000   1.0000   1.0000   1.0000   1.0000   1.0000
     1.0000   1.0000   1.0000   1.0000   1.0000   1.0000   1.0000   1.0000
     1.0000   1.0000   1.0000   1.0000   1.0000   1.0000   1.0000   1.0000
     1.0000   1.0000   1.0000   1.0000   1.0000   1.0000   0.0000   0.0000
     0.0000   0.0000   0.0000   0.0000   0.0000   0.0000   0.0000   0.0000
     0.0000   0.0000   0.0000   0.0000   0.0000   0.0000   0.0000   0.0000
     0.0000   0.0000   0.0000   0.0000   0.0000   0.0000   0.0000   0.0000

          k = 0.3333 0.0000 0.2705 (  2704 PWs)   bands (ev):

   -92.5655 -92.5642 -38.2158 -38.2129 -38.2018 -38.1985 -14.2016 -14.0290
   -13.0491 -12.9332 -12.6606 -12.6243 -12.6077 -12.5725  -1.8975  -1.8216
    -0.6479  -0.5061  -0.3749  -0.1415   0.0995   0.2390   1.0564   1.3776
     1.6282   1.8688   2.1094   2.2735   2.4840   2.6887   2.7428   2.8628
     2.9467   3.1633   3.3524   3.5370   3.6235   3.6994  11.2265  11.9898
    12.9995  13.2051  13.5384  13.6261  13.9443  14.5344  14.6642  15.0214
    15.9887  16.3902  16.4869  16.6319  17.1863  17.4244  17.8248  18.0554
    18.2128  18.4936  18.9168  19.2368  19.4107  19.7053  19.9728  20.1542

     occupation numbers 
     1.0000   1.0000   1.0000   1.0000   1.0000   1.0000   1.0000   1.0000
     1.0000   1.0000   1.0000   1.0000   1.0000   1.0000   1.0000   1.0000
     1.0000   1.0000   1.0000   1.0000   1.0000   1.0000   1.0000   1.0000
     1.0000   1.0000   1.0000   1.0000   1.0000   1.0000   1.0000   1.0000
     1.0000   1.0000   1.0000   1.0000   1.0000   1.0000   0.0000   0.0000
     0.0000   0.0000   0.0000   0.0000   0.0000   0.0000   0.0000   0.0000
     0.0000   0.0000   0.0000   0.0000   0.0000   0.0000   0.0000   0.0000
     0.0000   0.0000   0.0000   0.0000   0.0000   0.0000   0.0000   0.0000

          k = 0.3333 0.3500-0.2705 (  2722 PWs)   bands (ev):

   -92.5677 -92.5658 -38.2134 -38.2112 -38.2039 -38.2014 -14.0336 -13.9224
   -13.0994 -13.0223 -12.7335 -12.7065 -12.6528 -12.6381  -1.9520  -1.7964
    -0.7296  -0.3906   0.0444   0.2327   0.4370   0.4906   1.0145   1.1720
     1.5056   1.6827   1.9970   2.1917   2.3431   2.4826   2.5238   2.7446
     3.1477   3.2102   3.3651   3.4676   3.6227   3.7991  11.6359  11.8358
    12.7199  12.8771  13.2168  13.3352  13.4260  13.7218  15.0043  15.2854
    15.8086  16.3393  16.6708  16.8158  17.0551  17.3631  17.7041  18.1491
    18.5309  18.7147  19.0054  19.2688  19.4768  19.6909  20.0020  20.3135

     occupation numbers 
     1.0000   1.0000   1.0000   1.0000   1.0000   1.0000   1.0000   1.0000
     1.0000   1.0000   1.0000   1.0000   1.0000   1.0000   1.0000   1.0000
     1.0000   1.0000   1.0000   1.0000   1.0000   1.0000   1.0000   1.0000
     1.0000   1.0000   1.0000   1.0000   1.0000   1.0000   1.0000   1.0000
     1.0000   1.0000   1.0000   1.0000   1.0000   1.0000   0.0000   0.0000
     0.0000   0.0000   0.0000   0.0000   0.0000   0.0000   0.0000   0.0000
     0.0000   0.0000   0.0000   0.0000   0.0000   0.0000   0.0000   0.0000
     0.0000   0.0000   0.0000   0.0000   0.0000   0.0000   0.0000   0.0000

          k = 0.3333 0.3500 0.0000 (  2718 PWs)   bands (ev):

   -92.5665 -92.5654 -38.2143 -38.2090 -38.2054 -38.2006 -14.0865 -13.8630
   -13.1465 -12.9654 -12.7165 -12.6952 -12.6734 -12.6558  -2.0519  -1.8487
    -0.7280  -0.6415   0.1844   0.2356   0.3841   0.5105   1.1087   1.4482
     1.6180   1.8734   1.9509   2.1907   2.3323   2.5204   2.6714   2.8088
     2.9844   3.0791   3.3636   3.4747   3.5961   3.7117  11.5280  11.9506
    12.3720  12.5714  12.8816  13.0608  13.3281  13.6438  15.3829  15.8409
    16.2696  16.4622  16.7766  16.9431  17.3273  17.4328  17.9185  18.1115
    18.2714  18.4051  19.0479  19.1884  19.3071  19.6696  20.0072  20.1861

     occupation numbers 
     1.0000   1.0000   1.0000   1.0000   1.0000   1.0000   1.0000   1.0000
     1.0000   1.0000   1.0000   1.0000   1.0000   1.0000   1.0000   1.0000
     1.0000   1.0000   1.0000   1.0000   1.0000   1.0000   1.0000   1.0000
     1.0000   1.0000   1.0000   1.0000   1.0000   1.0000   1.0000   1.0000
     1.0000   1.0000   1.0000   1.0000   1.0000   1.0000   0.0000   0.0000
     0.0000   0.0000   0.0000   0.0000   0.0000   0.0000   0.0000   0.0000
     0.0000   0.0000   0.0000   0.0000   0.0000   0.0000   0.0000   0.0000
     0.0000   0.0000   0.0000   0.0000   0.0000   0.0000   0.0000   0.0000

          k = 0.3333 0.3500-0.5410 (  2722 PWs)   bands (ev):

   -92.5677 -92.5658 -38.2134 -38.2111 -38.2040 -38.2014 -14.0343 -13.9219
   -13.1102 -13.0072 -12.7362 -12.7115 -12.6448 -12.6424  -1.9698  -1.7906
    -0.6995  -0.4170   0.0879   0.2628   0.3835   0.5081   1.0337   1.1408
     1.4510   1.6796   1.9725   2.2091   2.3706   2.5435   2.6095   2.7017
     3.0350   3.1461   3.4109   3.4936   3.6404   3.8020  11.6760  11.9256
    12.6251  12.8368  13.0364  13.2581  13.5274  13.8944  14.9156  15.2190
    16.0158  16.4244  16.5532  16.8304  17.0483  17.3357  17.7827  18.1949
    18.2423  18.7561  19.1022  19.3419  19.4373  19.7655  19.9919  20.2056

     occupation numbers 
     1.0000   1.0000   1.0000   1.0000   1.0000   1.0000   1.0000   1.0000
     1.0000   1.0000   1.0000   1.0000   1.0000   1.0000   1.0000   1.0000
     1.0000   1.0000   1.0000   1.0000   1.0000   1.0000   1.0000   1.0000
     1.0000   1.0000   1.0000   1.0000   1.0000   1.0000   1.0000   1.0000
     1.0000   1.0000   1.0000   1.0000   1.0000   1.0000   0.0000   0.0000
     0.0000   0.0000   0.0000   0.0000   0.0000   0.0000   0.0000   0.0000
     0.0000   0.0000   0.0000   0.0000   0.0000   0.0000   0.0000   0.0000
     0.0000   0.0000   0.0000   0.0000   0.0000   0.0000   0.0000   0.0000

     highest occupied, lowest unoccupied level (ev):     3.8826    9.8156

!    total energy              =    -471.96994458 Ry
     estimated scf accuracy    <       0.00000056 Ry

     The total energy is the sum of the following terms:
     one-electron contribution =    -150.64341057 Ry
     hartree contribution      =     102.79527272 Ry
     xc contribution           =     -97.20850889 Ry
     ewald contribution        =    -250.83380511 Ry
     one-center paw contrib.   =     -76.07949273 Ry
      -> PAW hartree energy AE =       0.00000000 Ry
      -> PAW hartree energy PS =       0.00000000 Ry
      -> PAW xc energy AE      =       0.00000000 Ry
      -> PAW xc energy PS      =       0.00000000 Ry
      -> total E_H with PAW    =     102.79527272 Ry
      -> total E_XC with PAW   =     -97.20850889 Ry

     convergence has been achieved in   7 iterations

     Writing all to output data dir calculations_bands_val/myprefix.save/
 
     init_run     :      6.21s CPU      2.22s WALL (       1 calls)
     electrons    :     18.14s CPU      4.81s WALL (       1 calls)

     Called by init_run:
     wfcinit      :      0.71s CPU      0.19s WALL (       1 calls)
     wfcinit:atom :      0.01s CPU      0.00s WALL (       5 calls)
     wfcinit:wfcr :      0.66s CPU      0.17s WALL (       5 calls)
     potinit      :      1.66s CPU      0.44s WALL (       1 calls)
     hinit0       :      2.93s CPU      1.18s WALL (       1 calls)

     Called by electrons:
     c_bands      :     13.12s CPU      3.41s WALL (       7 calls)
     sum_band     :      2.72s CPU      0.77s WALL (       7 calls)
     v_of_rho     :      0.41s CPU      0.11s WALL (       8 calls)
     v_h          :      0.03s CPU      0.01s WALL (       8 calls)
     v_xc         :      0.38s CPU      0.10s WALL (       8 calls)
     newd         :      1.02s CPU      0.29s WALL (       8 calls)
     PAW_pot      :      1.03s CPU      0.27s WALL (       8 calls)
     mix_rho      :      0.08s CPU      0.02s WALL (       7 calls)

     Called by c_bands:
     init_us_2    :      0.09s CPU      0.02s WALL (      75 calls)
     init_us_2:cp :      0.09s CPU      0.02s WALL (      75 calls)
     cegterg      :     11.89s CPU      3.09s WALL (      35 calls)

     Called by sum_band:
     sum_band:wei :      0.01s CPU      0.00s WALL (       7 calls)
     sum_band:loo :      1.57s CPU      0.40s WALL (       7 calls)
     sum_band:buf :      0.02s CPU      0.00s WALL (      35 calls)
     sum_band:ini :      0.04s CPU      0.01s WALL (      35 calls)
     sum_band:cal :      0.09s CPU      0.02s WALL (      35 calls)
     sum_band:bec :      0.03s CPU      0.01s WALL (      35 calls)
     addusdens    :      0.76s CPU      0.26s WALL (       7 calls)
     addusd:skk   :      0.01s CPU      0.00s WALL (      28 calls)
     addusd:dgemm :      0.18s CPU      0.10s WALL (      28 calls)
     addusd:qvan2 :      0.47s CPU      0.12s WALL (      28 calls)

     Called by *egterg:
     cdiaghg      :      2.76s CPU      0.72s WALL (     179 calls)
     cegterg:over :      0.40s CPU      0.10s WALL (     144 calls)
     cegterg:upda :      0.23s CPU      0.06s WALL (     144 calls)
     cegterg:last :      0.38s CPU      0.09s WALL (      79 calls)
     cdiaghg:chol :      0.21s CPU      0.05s WALL (     179 calls)
     cdiaghg:inve :      0.04s CPU      0.01s WALL (     179 calls)
     cdiaghg:para :      0.43s CPU      0.11s WALL (     358 calls)
     h_psi        :      8.34s CPU      2.17s WALL (     184 calls)
     s_psi        :      0.19s CPU      0.05s WALL (     184 calls)
     g_psi        :      0.02s CPU      0.00s WALL (     144 calls)

     Called by h_psi:
     h_psi:calbec :      0.33s CPU      0.08s WALL (     184 calls)
     vloc_psi     :      7.70s CPU      2.00s WALL (     184 calls)
     add_vuspsi   :      0.27s CPU      0.07s WALL (     184 calls)

     General routines
     calbec       :      0.41s CPU      0.11s WALL (     219 calls)
     fft          :      1.44s CPU      0.39s WALL (     102 calls)
     ffts         :      0.96s CPU      0.26s WALL (      15 calls)
     fftw         :      7.31s CPU      1.90s WALL (   14626 calls)
     interpolate  :      0.98s CPU      0.26s WALL (       8 calls)
 
     Parallel routines

     PAW routines
     PAW_pot      :      1.03s CPU      0.27s WALL (       8 calls)
     PAW_symme    :      0.01s CPU      0.00s WALL (      15 calls)
 
     PWSCF        :     25.90s CPU      7.74s WALL

 
   This run was terminated on:  12:36:49   4Jun2023            

=------------------------------------------------------------------------------=
   JOB DONE.
=------------------------------------------------------------------------------=
