
     Program PWSCF v.7.0 starts on  4Jun2023 at 11:37:28 

     This program is part of the open-source Quantum ESPRESSO suite
     for quantum simulation of materials; please cite
         "P. Giannozzi et al., J. Phys.:Condens. Matter 21 395502 (2009);
         "P. Giannozzi et al., J. Phys.:Condens. Matter 29 465901 (2017);
         "P. Giannozzi et al., J. Chem. Phys. 152 154105 (2020);
          URL http://www.quantum-espresso.org", 
     in publications or presentations arising from this work. More details at
     http://www.quantum-espresso.org/quote

     Parallel version (MPI & OpenMP), running on      32 processor cores
     Number of MPI processes:                 8
     Threads/MPI process:                     4

     MPI processes distributed on     1 nodes
     K-points division:     npool     =       2
     R & G space division:  proc/nbgrp/npool/nimage =       4
     144120 MiB available memory on the printing compute node when the environment starts
 
     Reading input from espresso_254.pwi
Warning: card &CELL ignored
Warning: card / ignored

     Current dimensions of program PWSCF are:
     Max number of different atomic species (ntypx) = 10
     Max number of k-points (npk) =  40000
     Max angular momentum in pseudopotentials (lmaxx) =  4
     file Ba.pbe-spn-kjpaw_psl.1.0.0.UPF: wavefunction(s)  5S 6S renormalized
     Message from routine setup:
     using ibrav=0 with symmetry is DISCOURAGED, use correct ibrav instead

     Subspace diagonalization in iterative solution of the eigenvalue problem:
     one sub-group per band group will be used
     scalapack distributed-memory algorithm (size of sub-group:  2*  2 procs)

 
     Parallelization info
     --------------------
     sticks:   dense  smooth     PW     G-vecs:    dense   smooth      PW
     Min         559     279     81                26588     9403    1466
     Max         560     280     82                26589     9406    1467
     Sum        2237    1117    327               106355    37615    5865
 
     Using Slab Decomposition
 


     bravais-lattice index     =            0
     lattice parameter (alat)  =      12.1879  a.u.
     unit-cell volume          =    1693.4908 (a.u.)^3
     number of atoms/cell      =           16
     number of atomic types    =            3
     number of electrons       =        96.00
     number of Kohn-Sham states=           64
     kinetic-energy cutoff     =      30.0000  Ry
     charge density cutoff     =     240.0000  Ry
     scf convergence threshold =      1.0E-06
     mixing beta               =       0.7000
     number of iterations used =            8  plain     mixing
     Exchange-correlation= PBE
                           (   1   4   3   4   0   0   0)

     celldm(1)=  12.187912  celldm(2)=   0.000000  celldm(3)=   0.000000
     celldm(4)=   0.000000  celldm(5)=   0.000000  celldm(6)=   0.000000

     crystal axes: (cart. coord. in units of alat)
               a(1) = (   1.000000   0.000000   0.000000 )  
               a(2) = (  -0.615269   0.788317   0.000000 )  
               a(3) = (   0.000000   0.000000   1.186572 )  

     reciprocal axes: (cart. coord. in units 2 pi/alat)
               b(1) = (  1.000000  0.780484  0.000000 )  
               b(2) = (  0.000000  1.268525  0.000000 )  
               b(3) = (  0.000000  0.000000  0.842764 )  


     PseudoPot. # 1 for Ba read from file:
     /home/pragov/projects/rrg-bengioy-ad/pragov/crystal_structure_design/SSSP/Ba.pbe-spn-kjpaw_psl.1.0.0.UPF
     MD5 check sum: c432291d3e53af55f19d5e8866385beb
     Pseudo is Projector augmented-wave + core cor, Zval = 10.0
     Generated using "atomic" code by A. Dal Corso  v.5.1
     Shape of augmentation charge: PSQ
     Using radial grid of 1251 points,  7 beta functions with: 
                l(1) =   0
                l(2) =   0
                l(3) =   0
                l(4) =   1
                l(5) =   1
                l(6) =   2
                l(7) =   2
     Q(r) pseudized with 0 coefficients 


     PseudoPot. # 2 for Si read from file:
     /home/pragov/projects/rrg-bengioy-ad/pragov/crystal_structure_design/SSSP/Si.pbe-n-rrkjus_psl.1.0.0.UPF
     MD5 check sum: 0b0bb1205258b0d07b9f9672cf965d36
     Pseudo is Ultrasoft + core correction, Zval =  4.0
     Generated using "atomic" code by A. Dal Corso  v.5.1
     Using radial grid of 1141 points,  6 beta functions with: 
                l(1) =   0
                l(2) =   0
                l(3) =   1
                l(4) =   1
                l(5) =   2
                l(6) =   2
     Q(r) pseudized with 0 coefficients 


     PseudoPot. # 3 for N  read from file:
     /home/pragov/projects/rrg-bengioy-ad/pragov/crystal_structure_design/SSSP/N.pbe-n-radius_5.UPF
     MD5 check sum: 16739722b17309cd8fe442a2ace49922
     Pseudo is Ultrasoft + core correction, Zval =  5.0
     Generated using "atomic" code by A. Dal Corso  v.5.1
     Using radial grid of 1085 points,  4 beta functions with: 
                l(1) =   0
                l(2) =   0
                l(3) =   1
                l(4) =   1
     Q(r) pseudized with 0 coefficients 


     atomic species   valence    mass     pseudopotential
        Ba            10.00   137.32700     Ba( 1.00)
        Si             4.00    28.08500     Si( 1.00)
        N              5.00    14.00700     N ( 1.00)

      4 Sym. Ops., with inversion, found ( 2 have fractional translation)


                                    s                        frac. trans.

      isym =  1     identity                                     

 cryst.   s( 1) = (     1          0          0      )
                  (     0          1          0      )
                  (     0          0          1      )

 cart.    s( 1) = (  1.0000000  0.0000000  0.0000000 )
                  (  0.0000000  1.0000000  0.0000000 )
                  (  0.0000000  0.0000000  1.0000000 )


      isym =  2     180 deg rotation - cart. axis [0,0,1]        

 cryst.   s( 2) = (    -1          0          0      )    f =(  0.5000000 )
                  (     0         -1          0      )       (  0.5000000 )
                  (     0          0          1      )       (  0.5000000 )

 cart.    s( 2) = ( -1.0000000 -0.0000000  0.0000000 )    f =(  0.1923654 )
                  (  0.0000000 -1.0000000  0.0000000 )       (  0.3941586 )
                  (  0.0000000  0.0000000  1.0000000 )       (  0.5932858 )


      isym =  3     inversion                                    

 cryst.   s( 3) = (    -1          0          0      )
                  (     0         -1          0      )
                  (     0          0         -1      )

 cart.    s( 3) = ( -1.0000000 -0.0000000  0.0000000 )
                  (  0.0000000 -1.0000000  0.0000000 )
                  (  0.0000000  0.0000000 -1.0000000 )


      isym =  4     inv. 180 deg rotation - cart. axis [0,0,1]   

 cryst.   s( 4) = (     1          0          0      )    f =( -0.5000000 )
                  (     0          1          0      )       (  0.5000000 )
                  (     0          0         -1      )       (  0.5000000 )

 cart.    s( 4) = (  1.0000000  0.0000000  0.0000000 )    f =( -0.8076346 )
                  (  0.0000000  1.0000000  0.0000000 )       (  0.3941586 )
                  (  0.0000000  0.0000000 -1.0000000 )       (  0.5932858 )


   Cartesian axes

     site n.     atom                  positions (alat units)
         1           Ba  tau(   1) = (  -0.3509546   0.6593208   0.6689131  )
         2           Ba  tau(   2) = (   0.7356854   0.1289963   0.5176585  )
         3           Ba  tau(   3) = (  -0.0719491   0.5231548   0.0756273  )
         4           Ba  tau(   4) = (   0.4566800   0.2651623   1.1109443  )
         5           Si  tau(   5) = (   0.9216401   0.0382428   1.0201514  )
         6           Si  tau(   6) = (   0.2707254   0.3559157   0.4268656  )
         7           Si  tau(   7) = (  -0.5369092   0.7500743   0.1664202  )
         8           Si  tau(   8) = (   0.1140055   0.4324014   0.7597060  )
         9           N   tau(   9) = (  -0.0579107   0.2722832   0.8899287  )
        10           N   tau(  10) = (   0.2502762   0.1218754   0.2966429  )
        11           N   tau(  11) = (   0.4426416   0.5160340   0.2966429  )
        12           N   tau(  12) = (   0.1344547   0.6664417   0.8899287  )
        13           N   tau(  13) = (  -0.4524209   0.7088406   1.0918844  )
        14           N   tau(  14) = (   0.3552136   0.3146820   0.6879730  )
        15           N   tau(  15) = (   0.0295172   0.4736351   0.4985986  )
        16           N   tau(  16) = (   0.8371518   0.0794766   0.0946872  )

   Crystallographic axes

     site n.     atom                  positions (cryst. coord.)
         1           Ba  tau(   1) = (  0.1636350  0.8363650  0.5637360  )
         2           Ba  tau(   2) = (  0.8363650  0.1636350  0.4362640  )
         3           Ba  tau(   3) = (  0.3363650  0.6636350  0.0637360  )
         4           Ba  tau(   4) = (  0.6636350  0.3363650  0.9362640  )
         5           Si  tau(   5) = (  0.9514880  0.0485120  0.8597470  )
         6           Si  tau(   6) = (  0.5485120  0.4514880  0.3597470  )
         7           Si  tau(   7) = (  0.0485120  0.9514880  0.1402530  )
         8           Si  tau(   8) = (  0.4514880  0.5485120  0.6402530  )
         9           N   tau(   9) = (  0.1546020  0.3453980  0.7500000  )
        10           N   tau(  10) = (  0.3453980  0.1546020  0.2500000  )
        11           N   tau(  11) = (  0.8453980  0.6546020  0.2500000  )
        12           N   tau(  12) = (  0.6546020  0.8453980  0.7500000  )
        13           N   tau(  13) = (  0.1008180  0.8991820  0.9202010  )
        14           N   tau(  14) = (  0.6008180  0.3991820  0.5797990  )
        15           N   tau(  15) = (  0.3991820  0.6008180  0.4202010  )
        16           N   tau(  16) = (  0.8991820  0.1008180  0.0797990  )

     number of k points=    10
                       cart. coord. in units 2pi/alat
        k(    1) = (   0.0000000   0.0000000   0.0000000), wk =   0.0740741
        k(    2) = (   0.0000000   0.0000000   0.2809214), wk =   0.1481481
        k(    3) = (   0.0000000   0.4228417   0.0000000), wk =   0.1481481
        k(    4) = (   0.0000000   0.4228417   0.2809214), wk =   0.2962963
        k(    5) = (   0.3333333   0.2601614   0.0000000), wk =   0.1481481
        k(    6) = (   0.3333333   0.2601614   0.2809214), wk =   0.2962963
        k(    7) = (   0.3333333   0.6830031   0.0000000), wk =   0.1481481
        k(    8) = (   0.3333333   0.6830031   0.2809214), wk =   0.2962963
        k(    9) = (   0.3333333  -0.1626802   0.0000000), wk =   0.1481481
        k(   10) = (   0.3333333  -0.1626802   0.2809214), wk =   0.2962963

                       cryst. coord.
        k(    1) = (   0.0000000   0.0000000   0.0000000), wk =   0.0740741
        k(    2) = (   0.0000000   0.0000000   0.3333333), wk =   0.1481481
        k(    3) = (   0.0000000   0.3333333   0.0000000), wk =   0.1481481
        k(    4) = (   0.0000000   0.3333333   0.3333333), wk =   0.2962963
        k(    5) = (   0.3333333  -0.0000000   0.0000000), wk =   0.1481481
        k(    6) = (   0.3333333  -0.0000000   0.3333333), wk =   0.2962963
        k(    7) = (   0.3333333   0.3333333   0.0000000), wk =   0.1481481
        k(    8) = (   0.3333333   0.3333333   0.3333333), wk =   0.2962963
        k(    9) = (   0.3333333  -0.3333333   0.0000000), wk =   0.1481481
        k(   10) = (   0.3333333  -0.3333333   0.3333333), wk =   0.2962963

     Dense  grid:   106355 G-vectors     FFT dimensions: (  64,  64,  72)

     Smooth grid:    37615 G-vectors     FFT dimensions: (  48,  48,  54)

     Dynamical RAM for                 wfc:       1.15 MB

     Dynamical RAM for     wfc (w. buffer):       6.88 MB

     Dynamical RAM for           str. fact:       1.22 MB

     Dynamical RAM for           local pot:       0.00 MB

     Dynamical RAM for          nlocal pot:       3.80 MB

     Dynamical RAM for                qrad:       4.98 MB

     Dynamical RAM for          rho,v,vnew:       2.90 MB

     Dynamical RAM for               rhoin:       0.97 MB

     Dynamical RAM for            rho*nmix:       6.49 MB

     Dynamical RAM for           G-vectors:       1.59 MB

     Dynamical RAM for          h,s,v(r/c):       0.19 MB

     Dynamical RAM for          <psi|beta>:       0.21 MB

     Dynamical RAM for                 psi:       2.29 MB

     Dynamical RAM for                hpsi:       2.29 MB

     Dynamical RAM for                spsi:       2.29 MB

     Dynamical RAM for      wfcinit/wfcrot:       2.54 MB

     Dynamical RAM for           addusdens:      43.41 MB

     Estimated static dynamical RAM per process >      26.77 MB

     Estimated max dynamical RAM per process >      76.67 MB

     Estimated total dynamical RAM >     587.42 MB

     Check: negative core charge=   -0.000002

     Initial potential from superposition of free atoms

     starting charge      95.9297, renormalised to      96.0000
     Starting wfcs are   68 randomized atomic wfcs
     Checking if some PAW data can be deallocated... 
       PAW data deallocated on    6 nodes for type:  1

     total cpu time spent up to now is        2.6 secs

     Self-consistent Calculation

     iteration #  1     ecut=    30.00 Ry     beta= 0.70
     Davidson diagonalization with overlap

---- Real-time Memory Report at c_bands before calling an iterative solver
           212 MiB given to the printing process from OS
             0 MiB allocation reported by mallinfo(arena+hblkhd)
        143304 MiB available memory on the node where the printing process lives
------------------
     ethr =  1.00E-02,  avg # of iterations =  6.7

     negative rho (up, down):  2.147E-03 0.000E+00

     total cpu time spent up to now is        4.4 secs

     total energy              =   -1950.95287527 Ry
     estimated scf accuracy    <       4.72808229 Ry

     iteration #  2     ecut=    30.00 Ry     beta= 0.70
     Davidson diagonalization with overlap

---- Real-time Memory Report at c_bands before calling an iterative solver
           276 MiB given to the printing process from OS
             0 MiB allocation reported by mallinfo(arena+hblkhd)
        143181 MiB available memory on the node where the printing process lives
------------------
     ethr =  4.93E-03,  avg # of iterations =  4.8

     negative rho (up, down):  9.680E-04 0.000E+00

     total cpu time spent up to now is        5.8 secs

     total energy              =   -1951.50394304 Ry
     estimated scf accuracy    <       7.82651374 Ry

     iteration #  3     ecut=    30.00 Ry     beta= 0.70
     Davidson diagonalization with overlap

---- Real-time Memory Report at c_bands before calling an iterative solver
           278 MiB given to the printing process from OS
             0 MiB allocation reported by mallinfo(arena+hblkhd)
        143126 MiB available memory on the node where the printing process lives
------------------
     ethr =  4.93E-03,  avg # of iterations =  2.0

     total cpu time spent up to now is        6.9 secs

     total energy              =   -1953.11083122 Ry
     estimated scf accuracy    <       0.17681702 Ry

     iteration #  4     ecut=    30.00 Ry     beta= 0.70
     Davidson diagonalization with overlap

---- Real-time Memory Report at c_bands before calling an iterative solver
           285 MiB given to the printing process from OS
             0 MiB allocation reported by mallinfo(arena+hblkhd)
        143095 MiB available memory on the node where the printing process lives
------------------
     ethr =  1.84E-04,  avg # of iterations =  7.8

     total cpu time spent up to now is        8.4 secs

     total energy              =   -1953.14090204 Ry
     estimated scf accuracy    <       0.04319371 Ry

     iteration #  5     ecut=    30.00 Ry     beta= 0.70
     Davidson diagonalization with overlap

---- Real-time Memory Report at c_bands before calling an iterative solver
           288 MiB given to the printing process from OS
             0 MiB allocation reported by mallinfo(arena+hblkhd)
        143065 MiB available memory on the node where the printing process lives
------------------
     ethr =  4.50E-05,  avg # of iterations =  4.8

     total cpu time spent up to now is        9.6 secs

     total energy              =   -1953.14415897 Ry
     estimated scf accuracy    <       0.00970687 Ry

     iteration #  6     ecut=    30.00 Ry     beta= 0.70
     Davidson diagonalization with overlap

---- Real-time Memory Report at c_bands before calling an iterative solver
           290 MiB given to the printing process from OS
             0 MiB allocation reported by mallinfo(arena+hblkhd)
        143062 MiB available memory on the node where the printing process lives
------------------
     ethr =  1.01E-05,  avg # of iterations =  7.4

     total cpu time spent up to now is       10.9 secs

     total energy              =   -1953.14450449 Ry
     estimated scf accuracy    <       0.00269019 Ry

     iteration #  7     ecut=    30.00 Ry     beta= 0.70
     Davidson diagonalization with overlap

---- Real-time Memory Report at c_bands before calling an iterative solver
           292 MiB given to the printing process from OS
             0 MiB allocation reported by mallinfo(arena+hblkhd)
        143051 MiB available memory on the node where the printing process lives
------------------
     ethr =  2.80E-06,  avg # of iterations =  5.6

     total cpu time spent up to now is       12.2 secs

     total energy              =   -1953.14469648 Ry
     estimated scf accuracy    <       0.00121332 Ry

     iteration #  8     ecut=    30.00 Ry     beta= 0.70
     Davidson diagonalization with overlap

---- Real-time Memory Report at c_bands before calling an iterative solver
           295 MiB given to the printing process from OS
             0 MiB allocation reported by mallinfo(arena+hblkhd)
        143032 MiB available memory on the node where the printing process lives
------------------
     ethr =  1.26E-06,  avg # of iterations =  2.0

     total cpu time spent up to now is       13.4 secs

     total energy              =   -1953.14484100 Ry
     estimated scf accuracy    <       0.00018518 Ry

     iteration #  9     ecut=    30.00 Ry     beta= 0.70
     Davidson diagonalization with overlap

---- Real-time Memory Report at c_bands before calling an iterative solver
           295 MiB given to the printing process from OS
             0 MiB allocation reported by mallinfo(arena+hblkhd)
        143044 MiB available memory on the node where the printing process lives
------------------
     ethr =  1.93E-07,  avg # of iterations =  2.0

     total cpu time spent up to now is       14.5 secs

     total energy              =   -1953.14486815 Ry
     estimated scf accuracy    <       0.00004010 Ry

     iteration # 10     ecut=    30.00 Ry     beta= 0.70
     Davidson diagonalization with overlap

---- Real-time Memory Report at c_bands before calling an iterative solver
           295 MiB given to the printing process from OS
             0 MiB allocation reported by mallinfo(arena+hblkhd)
        143044 MiB available memory on the node where the printing process lives
------------------
     ethr =  4.18E-08,  avg # of iterations =  2.0

     total cpu time spent up to now is       15.7 secs

     total energy              =   -1953.14486499 Ry
     estimated scf accuracy    <       0.00003413 Ry

     iteration # 11     ecut=    30.00 Ry     beta= 0.70
     Davidson diagonalization with overlap

---- Real-time Memory Report at c_bands before calling an iterative solver
           295 MiB given to the printing process from OS
             0 MiB allocation reported by mallinfo(arena+hblkhd)
        143048 MiB available memory on the node where the printing process lives
------------------
     ethr =  3.55E-08,  avg # of iterations =  2.0

     total cpu time spent up to now is       16.7 secs

     total energy              =   -1953.14487029 Ry
     estimated scf accuracy    <       0.00001753 Ry

     iteration # 12     ecut=    30.00 Ry     beta= 0.70
     Davidson diagonalization with overlap

---- Real-time Memory Report at c_bands before calling an iterative solver
           295 MiB given to the printing process from OS
             0 MiB allocation reported by mallinfo(arena+hblkhd)
        143047 MiB available memory on the node where the printing process lives
------------------
     ethr =  1.83E-08,  avg # of iterations =  1.0

     total cpu time spent up to now is       17.7 secs

     End of self-consistent calculation

          k = 0.0000 0.0000 0.0000 (  4735 PWs)   bands (ev):

   -17.4011 -17.3145 -17.1654 -17.1323  -6.6815  -5.9206  -5.7931  -4.3395
    -4.2292  -4.1041  -4.0967  -3.9021  -3.1617  -3.0167  -2.8812  -2.8541
    -2.4121  -2.3262  -2.2952  -2.1936  -2.1586  -2.1209  -2.1139  -1.6845
     1.0852   2.3934   4.5608   4.6244   4.8114   5.1976   5.3402   5.4749
     5.5361   5.7870   6.4540   7.1547   7.6253   7.8391   8.0070   8.1151
     8.1333   8.3210   8.3850   8.4858   8.7540   9.2098   9.3129   9.3906
    12.5217  12.7763  12.9485  13.0491  13.4813  13.6240  13.6924  14.0846
    14.1020  14.1927  14.7587  15.0117  15.0326  15.1117  15.7466  16.0290

     occupation numbers 
     1.0000   1.0000   1.0000   1.0000   1.0000   1.0000   1.0000   1.0000
     1.0000   1.0000   1.0000   1.0000   1.0000   1.0000   1.0000   1.0000
     1.0000   1.0000   1.0000   1.0000   1.0000   1.0000   1.0000   1.0000
     1.0000   1.0000   1.0000   1.0000   1.0000   1.0000   1.0000   1.0000
     1.0000   1.0000   1.0000   1.0000   1.0000   1.0000   1.0000   1.0000
     1.0000   1.0000   1.0000   1.0000   1.0000   1.0000   1.0000   1.0000
     0.0000   0.0000   0.0000   0.0000   0.0000   0.0000   0.0000   0.0000
     0.0000   0.0000   0.0000   0.0000   0.0000   0.0000   0.0000   0.0000

          k = 0.0000 0.0000 0.2809 (  4669 PWs)   bands (ev):

   -17.3819 -17.3394 -17.1540 -17.1382  -6.6191  -6.3752  -5.1232  -4.5598
    -4.1895  -4.0818  -4.0781  -3.9623  -3.0783  -3.0682  -2.9535  -2.9417
    -2.5882  -2.4615  -2.1862  -2.1513  -2.0827  -2.0659  -1.8998  -1.8371
     1.3070   1.9007   4.7510   4.8673   4.8751   5.2122   5.2826   5.3234
     5.7410   5.9432   6.8179   7.1231   7.3880   7.4201   7.8959   8.0848
     8.1373   8.3000   8.3481   8.4216   8.8070   9.0235   9.3660   9.3781
    12.8263  12.9709  13.1665  13.3856  13.4880  13.7100  13.9645  14.1614
    14.3245  14.4219  14.7212  14.8420  15.0927  15.1508  15.6465  15.7263

     occupation numbers 
     1.0000   1.0000   1.0000   1.0000   1.0000   1.0000   1.0000   1.0000
     1.0000   1.0000   1.0000   1.0000   1.0000   1.0000   1.0000   1.0000
     1.0000   1.0000   1.0000   1.0000   1.0000   1.0000   1.0000   1.0000
     1.0000   1.0000   1.0000   1.0000   1.0000   1.0000   1.0000   1.0000
     1.0000   1.0000   1.0000   1.0000   1.0000   1.0000   1.0000   1.0000
     1.0000   1.0000   1.0000   1.0000   1.0000   1.0000   1.0000   1.0000
     0.0000   0.0000   0.0000   0.0000   0.0000   0.0000   0.0000   0.0000
     0.0000   0.0000   0.0000   0.0000   0.0000   0.0000   0.0000   0.0000

          k = 0.0000 0.4228 0.0000 (  4719 PWs)   bands (ev):

   -17.3352 -17.2793 -17.2000 -17.1960  -6.6161  -6.2843  -5.4449  -4.6368
    -4.4596  -4.3385  -4.2843  -4.2031  -3.0603  -2.7715  -2.5996  -2.3544
    -2.3453  -2.2690  -2.2583  -2.1523  -2.0597  -2.0506  -1.9382  -1.8212
     1.9775   3.0016   3.6810   3.9593   5.0159   5.1106   5.2540   5.5323
     5.8434   5.9932   6.6742   6.9964   7.0769   7.3266   7.5621   7.7710
     7.9074   8.0529   8.2531   8.5847   8.6544   8.8119   9.0126   9.0353
    12.5616  12.9195  12.9795  13.2686  13.7045  13.7564  14.0169  14.3970
    14.5354  14.6016  14.7058  14.8340  14.9409  15.5015  15.6186  16.0100

     occupation numbers 
     1.0000   1.0000   1.0000   1.0000   1.0000   1.0000   1.0000   1.0000
     1.0000   1.0000   1.0000   1.0000   1.0000   1.0000   1.0000   1.0000
     1.0000   1.0000   1.0000   1.0000   1.0000   1.0000   1.0000   1.0000
     1.0000   1.0000   1.0000   1.0000   1.0000   1.0000   1.0000   1.0000
     1.0000   1.0000   1.0000   1.0000   1.0000   1.0000   1.0000   1.0000
     1.0000   1.0000   1.0000   1.0000   1.0000   1.0000   1.0000   1.0000
     0.0000   0.0000   0.0000   0.0000   0.0000   0.0000   0.0000   0.0000
     0.0000   0.0000   0.0000   0.0000   0.0000   0.0000   0.0000   0.0000

          k = 0.0000 0.4228 0.2809 (  4694 PWs)   bands (ev):

   -17.3223 -17.2947 -17.1977 -17.1959  -6.5925  -6.4536  -5.1797  -4.8962
    -4.4208  -4.2222  -4.1618  -4.1061  -2.9470  -2.8119  -2.5902  -2.4633
    -2.4387  -2.3165  -2.2842  -2.2215  -2.1921  -2.0292  -1.8987  -1.8330
     2.1304   2.5346   4.0679   4.1067   5.0158   5.1082   5.3819   5.5721
     5.7380   5.9323   6.7672   6.9101   7.3212   7.4820   7.5154   7.6579
     8.0286   8.1797   8.2905   8.3437   8.5400   8.6439   8.8820   8.9771
    12.8497  12.9688  13.0604  13.1369  13.5238  13.9091  14.0950  14.2383
    14.2696  14.5209  14.8876  15.1116  15.1944  15.4000  15.6829  15.8142

     occupation numbers 
     1.0000   1.0000   1.0000   1.0000   1.0000   1.0000   1.0000   1.0000
     1.0000   1.0000   1.0000   1.0000   1.0000   1.0000   1.0000   1.0000
     1.0000   1.0000   1.0000   1.0000   1.0000   1.0000   1.0000   1.0000
     1.0000   1.0000   1.0000   1.0000   1.0000   1.0000   1.0000   1.0000
     1.0000   1.0000   1.0000   1.0000   1.0000   1.0000   1.0000   1.0000
     1.0000   1.0000   1.0000   1.0000   1.0000   1.0000   1.0000   1.0000
     0.0000   0.0000   0.0000   0.0000   0.0000   0.0000   0.0000   0.0000
     0.0000   0.0000   0.0000   0.0000   0.0000   0.0000   0.0000   0.0000

          k = 0.3333 0.2602 0.0000 (  4719 PWs)   bands (ev):

   -17.3352 -17.2793 -17.2000 -17.1960  -6.6161  -6.2843  -5.4449  -4.6368
    -4.4596  -4.3385  -4.2843  -4.2031  -3.0603  -2.7715  -2.5996  -2.3544
    -2.3453  -2.2690  -2.2584  -2.1523  -2.0597  -2.0506  -1.9382  -1.8212
     1.9775   3.0016   3.6810   3.9593   5.0159   5.1106   5.2540   5.5323
     5.8434   5.9932   6.6742   6.9964   7.0769   7.3266   7.5621   7.7710
     7.9074   8.0529   8.2531   8.5847   8.6544   8.8119   9.0126   9.0353
    12.5616  12.9195  12.9795  13.2686  13.7045  13.7564  14.0170  14.3970
    14.5353  14.6016  14.7058  14.8341  14.9409  15.5015  15.6186  16.0106

     occupation numbers 
     1.0000   1.0000   1.0000   1.0000   1.0000   1.0000   1.0000   1.0000
     1.0000   1.0000   1.0000   1.0000   1.0000   1.0000   1.0000   1.0000
     1.0000   1.0000   1.0000   1.0000   1.0000   1.0000   1.0000   1.0000
     1.0000   1.0000   1.0000   1.0000   1.0000   1.0000   1.0000   1.0000
     1.0000   1.0000   1.0000   1.0000   1.0000   1.0000   1.0000   1.0000
     1.0000   1.0000   1.0000   1.0000   1.0000   1.0000   1.0000   1.0000
     0.0000   0.0000   0.0000   0.0000   0.0000   0.0000   0.0000   0.0000
     0.0000   0.0000   0.0000   0.0000   0.0000   0.0000   0.0000   0.0000

          k = 0.3333 0.2602 0.2809 (  4694 PWs)   bands (ev):

   -17.3223 -17.2947 -17.1977 -17.1959  -6.5925  -6.4535  -5.1797  -4.8962
    -4.4208  -4.2222  -4.1618  -4.1061  -2.9470  -2.8119  -2.5902  -2.4633
    -2.4387  -2.3165  -2.2842  -2.2215  -2.1921  -2.0292  -1.8987  -1.8330
     2.1304   2.5346   4.0679   4.1067   5.0158   5.1082   5.3819   5.5721
     5.7380   5.9323   6.7672   6.9101   7.3212   7.4820   7.5154   7.6578
     8.0286   8.1797   8.2905   8.3437   8.5400   8.6439   8.8821   8.9771
    12.8497  12.9688  13.0604  13.1369  13.5238  13.9091  14.0950  14.2383
    14.2696  14.5209  14.8875  15.1116  15.1944  15.4000  15.6828  15.8140

     occupation numbers 
     1.0000   1.0000   1.0000   1.0000   1.0000   1.0000   1.0000   1.0000
     1.0000   1.0000   1.0000   1.0000   1.0000   1.0000   1.0000   1.0000
     1.0000   1.0000   1.0000   1.0000   1.0000   1.0000   1.0000   1.0000
     1.0000   1.0000   1.0000   1.0000   1.0000   1.0000   1.0000   1.0000
     1.0000   1.0000   1.0000   1.0000   1.0000   1.0000   1.0000   1.0000
     1.0000   1.0000   1.0000   1.0000   1.0000   1.0000   1.0000   1.0000
     0.0000   0.0000   0.0000   0.0000   0.0000   0.0000   0.0000   0.0000
     0.0000   0.0000   0.0000   0.0000   0.0000   0.0000   0.0000   0.0000

          k = 0.3333 0.6830 0.0000 (  4683 PWs)   bands (ev):

   -17.3050 -17.2498 -17.2299 -17.2262  -6.7317  -6.2697  -5.3682  -4.6054
    -4.5945  -4.3639  -4.2080  -4.0628  -2.9897  -2.6923  -2.6834  -2.4086
    -2.3755  -2.3582  -2.1779  -2.1598  -2.0782  -2.0560  -1.9186  -1.7508
     1.9302   2.9948   3.7275   4.0247   4.6863   4.8783   5.5764   5.6871
     5.9486   6.0957   6.7060   6.7610   7.1337   7.2000   7.5786   7.6062
     7.6432   8.1008   8.3819   8.5097   8.7894   8.8477   8.9362   8.9494
    12.5585  12.5591  13.0588  13.1029  13.7152  13.7753  13.8902  13.9556
    14.3323  14.9098  15.0711  15.2134  15.3504  15.5708  15.8306  16.0942

     occupation numbers 
     1.0000   1.0000   1.0000   1.0000   1.0000   1.0000   1.0000   1.0000
     1.0000   1.0000   1.0000   1.0000   1.0000   1.0000   1.0000   1.0000
     1.0000   1.0000   1.0000   1.0000   1.0000   1.0000   1.0000   1.0000
     1.0000   1.0000   1.0000   1.0000   1.0000   1.0000   1.0000   1.0000
     1.0000   1.0000   1.0000   1.0000   1.0000   1.0000   1.0000   1.0000
     1.0000   1.0000   1.0000   1.0000   1.0000   1.0000   1.0000   1.0000
     0.0000   0.0000   0.0000   0.0000   0.0000   0.0000   0.0000   0.0000
     0.0000   0.0000   0.0000   0.0000   0.0000   0.0000   0.0000   0.0000

          k = 0.3333 0.6830 0.2809 (  4692 PWs)   bands (ev):

   -17.2933 -17.2672 -17.2254 -17.2251  -6.6824  -6.4804  -5.1406  -4.9071
    -4.2925  -4.1664  -4.1470  -4.0674  -2.9070  -2.7683  -2.6961  -2.5724
    -2.4159  -2.3991  -2.3547  -2.2473  -2.1369  -1.9827  -1.8551  -1.7749
     2.1378   2.5864   4.0490   4.0877   4.8002   5.1026   5.3691   5.5869
     5.8241   6.0405   6.7580   6.8776   7.2023   7.3678   7.6049   7.6419
     8.1213   8.1831   8.2558   8.4205   8.5052   8.5685   8.7989   8.8764
    12.5931  12.7706  12.9203  13.1129  13.4916  13.5229  13.9964  14.1671
    14.4467  14.7119  15.0686  15.1634  15.4750  15.5280  15.7538  16.0440

     occupation numbers 
     1.0000   1.0000   1.0000   1.0000   1.0000   1.0000   1.0000   1.0000
     1.0000   1.0000   1.0000   1.0000   1.0000   1.0000   1.0000   1.0000
     1.0000   1.0000   1.0000   1.0000   1.0000   1.0000   1.0000   1.0000
     1.0000   1.0000   1.0000   1.0000   1.0000   1.0000   1.0000   1.0000
     1.0000   1.0000   1.0000   1.0000   1.0000   1.0000   1.0000   1.0000
     1.0000   1.0000   1.0000   1.0000   1.0000   1.0000   1.0000   1.0000
     0.0000   0.0000   0.0000   0.0000   0.0000   0.0000   0.0000   0.0000
     0.0000   0.0000   0.0000   0.0000   0.0000   0.0000   0.0000   0.0000

          k = 0.3333-0.1627 0.0000 (  4697 PWs)   bands (ev):

   -17.3737 -17.2902 -17.1929 -17.1576  -6.8301  -5.9483  -5.7054  -4.5553
    -4.3277  -3.9947  -3.9325  -3.8822  -2.9147  -2.8645  -2.7311  -2.7171
    -2.5091  -2.3261  -2.2216  -2.2049  -2.1918  -2.1620  -2.0475  -2.0217
     1.0222   2.3078   4.4465   4.6772   4.8362   4.9394   5.4597   5.4669
     5.7245   5.9089   6.3621   7.1119   7.3489   7.6812   7.8929   8.0078
     8.0918   8.2081   8.5926   8.6498   8.7871   9.0554   9.2037   9.5079
    12.5335  12.7785  12.8178  12.9900  13.3902  13.4493  13.5488  13.6754
    13.7872  14.5484  14.8844  14.9101  15.2984  15.4545  15.8341  16.1487

     occupation numbers 
     1.0000   1.0000   1.0000   1.0000   1.0000   1.0000   1.0000   1.0000
     1.0000   1.0000   1.0000   1.0000   1.0000   1.0000   1.0000   1.0000
     1.0000   1.0000   1.0000   1.0000   1.0000   1.0000   1.0000   1.0000
     1.0000   1.0000   1.0000   1.0000   1.0000   1.0000   1.0000   1.0000
     1.0000   1.0000   1.0000   1.0000   1.0000   1.0000   1.0000   1.0000
     1.0000   1.0000   1.0000   1.0000   1.0000   1.0000   1.0000   1.0000
     0.0000   0.0000   0.0000   0.0000   0.0000   0.0000   0.0000   0.0000
     0.0000   0.0000   0.0000   0.0000   0.0000   0.0000   0.0000   0.0000

          k = 0.3333-0.1627 0.2809 (  4689 PWs)   bands (ev):

   -17.3558 -17.3154 -17.1798 -17.1635  -6.7428  -6.4311  -5.0710  -4.6422
    -4.2363  -4.0376  -3.9316  -3.8899  -2.9086  -2.8740  -2.7971  -2.7530
    -2.6356  -2.5383  -2.3300  -2.2042  -2.1295  -2.0408  -2.0333  -1.9508
     1.3058   1.8845   4.6337   4.8146   4.8689   5.1765   5.2569   5.4464
     5.8130   5.9525   6.7501   6.9357   7.2291   7.3059   7.8891   8.1244
     8.1618   8.3426   8.3789   8.4315   8.7874   9.0284   9.2030   9.3047
    12.7590  13.0138  13.0244  13.1996  13.2112  13.4602  13.7564  13.8594
    14.1243  14.3815  14.9992  15.0764  15.2745  15.3510  15.6810  15.9792

     occupation numbers 
     1.0000   1.0000   1.0000   1.0000   1.0000   1.0000   1.0000   1.0000
     1.0000   1.0000   1.0000   1.0000   1.0000   1.0000   1.0000   1.0000
     1.0000   1.0000   1.0000   1.0000   1.0000   1.0000   1.0000   1.0000
     1.0000   1.0000   1.0000   1.0000   1.0000   1.0000   1.0000   1.0000
     1.0000   1.0000   1.0000   1.0000   1.0000   1.0000   1.0000   1.0000
     1.0000   1.0000   1.0000   1.0000   1.0000   1.0000   1.0000   1.0000
     0.0000   0.0000   0.0000   0.0000   0.0000   0.0000   0.0000   0.0000
     0.0000   0.0000   0.0000   0.0000   0.0000   0.0000   0.0000   0.0000

     highest occupied, lowest unoccupied level (ev):     9.5079   12.5217

!    total energy              =   -1953.14487036 Ry
     estimated scf accuracy    <       0.00000027 Ry

     The total energy is the sum of the following terms:
     one-electron contribution =      -9.12077120 Ry
     hartree contribution      =      65.43027525 Ry
     xc contribution           =    -150.86504538 Ry
     ewald contribution        =    -358.76263417 Ry
     one-center paw contrib.   =   -1499.82669486 Ry
      -> PAW hartree energy AE =      57.72687654 Ry
      -> PAW hartree energy PS =     -57.50745293 Ry
      -> PAW xc energy AE      =    -788.50003343 Ry
      -> PAW xc energy PS      =      38.36726238 Ry
      -> total E_H with PAW    =      65.64969886 Ry
      -> total E_XC with PAW   =    -900.99781642 Ry

     convergence has been achieved in  12 iterations

     Writing all to output data dir calculations_bands_val/myprefix.save/
 
     init_run     :      7.61s CPU      2.26s WALL (       1 calls)
     electrons    :     57.18s CPU     15.17s WALL (       1 calls)

     Called by init_run:
     wfcinit      :      0.99s CPU      0.26s WALL (       1 calls)
     wfcinit:atom :      0.01s CPU      0.00s WALL (       5 calls)
     wfcinit:wfcr :      0.90s CPU      0.23s WALL (       5 calls)
     potinit      :      2.43s CPU      0.68s WALL (       1 calls)
     hinit0       :      3.60s CPU      1.14s WALL (       1 calls)

     Called by electrons:
     c_bands      :     36.18s CPU      9.44s WALL (      12 calls)
     sum_band     :      8.34s CPU      2.34s WALL (      12 calls)
     v_of_rho     :      1.20s CPU      0.32s WALL (      13 calls)
     v_h          :      0.09s CPU      0.02s WALL (      13 calls)
     v_xc         :      1.11s CPU      0.30s WALL (      13 calls)
     newd         :      2.48s CPU      0.72s WALL (      13 calls)
     PAW_pot      :      9.32s CPU      2.43s WALL (      13 calls)
     mix_rho      :      0.31s CPU      0.08s WALL (      12 calls)

     Called by c_bands:
     init_us_2    :      0.30s CPU      0.08s WALL (     125 calls)
     init_us_2:cp :      0.29s CPU      0.08s WALL (     125 calls)
     cegterg      :     33.02s CPU      8.58s WALL (      60 calls)

     Called by sum_band:
     sum_band:wei :      0.00s CPU      0.00s WALL (      12 calls)
     sum_band:loo :      5.06s CPU      1.31s WALL (      12 calls)
     sum_band:buf :      0.08s CPU      0.02s WALL (      60 calls)
     sum_band:ini :      0.14s CPU      0.04s WALL (      60 calls)
     sum_band:cal :      0.25s CPU      0.06s WALL (      60 calls)
     sum_band:bec :      0.07s CPU      0.02s WALL (      60 calls)
     addusdens    :      2.57s CPU      0.84s WALL (      12 calls)
     addusd:skk   :      0.02s CPU      0.01s WALL (      36 calls)
     addusd:dgemm :      0.63s CPU      0.34s WALL (      36 calls)
     addusd:qvan2 :      1.76s CPU      0.45s WALL (      36 calls)

     Called by *egterg:
     cdiaghg      :      5.54s CPU      1.45s WALL (     307 calls)
     cegterg:over :      1.01s CPU      0.27s WALL (     247 calls)
     cegterg:upda :      0.67s CPU      0.17s WALL (     247 calls)
     cegterg:last :      1.07s CPU      0.27s WALL (     125 calls)
     cdiaghg:chol :      0.39s CPU      0.10s WALL (     307 calls)
     cdiaghg:inve :      0.08s CPU      0.02s WALL (     307 calls)
     cdiaghg:para :      0.84s CPU      0.22s WALL (     614 calls)
     h_psi        :     24.36s CPU      6.32s WALL (     312 calls)
     s_psi        :      0.66s CPU      0.17s WALL (     312 calls)
     g_psi        :      0.04s CPU      0.01s WALL (     247 calls)

     Called by h_psi:
     h_psi:calbec :      0.84s CPU      0.22s WALL (     312 calls)
     vloc_psi     :     22.68s CPU      5.88s WALL (     312 calls)
     add_vuspsi   :      0.76s CPU      0.20s WALL (     312 calls)

     General routines
     calbec       :      1.08s CPU      0.28s WALL (     372 calls)
     fft          :      2.05s CPU      0.54s WALL (     167 calls)
     ffts         :      1.09s CPU      0.34s WALL (      25 calls)
     fftw         :     23.50s CPU      6.11s WALL (   24330 calls)
     interpolate  :      1.16s CPU      0.35s WALL (      13 calls)
 
     Parallel routines

     PAW routines
     PAW_pot      :      9.32s CPU      2.43s WALL (      13 calls)
     PAW_symme    :      0.03s CPU      0.01s WALL (      25 calls)
 
     PWSCF        :   1m 6.32s CPU     18.32s WALL

 
   This run was terminated on:  11:37:47   4Jun2023            

=------------------------------------------------------------------------------=
   JOB DONE.
=------------------------------------------------------------------------------=
