
     Program PWSCF v.7.0 starts on  4Jun2023 at 12:54: 8 

     This program is part of the open-source Quantum ESPRESSO suite
     for quantum simulation of materials; please cite
         "P. Giannozzi et al., J. Phys.:Condens. Matter 21 395502 (2009);
         "P. Giannozzi et al., J. Phys.:Condens. Matter 29 465901 (2017);
         "P. Giannozzi et al., J. Chem. Phys. 152 154105 (2020);
          URL http://www.quantum-espresso.org", 
     in publications or presentations arising from this work. More details at
     http://www.quantum-espresso.org/quote

     Parallel version (MPI & OpenMP), running on      32 processor cores
     Number of MPI processes:                 8
     Threads/MPI process:                     4

     MPI processes distributed on     1 nodes
     K-points division:     npool     =       2
     R & G space division:  proc/nbgrp/npool/nimage =       4
     142229 MiB available memory on the printing compute node when the environment starts
 
     Reading input from espresso_495.pwi
Warning: card &CELL ignored
Warning: card / ignored

     Current dimensions of program PWSCF are:
     Max number of different atomic species (ntypx) = 10
     Max number of k-points (npk) =  40000
     Max angular momentum in pseudopotentials (lmaxx) =  4
     file Ba.pbe-spn-kjpaw_psl.1.0.0.UPF: wavefunction(s)  5S 6S renormalized
     file O.pbe-n-kjpaw_psl.0.1.UPF: wavefunction(s)  2P renormalized
     Message from routine setup:
     using ibrav=0 with symmetry is DISCOURAGED, use correct ibrav instead

     Subspace diagonalization in iterative solution of the eigenvalue problem:
     one sub-group per band group will be used
     scalapack distributed-memory algorithm (size of sub-group:  2*  2 procs)

 
     Parallelization info
     --------------------
     sticks:   dense  smooth     PW     G-vecs:    dense   smooth      PW
     Min         762     381    107                28151     9960    1541
     Max         764     382    108                28154     9961    1544
     Sum        3051    1527    431               112609    39841    6171
 
     Using Slab Decomposition
 


     bravais-lattice index     =            0
     lattice parameter (alat)  =      14.9181  a.u.
     unit-cell volume          =    1793.5301 (a.u.)^3
     number of atoms/cell      =           10
     number of atomic types    =            4
     number of electrons       =        88.00
     number of Kohn-Sham states=           64
     kinetic-energy cutoff     =      30.0000  Ry
     charge density cutoff     =     240.0000  Ry
     scf convergence threshold =      1.0E-06
     mixing beta               =       0.7000
     number of iterations used =            8  plain     mixing
     Exchange-correlation= SLA  PW   PBX  PBC
                           (   1   4   3   4   0   0   0)

     celldm(1)=  14.918118  celldm(2)=   0.000000  celldm(3)=   0.000000
     celldm(4)=   0.000000  celldm(5)=   0.000000  celldm(6)=   0.000000

     crystal axes: (cart. coord. in units of alat)
               a(1) = (   1.000000   0.000000   0.000000 )  
               a(2) = (  -0.694383   0.719606   0.000000 )  
               a(3) = (   0.000000   0.000000   0.750709 )  

     reciprocal axes: (cart. coord. in units 2 pi/alat)
               b(1) = (  1.000000  0.964948  0.000000 )  
               b(2) = (  0.000000  1.389649  0.000000 )  
               b(3) = (  0.000000  0.000000  1.332073 )  


     PseudoPot. # 1 for Ba read from file:
     /home/pragov/projects/rrg-bengioy-ad/pragov/crystal_structure_design/SSSP/Ba.pbe-spn-kjpaw_psl.1.0.0.UPF
     MD5 check sum: c432291d3e53af55f19d5e8866385beb
     Pseudo is Projector augmented-wave + core cor, Zval = 10.0
     Generated using "atomic" code by A. Dal Corso  v.5.1
     Shape of augmentation charge: PSQ
     Using radial grid of 1251 points,  7 beta functions with: 
                l(1) =   0
                l(2) =   0
                l(3) =   0
                l(4) =   1
                l(5) =   1
                l(6) =   2
                l(7) =   2
     Q(r) pseudized with 0 coefficients 


     PseudoPot. # 2 for Bi read from file:
     /home/pragov/projects/rrg-bengioy-ad/pragov/crystal_structure_design/SSSP/Bi_pbe_v1.uspp.F.UPF
     MD5 check sum: cceb9f28ec65b6d7ff33140f5b0b1758
     Pseudo is Ultrasoft + core correction, Zval = 15.0
     Generated by new atomic code, or converted to UPF format
     Using radial grid of  899 points,  6 beta functions with: 
                l(1) =   0
                l(2) =   0
                l(3) =   1
                l(4) =   1
                l(5) =   2
                l(6) =   2
     Q(r) pseudized with  6 coefficients,  rinner =    1.000   1.000   1.000
                                                       1.000   1.000

     PseudoPot. # 3 for I  read from file:
     /home/pragov/projects/rrg-bengioy-ad/pragov/crystal_structure_design/SSSP/I.pbe-n-kjpaw_psl.0.2.UPF
     MD5 check sum: d4ef18d9c8f18dc85e5843bca1e50dc0
     Pseudo is Projector augmented-wave + core cor, Zval =  7.0
     Generated using "atomic" code by A. Dal Corso  v.5.0.99 svn rev. 10869
     Shape of augmentation charge: PSQ
     Using radial grid of 1247 points,  4 beta functions with: 
                l(1) =   0
                l(2) =   0
                l(3) =   1
                l(4) =   1
     Q(r) pseudized with 0 coefficients 


     PseudoPot. # 4 for O  read from file:
     /home/pragov/projects/rrg-bengioy-ad/pragov/crystal_structure_design/SSSP/O.pbe-n-kjpaw_psl.0.1.UPF
     MD5 check sum: 0234752ac141de4415c5fc33072bef88
     Pseudo is Projector augmented-wave + core cor, Zval =  6.0
     Generated using "atomic" code by A. Dal Corso  v.5.0.99 svn rev. 10869
     Shape of augmentation charge: BESSEL
     Using radial grid of 1095 points,  4 beta functions with: 
                l(1) =   0
                l(2) =   0
                l(3) =   1
                l(4) =   1
     Q(r) pseudized with 0 coefficients 


     atomic species   valence    mass     pseudopotential
        Ba            10.00   137.32700     Ba( 1.00)
        Bi            15.00   208.98040     Bi( 1.00)
        I              7.00   126.90447     I ( 1.00)
        O              6.00    15.99900     O ( 1.00)

      4 Sym. Ops., with inversion, found ( 2 have fractional translation)


                                    s                        frac. trans.

      isym =  1     identity                                     

 cryst.   s( 1) = (     1          0          0      )
                  (     0          1          0      )
                  (     0          0          1      )

 cart.    s( 1) = (  1.0000000  0.0000000  0.0000000 )
                  (  0.0000000  1.0000000  0.0000000 )
                  (  0.0000000  0.0000000  1.0000000 )


      isym =  2     180 deg rotation - cart. axis [0,0,1]        

 cryst.   s( 2) = (    -1          0          0      )    f =(  0.0000000 )
                  (     0         -1          0      )       (  0.0000000 )
                  (     0          0          1      )       (  0.5000000 )

 cart.    s( 2) = ( -1.0000000 -0.0000000  0.0000000 )    f =(  0.0000000 )
                  (  0.0000000 -1.0000000  0.0000000 )       (  0.0000000 )
                  (  0.0000000  0.0000000  1.0000000 )       (  0.3753547 )


      isym =  3     inversion                                    

 cryst.   s( 3) = (    -1          0          0      )
                  (     0         -1          0      )
                  (     0          0         -1      )

 cart.    s( 3) = ( -1.0000000 -0.0000000  0.0000000 )
                  (  0.0000000 -1.0000000  0.0000000 )
                  (  0.0000000  0.0000000 -1.0000000 )


      isym =  4     inv. 180 deg rotation - cart. axis [0,0,1]   

 cryst.   s( 4) = (     1          0          0      )    f =(  0.0000000 )
                  (     0          1          0      )       (  0.0000000 )
                  (     0          0         -1      )       (  0.5000000 )

 cart.    s( 4) = (  1.0000000  0.0000000  0.0000000 )    f =(  0.0000000 )
                  (  0.0000000  1.0000000  0.0000000 )       (  0.0000000 )
                  (  0.0000000  0.0000000 -1.0000000 )       (  0.3753547 )


   Cartesian axes

     site n.     atom                  positions (alat units)
         1           Ba  tau(   1) = (   0.3244869   0.2868911   0.5630320  )
         2           Ba  tau(   2) = (  -0.0188696   0.4327149   0.1876773  )
         3           Bi  tau(   3) = (  -0.5804236   0.6712074   0.1876773  )
         4           Bi  tau(   4) = (   0.8860409   0.0483985   0.5630320  )
         5           I   tau(   5) = (  -0.2674152   0.5382725   0.5630320  )
         6           I   tau(   6) = (   0.5730325   0.1813335   0.1876773  )
         7           O   tau(   7) = (   0.2372911   0.5587251   0.3753547  )
         8           O   tau(   8) = (   0.0683263   0.1608809   0.3753547  )
         9           O   tau(   9) = (   0.0683263   0.1608809   0.0000000  )
        10           O   tau(  10) = (   0.2372911   0.5587251   0.0000000  )

   Crystallographic axes

     site n.     atom                  positions (cryst. coord.)
         1           Ba  tau(   1) = (  0.6013220  0.3986780  0.7500000  )
         2           Ba  tau(   2) = (  0.3986780  0.6013220  0.2500000  )
         3           Bi  tau(   3) = (  0.0672570  0.9327430  0.2500000  )
         4           Bi  tau(   4) = (  0.9327430  0.0672570  0.7500000  )
         5           I   tau(   5) = (  0.2519900  0.7480100  0.7500000  )
         6           I   tau(   6) = (  0.7480100  0.2519900  0.2500000  )
         7           O   tau(   7) = (  0.7764320  0.7764320  0.5000000  )
         8           O   tau(   8) = (  0.2235680  0.2235680  0.5000000  )
         9           O   tau(   9) = (  0.2235680  0.2235680  0.0000000  )
        10           O   tau(  10) = (  0.7764320  0.7764320  0.0000000  )

     number of k points=    10
                       cart. coord. in units 2pi/alat
        k(    1) = (   0.0000000   0.0000000   0.0000000), wk =   0.0740741
        k(    2) = (   0.0000000   0.0000000   0.4440245), wk =   0.1481481
        k(    3) = (   0.0000000   0.4632165   0.0000000), wk =   0.1481481
        k(    4) = (   0.0000000   0.4632165   0.4440245), wk =   0.2962963
        k(    5) = (   0.3333333   0.3216495   0.0000000), wk =   0.1481481
        k(    6) = (   0.3333333   0.3216495   0.4440245), wk =   0.2962963
        k(    7) = (   0.3333333   0.7848660   0.0000000), wk =   0.1481481
        k(    8) = (   0.3333333   0.7848660   0.4440245), wk =   0.2962963
        k(    9) = (   0.3333333  -0.1415670   0.0000000), wk =   0.1481481
        k(   10) = (   0.3333333  -0.1415670   0.4440245), wk =   0.2962963

                       cryst. coord.
        k(    1) = (   0.0000000   0.0000000   0.0000000), wk =   0.0740741
        k(    2) = (   0.0000000   0.0000000   0.3333333), wk =   0.1481481
        k(    3) = (   0.0000000   0.3333333   0.0000000), wk =   0.1481481
        k(    4) = (   0.0000000   0.3333333   0.3333333), wk =   0.2962963
        k(    5) = (   0.3333333  -0.0000000   0.0000000), wk =   0.1481481
        k(    6) = (   0.3333333  -0.0000000   0.3333333), wk =   0.2962963
        k(    7) = (   0.3333333   0.3333333   0.0000000), wk =   0.1481481
        k(    8) = (   0.3333333   0.3333333   0.3333333), wk =   0.2962963
        k(    9) = (   0.3333333  -0.3333333   0.0000000), wk =   0.1481481
        k(   10) = (   0.3333333  -0.3333333   0.3333333), wk =   0.2962963

     Dense  grid:   112609 G-vectors     FFT dimensions: (  75,  75,  60)

     Smooth grid:    39841 G-vectors     FFT dimensions: (  54,  54,  40)

     Dynamical RAM for                 wfc:       1.21 MB

     Dynamical RAM for     wfc (w. buffer):       7.29 MB

     Dynamical RAM for           str. fact:       1.72 MB

     Dynamical RAM for           local pot:       0.00 MB

     Dynamical RAM for          nlocal pot:       2.32 MB

     Dynamical RAM for                qrad:       6.64 MB

     Dynamical RAM for          rho,v,vnew:       3.22 MB

     Dynamical RAM for               rhoin:       1.07 MB

     Dynamical RAM for            rho*nmix:       6.87 MB

     Dynamical RAM for           G-vectors:       1.69 MB

     Dynamical RAM for          h,s,v(r/c):       0.19 MB

     Dynamical RAM for          <psi|beta>:       0.12 MB

     Dynamical RAM for                 psi:       2.43 MB

     Dynamical RAM for                hpsi:       2.43 MB

     Dynamical RAM for                spsi:       2.43 MB

     Dynamical RAM for      wfcinit/wfcrot:       2.52 MB

     Dynamical RAM for           addusdens:      45.10 MB

     Estimated static dynamical RAM per process >      29.30 MB

     Estimated max dynamical RAM per process >      81.28 MB

     Estimated total dynamical RAM >     622.77 MB

     Check: negative core charge=   -0.000005

     Initial potential from superposition of free atoms

     starting charge      85.9658, renormalised to      88.0000

     negative rho (up, down):  8.779E-02 0.000E+00
     Starting wfcs are   52 randomized atomic wfcs +   12 random wfcs
     Checking if some PAW data can be deallocated... 
       PAW data deallocated on    7 nodes for type:  1
       PAW data deallocated on    6 nodes for type:  3
       PAW data deallocated on    4 nodes for type:  4

     total cpu time spent up to now is        2.9 secs

     Self-consistent Calculation

     iteration #  1     ecut=    30.00 Ry     beta= 0.70
     Davidson diagonalization with overlap

---- Real-time Memory Report at c_bands before calling an iterative solver
           211 MiB given to the printing process from OS
             0 MiB allocation reported by mallinfo(arena+hblkhd)
        141340 MiB available memory on the node where the printing process lives
------------------
     ethr =  1.00E-02,  avg # of iterations =  6.8

     negative rho (up, down):  1.019E-01 0.000E+00

     total cpu time spent up to now is        4.7 secs

     total energy              =   -2166.76762766 Ry
     estimated scf accuracy    <       2.16606439 Ry

     iteration #  2     ecut=    30.00 Ry     beta= 0.70
     Davidson diagonalization with overlap

---- Real-time Memory Report at c_bands before calling an iterative solver
           280 MiB given to the printing process from OS
             0 MiB allocation reported by mallinfo(arena+hblkhd)
        141135 MiB available memory on the node where the printing process lives
------------------
     ethr =  2.46E-03,  avg # of iterations =  3.3

     negative rho (up, down):  1.066E-01 0.000E+00

     total cpu time spent up to now is        5.9 secs

     total energy              =   -2165.81958353 Ry
     estimated scf accuracy    <      10.55245595 Ry

     iteration #  3     ecut=    30.00 Ry     beta= 0.70
     Davidson diagonalization with overlap

---- Real-time Memory Report at c_bands before calling an iterative solver
           282 MiB given to the printing process from OS
             0 MiB allocation reported by mallinfo(arena+hblkhd)
        141074 MiB available memory on the node where the printing process lives
------------------
     ethr =  2.46E-03,  avg # of iterations =  2.0

     negative rho (up, down):  8.979E-02 0.000E+00

     total cpu time spent up to now is        7.0 secs

     total energy              =   -2167.90195380 Ry
     estimated scf accuracy    <       0.19459466 Ry

     iteration #  4     ecut=    30.00 Ry     beta= 0.70
     Davidson diagonalization with overlap

---- Real-time Memory Report at c_bands before calling an iterative solver
           290 MiB given to the printing process from OS
             0 MiB allocation reported by mallinfo(arena+hblkhd)
        141058 MiB available memory on the node where the printing process lives
------------------
     ethr =  2.21E-04,  avg # of iterations =  2.7

     negative rho (up, down):  8.566E-02 0.000E+00

     total cpu time spent up to now is        7.9 secs

     total energy              =   -2167.90928818 Ry
     estimated scf accuracy    <       0.04647057 Ry

     iteration #  5     ecut=    30.00 Ry     beta= 0.70
     Davidson diagonalization with overlap

---- Real-time Memory Report at c_bands before calling an iterative solver
           290 MiB given to the printing process from OS
             0 MiB allocation reported by mallinfo(arena+hblkhd)
        141041 MiB available memory on the node where the printing process lives
------------------
     ethr =  5.28E-05,  avg # of iterations =  4.5

     negative rho (up, down):  8.593E-02 0.000E+00

     total cpu time spent up to now is        9.0 secs

     total energy              =   -2167.91232134 Ry
     estimated scf accuracy    <       0.00788545 Ry

     iteration #  6     ecut=    30.00 Ry     beta= 0.70
     Davidson diagonalization with overlap

---- Real-time Memory Report at c_bands before calling an iterative solver
           291 MiB given to the printing process from OS
             0 MiB allocation reported by mallinfo(arena+hblkhd)
        141031 MiB available memory on the node where the printing process lives
------------------
     ethr =  8.96E-06,  avg # of iterations =  6.6

     negative rho (up, down):  8.603E-02 0.000E+00

     total cpu time spent up to now is       10.2 secs

     total energy              =   -2167.91313403 Ry
     estimated scf accuracy    <       0.00026001 Ry

     iteration #  7     ecut=    30.00 Ry     beta= 0.70
     Davidson diagonalization with overlap

---- Real-time Memory Report at c_bands before calling an iterative solver
           293 MiB given to the printing process from OS
             0 MiB allocation reported by mallinfo(arena+hblkhd)
        141019 MiB available memory on the node where the printing process lives
------------------
     ethr =  2.95E-07,  avg # of iterations =  4.3

     negative rho (up, down):  8.604E-02 0.000E+00

     total cpu time spent up to now is       11.4 secs

     total energy              =   -2167.91322914 Ry
     estimated scf accuracy    <       0.00091312 Ry

     iteration #  8     ecut=    30.00 Ry     beta= 0.70
     Davidson diagonalization with overlap

---- Real-time Memory Report at c_bands before calling an iterative solver
           294 MiB given to the printing process from OS
             0 MiB allocation reported by mallinfo(arena+hblkhd)
        141011 MiB available memory on the node where the printing process lives
------------------
     ethr =  2.95E-07,  avg # of iterations =  1.0

     negative rho (up, down):  8.612E-02 0.000E+00

     total cpu time spent up to now is       12.3 secs

     total energy              =   -2167.91322439 Ry
     estimated scf accuracy    <       0.00065684 Ry

     iteration #  9     ecut=    30.00 Ry     beta= 0.70
     Davidson diagonalization with overlap

---- Real-time Memory Report at c_bands before calling an iterative solver
           294 MiB given to the printing process from OS
             0 MiB allocation reported by mallinfo(arena+hblkhd)
        141019 MiB available memory on the node where the printing process lives
------------------
     ethr =  2.95E-07,  avg # of iterations =  1.0

     negative rho (up, down):  8.614E-02 0.000E+00

     total cpu time spent up to now is       13.2 secs

     total energy              =   -2167.91322830 Ry
     estimated scf accuracy    <       0.00017174 Ry

     iteration # 10     ecut=    30.00 Ry     beta= 0.70
     Davidson diagonalization with overlap

---- Real-time Memory Report at c_bands before calling an iterative solver
           294 MiB given to the printing process from OS
             0 MiB allocation reported by mallinfo(arena+hblkhd)
        141010 MiB available memory on the node where the printing process lives
------------------
     ethr =  1.95E-07,  avg # of iterations =  1.0

     negative rho (up, down):  8.614E-02 0.000E+00

     total cpu time spent up to now is       14.2 secs

     total energy              =   -2167.91322864 Ry
     estimated scf accuracy    <       0.00006896 Ry

     iteration # 11     ecut=    30.00 Ry     beta= 0.70
     Davidson diagonalization with overlap

---- Real-time Memory Report at c_bands before calling an iterative solver
           294 MiB given to the printing process from OS
             0 MiB allocation reported by mallinfo(arena+hblkhd)
        141009 MiB available memory on the node where the printing process lives
------------------
     ethr =  7.84E-08,  avg # of iterations =  1.0

     negative rho (up, down):  8.614E-02 0.000E+00

     total cpu time spent up to now is       15.1 secs

     total energy              =   -2167.91322885 Ry
     estimated scf accuracy    <       0.00001164 Ry

     iteration # 12     ecut=    30.00 Ry     beta= 0.70
     Davidson diagonalization with overlap

---- Real-time Memory Report at c_bands before calling an iterative solver
           294 MiB given to the printing process from OS
             0 MiB allocation reported by mallinfo(arena+hblkhd)
        141014 MiB available memory on the node where the printing process lives
------------------
     ethr =  1.32E-08,  avg # of iterations =  1.0

     negative rho (up, down):  8.614E-02 0.000E+00

     total cpu time spent up to now is       16.0 secs

     total energy              =   -2167.91322893 Ry
     estimated scf accuracy    <       0.00000231 Ry

     iteration # 13     ecut=    30.00 Ry     beta= 0.70
     Davidson diagonalization with overlap

---- Real-time Memory Report at c_bands before calling an iterative solver
           294 MiB given to the printing process from OS
             0 MiB allocation reported by mallinfo(arena+hblkhd)
        141014 MiB available memory on the node where the printing process lives
------------------
     ethr =  2.62E-09,  avg # of iterations =  1.0

     negative rho (up, down):  8.614E-02 0.000E+00

     total cpu time spent up to now is       16.9 secs

     End of self-consistent calculation

          k = 0.0000 0.0000 0.0000 (  4951 PWs)   bands (ev):

   -19.6811 -19.6284 -15.9401 -15.9228 -15.8812 -15.7975 -15.7935 -15.7900
   -15.7466 -15.7391 -15.7211 -15.7036 -11.4919 -10.4738 -10.4616  -9.6742
    -5.5934  -4.9943  -4.9500  -4.8536  -4.8496  -4.8248  -4.6268  -4.5843
    -3.7076  -1.8888   1.8699   2.6430   2.7013   3.2303   3.7323   4.2437
     4.3371   4.6189   4.6866   4.7910   4.9125   5.0640   5.0671   5.2360
     5.3349   5.5525   5.5626   5.6367   9.1805   9.1957   9.5039  10.6525
    10.8602  11.1985  11.3146  11.4412  11.5285  12.1925  12.2215  12.3033
    12.4772  12.4998  13.3427  13.4627  13.4768  13.7391  14.9242  15.6762

     occupation numbers 
     1.0000   1.0000   1.0000   1.0000   1.0000   1.0000   1.0000   1.0000
     1.0000   1.0000   1.0000   1.0000   1.0000   1.0000   1.0000   1.0000
     1.0000   1.0000   1.0000   1.0000   1.0000   1.0000   1.0000   1.0000
     1.0000   1.0000   1.0000   1.0000   1.0000   1.0000   1.0000   1.0000
     1.0000   1.0000   1.0000   1.0000   1.0000   1.0000   1.0000   1.0000
     1.0000   1.0000   1.0000   1.0000   0.0000   0.0000   0.0000   0.0000
     0.0000   0.0000   0.0000   0.0000   0.0000   0.0000   0.0000   0.0000
     0.0000   0.0000   0.0000   0.0000   0.0000   0.0000   0.0000   0.0000

          k = 0.0000 0.0000 0.4440 (  4976 PWs)   bands (ev):

   -19.6675 -19.6411 -15.9253 -15.8956 -15.8918 -15.8167 -15.7925 -15.7875
   -15.7789 -15.7538 -15.7011 -15.7002 -11.2644 -10.7558 -10.2887  -9.8908
    -5.4679  -5.2215  -4.9816  -4.8946  -4.8477  -4.6663  -4.6340  -4.5133
    -3.2674  -2.3424   2.4748   2.5991   2.6894   3.2946   3.8980   4.1571
     4.2685   4.4702   4.6511   4.6999   4.7186   4.9601   4.9660   5.0305
     5.1880   5.3019   5.4684   5.6102   9.5890   9.7302   9.9253  10.4714
    10.6552  11.0792  11.6488  11.6839  12.0252  12.1445  12.3758  12.8402
    12.9475  13.1635  13.2186  13.5800  13.5869  13.5975  13.6885  14.3172

     occupation numbers 
     1.0000   1.0000   1.0000   1.0000   1.0000   1.0000   1.0000   1.0000
     1.0000   1.0000   1.0000   1.0000   1.0000   1.0000   1.0000   1.0000
     1.0000   1.0000   1.0000   1.0000   1.0000   1.0000   1.0000   1.0000
     1.0000   1.0000   1.0000   1.0000   1.0000   1.0000   1.0000   1.0000
     1.0000   1.0000   1.0000   1.0000   1.0000   1.0000   1.0000   1.0000
     1.0000   1.0000   1.0000   1.0000   0.0000   0.0000   0.0000   0.0000
     0.0000   0.0000   0.0000   0.0000   0.0000   0.0000   0.0000   0.0000
     0.0000   0.0000   0.0000   0.0000   0.0000   0.0000   0.0000   0.0000

          k = 0.0000 0.4632 0.0000 (  4975 PWs)   bands (ev):

   -19.6802 -19.6285 -15.9413 -15.9223 -15.8797 -15.7976 -15.7937 -15.7898
   -15.7466 -15.7392 -15.7211 -15.7037 -11.5389 -10.4264 -10.3735  -9.7883
    -5.4395  -5.2367  -4.9232  -4.8548  -4.8045  -4.7995  -4.6699  -4.4817
    -3.7202  -1.9499   1.8668   2.8109   3.0430   3.1109   3.7411   4.1633
     4.4266   4.5261   4.6063   4.7505   4.8075   4.9384   5.0371   5.0615
     5.2062   5.3564   5.4996   5.8577   9.0394   9.5813   9.7602  10.2384
    10.9506  11.1844  11.4746  11.7575  12.1776  12.3072  12.3699  12.6827
    13.0503  13.0609  13.3339  13.4016  13.5066  13.6587  14.3189  14.4210

     occupation numbers 
     1.0000   1.0000   1.0000   1.0000   1.0000   1.0000   1.0000   1.0000
     1.0000   1.0000   1.0000   1.0000   1.0000   1.0000   1.0000   1.0000
     1.0000   1.0000   1.0000   1.0000   1.0000   1.0000   1.0000   1.0000
     1.0000   1.0000   1.0000   1.0000   1.0000   1.0000   1.0000   1.0000
     1.0000   1.0000   1.0000   1.0000   1.0000   1.0000   1.0000   1.0000
     1.0000   1.0000   1.0000   1.0000   0.0000   0.0000   0.0000   0.0000
     0.0000   0.0000   0.0000   0.0000   0.0000   0.0000   0.0000   0.0000
     0.0000   0.0000   0.0000   0.0000   0.0000   0.0000   0.0000   0.0000

          k = 0.0000 0.4632 0.4440 (  4973 PWs)   bands (ev):

   -19.6670 -19.6412 -15.9248 -15.8939 -15.8916 -15.8168 -15.7925 -15.7874
   -15.7789 -15.7537 -15.7012 -15.7002 -11.2842 -10.7091 -10.2808  -9.9648
    -5.4085  -5.3048  -4.9054  -4.8720  -4.8491  -4.7670  -4.5252  -4.4791
    -3.2685  -2.3646   2.4282   2.6183   2.6240   3.3600   3.6988   3.8850
     4.0435   4.5307   4.6164   4.7695   4.8555   4.9359   5.0169   5.0858
     5.2391   5.2631   5.6763   5.7559   9.7143   9.9127  10.0941  10.5447
    10.8766  11.2119  11.6048  11.7610  12.0137  12.2466  12.2906  12.4948
    12.6488  12.8203  13.0332  13.1920  13.8184  14.0136  14.1678  14.3437

     occupation numbers 
     1.0000   1.0000   1.0000   1.0000   1.0000   1.0000   1.0000   1.0000
     1.0000   1.0000   1.0000   1.0000   1.0000   1.0000   1.0000   1.0000
     1.0000   1.0000   1.0000   1.0000   1.0000   1.0000   1.0000   1.0000
     1.0000   1.0000   1.0000   1.0000   1.0000   1.0000   1.0000   1.0000
     1.0000   1.0000   1.0000   1.0000   1.0000   1.0000   1.0000   1.0000
     1.0000   1.0000   1.0000   1.0000   0.0000   0.0000   0.0000   0.0000
     0.0000   0.0000   0.0000   0.0000   0.0000   0.0000   0.0000   0.0000
     0.0000   0.0000   0.0000   0.0000   0.0000   0.0000   0.0000   0.0000

          k = 0.3333 0.3216 0.0000 (  4975 PWs)   bands (ev):

   -19.6802 -19.6285 -15.9413 -15.9223 -15.8797 -15.7976 -15.7937 -15.7898
   -15.7466 -15.7392 -15.7211 -15.7037 -11.5389 -10.4264 -10.3735  -9.7883
    -5.4395  -5.2367  -4.9232  -4.8548  -4.8045  -4.7995  -4.6699  -4.4817
    -3.7202  -1.9499   1.8668   2.8109   3.0430   3.1109   3.7411   4.1633
     4.4266   4.5261   4.6063   4.7505   4.8075   4.9384   5.0371   5.0615
     5.2062   5.3564   5.4996   5.8577   9.0394   9.5813   9.7602  10.2384
    10.9506  11.1844  11.4746  11.7575  12.1776  12.3072  12.3699  12.6827
    13.0503  13.0609  13.3339  13.4016  13.5066  13.6587  14.3190  14.4210

     occupation numbers 
     1.0000   1.0000   1.0000   1.0000   1.0000   1.0000   1.0000   1.0000
     1.0000   1.0000   1.0000   1.0000   1.0000   1.0000   1.0000   1.0000
     1.0000   1.0000   1.0000   1.0000   1.0000   1.0000   1.0000   1.0000
     1.0000   1.0000   1.0000   1.0000   1.0000   1.0000   1.0000   1.0000
     1.0000   1.0000   1.0000   1.0000   1.0000   1.0000   1.0000   1.0000
     1.0000   1.0000   1.0000   1.0000   0.0000   0.0000   0.0000   0.0000
     0.0000   0.0000   0.0000   0.0000   0.0000   0.0000   0.0000   0.0000
     0.0000   0.0000   0.0000   0.0000   0.0000   0.0000   0.0000   0.0000

          k = 0.3333 0.3216 0.4440 (  4973 PWs)   bands (ev):

   -19.6670 -19.6412 -15.9248 -15.8939 -15.8916 -15.8168 -15.7925 -15.7874
   -15.7789 -15.7537 -15.7012 -15.7002 -11.2842 -10.7091 -10.2808  -9.9648
    -5.4085  -5.3048  -4.9054  -4.8720  -4.8491  -4.7670  -4.5252  -4.4791
    -3.2685  -2.3646   2.4282   2.6183   2.6240   3.3600   3.6988   3.8850
     4.0435   4.5307   4.6164   4.7695   4.8555   4.9359   5.0169   5.0858
     5.2391   5.2631   5.6763   5.7559   9.7143   9.9127  10.0941  10.5447
    10.8766  11.2119  11.6048  11.7610  12.0137  12.2466  12.2906  12.4948
    12.6488  12.8203  13.0332  13.1920  13.8183  14.0136  14.1678  14.3437

     occupation numbers 
     1.0000   1.0000   1.0000   1.0000   1.0000   1.0000   1.0000   1.0000
     1.0000   1.0000   1.0000   1.0000   1.0000   1.0000   1.0000   1.0000
     1.0000   1.0000   1.0000   1.0000   1.0000   1.0000   1.0000   1.0000
     1.0000   1.0000   1.0000   1.0000   1.0000   1.0000   1.0000   1.0000
     1.0000   1.0000   1.0000   1.0000   1.0000   1.0000   1.0000   1.0000
     1.0000   1.0000   1.0000   1.0000   0.0000   0.0000   0.0000   0.0000
     0.0000   0.0000   0.0000   0.0000   0.0000   0.0000   0.0000   0.0000
     0.0000   0.0000   0.0000   0.0000   0.0000   0.0000   0.0000   0.0000

          k = 0.3333 0.7849 0.0000 (  5002 PWs)   bands (ev):

   -19.6799 -19.6288 -15.9414 -15.9223 -15.8797 -15.7976 -15.7937 -15.7898
   -15.7466 -15.7392 -15.7211 -15.7037 -11.5394 -10.4265 -10.3734  -9.7885
    -5.4834  -5.1714  -4.9573  -4.8590  -4.8006  -4.7968  -4.5865  -4.5661
    -3.6880  -1.9812   1.8532   2.8419   3.0900   3.1103   3.6732   4.3610
     4.3622   4.5112   4.6194   4.7732   4.8126   4.9281   4.9991   5.0525
     5.1554   5.2042   5.4613   5.9032   9.2635   9.5320   9.5874  10.1565
    10.9776  11.2942  11.4246  11.5387  11.8378  12.2671  12.6694  12.7986
    12.8782  13.0962  13.1058  13.5309  13.6970  13.9786  14.4714  14.8491

     occupation numbers 
     1.0000   1.0000   1.0000   1.0000   1.0000   1.0000   1.0000   1.0000
     1.0000   1.0000   1.0000   1.0000   1.0000   1.0000   1.0000   1.0000
     1.0000   1.0000   1.0000   1.0000   1.0000   1.0000   1.0000   1.0000
     1.0000   1.0000   1.0000   1.0000   1.0000   1.0000   1.0000   1.0000
     1.0000   1.0000   1.0000   1.0000   1.0000   1.0000   1.0000   1.0000
     1.0000   1.0000   1.0000   1.0000   0.0000   0.0000   0.0000   0.0000
     0.0000   0.0000   0.0000   0.0000   0.0000   0.0000   0.0000   0.0000
     0.0000   0.0000   0.0000   0.0000   0.0000   0.0000   0.0000   0.0000

          k = 0.3333 0.7849 0.4440 (  4978 PWs)   bands (ev):

   -19.6669 -19.6413 -15.9248 -15.8939 -15.8916 -15.8168 -15.7925 -15.7874
   -15.7789 -15.7537 -15.7012 -15.7002 -11.2845 -10.7090 -10.2809  -9.9651
    -5.4228  -5.2973  -4.8961  -4.8721  -4.8572  -4.7826  -4.4913  -4.4836
    -3.2489  -2.3963   2.3982   2.6646   2.6853   3.2807   3.7016   3.8105
     4.3239   4.4537   4.6374   4.6560   4.8292   4.9347   4.9467   5.0850
     5.2647   5.3112   5.6304   5.7137   9.8496   9.9544  10.1636  10.2684
    11.0867  11.1149  11.2599  11.8592  12.1106  12.2150  12.3031  12.5117
    12.6541  12.8992  13.1109  13.2803  13.5556  13.8839  14.2614  14.7246

     occupation numbers 
     1.0000   1.0000   1.0000   1.0000   1.0000   1.0000   1.0000   1.0000
     1.0000   1.0000   1.0000   1.0000   1.0000   1.0000   1.0000   1.0000
     1.0000   1.0000   1.0000   1.0000   1.0000   1.0000   1.0000   1.0000
     1.0000   1.0000   1.0000   1.0000   1.0000   1.0000   1.0000   1.0000
     1.0000   1.0000   1.0000   1.0000   1.0000   1.0000   1.0000   1.0000
     1.0000   1.0000   1.0000   1.0000   0.0000   0.0000   0.0000   0.0000
     0.0000   0.0000   0.0000   0.0000   0.0000   0.0000   0.0000   0.0000
     0.0000   0.0000   0.0000   0.0000   0.0000   0.0000   0.0000   0.0000

          k = 0.3333-0.1416 0.0000 (  4980 PWs)   bands (ev):

   -19.6805 -19.6289 -15.9401 -15.9228 -15.8812 -15.7976 -15.7935 -15.7901
   -15.7466 -15.7391 -15.7211 -15.7036 -11.4928 -10.4741 -10.4615  -9.6743
    -5.5831  -5.0091  -4.9425  -4.8765  -4.8628  -4.8430  -4.5918  -4.5820
    -3.6645  -1.9317   1.9055   2.7239   2.8786   3.1871   3.5470   4.0350
     4.3007   4.6122   4.6477   4.7585   4.9305   5.1614   5.2038   5.2188
     5.3389   5.4975   5.5602   5.6108   8.9273   9.4021   9.6320  10.4803
    10.6523  11.0961  11.1576  11.3592  11.4099  11.9955  12.5051  12.5423
    13.0403  13.0671  13.0921  13.6358  13.6383  13.8226  14.7836  15.4717

     occupation numbers 
     1.0000   1.0000   1.0000   1.0000   1.0000   1.0000   1.0000   1.0000
     1.0000   1.0000   1.0000   1.0000   1.0000   1.0000   1.0000   1.0000
     1.0000   1.0000   1.0000   1.0000   1.0000   1.0000   1.0000   1.0000
     1.0000   1.0000   1.0000   1.0000   1.0000   1.0000   1.0000   1.0000
     1.0000   1.0000   1.0000   1.0000   1.0000   1.0000   1.0000   1.0000
     1.0000   1.0000   1.0000   1.0000   0.0000   0.0000   0.0000   0.0000
     0.0000   0.0000   0.0000   0.0000   0.0000   0.0000   0.0000   0.0000
     0.0000   0.0000   0.0000   0.0000   0.0000   0.0000   0.0000   0.0000

          k = 0.3333-0.1416 0.4440 (  4992 PWs)   bands (ev):

   -19.6672 -19.6414 -15.9253 -15.8956 -15.8918 -15.8167 -15.7925 -15.7874
   -15.7789 -15.7538 -15.7012 -15.7002 -11.2652 -10.7559 -10.2888  -9.8910
    -5.4736  -5.2611  -4.9455  -4.8621  -4.8434  -4.6696  -4.6233  -4.5494
    -3.2317  -2.3794   2.5084   2.6318   2.7834   3.3416   3.8478   4.0758
     4.2041   4.4301   4.5707   4.6156   4.7539   4.8890   5.0518   5.1549
     5.1740   5.2834   5.3214   5.5841   9.7053   9.8173  10.1440  10.4457
    10.8960  10.9490  11.2589  11.6227  11.9577  12.2563  12.4745  12.7902
    12.9643  13.0262  13.2384  13.4818  13.6324  13.6459  14.3468  14.8720

     occupation numbers 
     1.0000   1.0000   1.0000   1.0000   1.0000   1.0000   1.0000   1.0000
     1.0000   1.0000   1.0000   1.0000   1.0000   1.0000   1.0000   1.0000
     1.0000   1.0000   1.0000   1.0000   1.0000   1.0000   1.0000   1.0000
     1.0000   1.0000   1.0000   1.0000   1.0000   1.0000   1.0000   1.0000
     1.0000   1.0000   1.0000   1.0000   1.0000   1.0000   1.0000   1.0000
     1.0000   1.0000   1.0000   1.0000   0.0000   0.0000   0.0000   0.0000
     0.0000   0.0000   0.0000   0.0000   0.0000   0.0000   0.0000   0.0000
     0.0000   0.0000   0.0000   0.0000   0.0000   0.0000   0.0000   0.0000

     highest occupied, lowest unoccupied level (ev):     5.9032    8.9273

!    total energy              =   -2167.91322896 Ry
     estimated scf accuracy    <       0.00000004 Ry

     The total energy is the sum of the following terms:
     one-electron contribution =    -315.95022265 Ry
     hartree contribution      =     208.14558634 Ry
     xc contribution           =    -283.22462769 Ry
     ewald contribution        =    -347.80283429 Ry
     one-center paw contrib.   =   -1429.08113066 Ry
      -> PAW hartree energy AE =      57.36664977 Ry
      -> PAW hartree energy PS =     -57.14360268 Ry
      -> PAW xc energy AE      =    -788.44811086 Ry
      -> PAW xc energy PS      =      38.31433388 Ry
      -> total E_H with PAW    =     208.36863343 Ry
      -> total E_XC with PAW   =   -1033.35840467 Ry

     convergence has been achieved in  13 iterations

     Writing all to output data dir calculations_bands_val/myprefix.save/
 
     init_run     :      8.50s CPU      2.56s WALL (       1 calls)
     electrons    :     52.52s CPU     14.01s WALL (       1 calls)

     Called by init_run:
     wfcinit      :      1.91s CPU      0.50s WALL (       1 calls)
     wfcinit:atom :      0.01s CPU      0.00s WALL (       5 calls)
     wfcinit:wfcr :      1.88s CPU      0.49s WALL (       5 calls)
     potinit      :      2.46s CPU      0.65s WALL (       1 calls)
     hinit0       :      3.49s CPU      1.21s WALL (       1 calls)

     Called by electrons:
     c_bands      :     30.50s CPU      7.98s WALL (      13 calls)
     sum_band     :      8.38s CPU      2.38s WALL (      13 calls)
     v_of_rho     :      1.44s CPU      0.38s WALL (      14 calls)
     v_h          :      0.10s CPU      0.03s WALL (      14 calls)
     v_xc         :      1.34s CPU      0.36s WALL (      14 calls)
     newd         :      2.80s CPU      0.81s WALL (      14 calls)
     PAW_pot      :      9.78s CPU      2.56s WALL (      14 calls)
     mix_rho      :      0.32s CPU      0.09s WALL (      13 calls)

     Called by c_bands:
     init_us_2    :      0.24s CPU      0.06s WALL (     135 calls)
     init_us_2:cp :      0.23s CPU      0.06s WALL (     135 calls)
     cegterg      :     28.15s CPU      7.37s WALL (      65 calls)

     Called by sum_band:
     sum_band:wei :      0.03s CPU      0.01s WALL (      13 calls)
     sum_band:loo :      4.67s CPU      1.20s WALL (      13 calls)
     sum_band:buf :      0.07s CPU      0.02s WALL (      65 calls)
     sum_band:ini :      0.11s CPU      0.03s WALL (      65 calls)
     sum_band:cal :      0.18s CPU      0.05s WALL (      65 calls)
     sum_band:bec :      0.04s CPU      0.01s WALL (      65 calls)
     addusdens    :      2.80s CPU      0.94s WALL (      13 calls)
     addusd:skk   :      0.01s CPU      0.00s WALL (      52 calls)
     addusd:dgemm :      0.65s CPU      0.39s WALL (      52 calls)
     addusd:qvan2 :      1.99s CPU      0.50s WALL (      52 calls)

     Called by *egterg:
     cdiaghg      :      4.05s CPU      1.07s WALL (     237 calls)
     cegterg:over :      0.89s CPU      0.23s WALL (     172 calls)
     cegterg:upda :      0.55s CPU      0.14s WALL (     172 calls)
     cegterg:last :      0.78s CPU      0.20s WALL (     105 calls)
     cdiaghg:chol :      0.29s CPU      0.08s WALL (     237 calls)
     cdiaghg:inve :      0.06s CPU      0.02s WALL (     237 calls)
     cdiaghg:para :      0.68s CPU      0.18s WALL (     474 calls)
     h_psi        :     22.51s CPU      5.89s WALL (     242 calls)
     s_psi        :      0.41s CPU      0.11s WALL (     242 calls)
     g_psi        :      0.04s CPU      0.01s WALL (     172 calls)

     Called by h_psi:
     h_psi:calbec :      0.60s CPU      0.16s WALL (     242 calls)
     vloc_psi     :     21.35s CPU      5.58s WALL (     242 calls)
     add_vuspsi   :      0.49s CPU      0.13s WALL (     242 calls)

     General routines
     calbec       :      0.77s CPU      0.20s WALL (     307 calls)
     fft          :      1.82s CPU      0.48s WALL (     180 calls)
     ffts         :      0.84s CPU      0.22s WALL (      27 calls)
     fftw         :     21.56s CPU      5.65s WALL (   23742 calls)
     interpolate  :      0.92s CPU      0.25s WALL (      14 calls)
 
     Parallel routines

     PAW routines
     PAW_pot      :      9.78s CPU      2.56s WALL (      14 calls)
     PAW_symme    :      0.03s CPU      0.01s WALL (      27 calls)
 
     PWSCF        :   1m 2.31s CPU     17.35s WALL

 
   This run was terminated on:  12:54:25   4Jun2023            

=------------------------------------------------------------------------------=
   JOB DONE.
=------------------------------------------------------------------------------=
