
     Program PWSCF v.7.0 starts on  4Jun2023 at 11:34:16 

     This program is part of the open-source Quantum ESPRESSO suite
     for quantum simulation of materials; please cite
         "P. Giannozzi et al., J. Phys.:Condens. Matter 21 395502 (2009);
         "P. Giannozzi et al., J. Phys.:Condens. Matter 29 465901 (2017);
         "P. Giannozzi et al., J. Chem. Phys. 152 154105 (2020);
          URL http://www.quantum-espresso.org", 
     in publications or presentations arising from this work. More details at
     http://www.quantum-espresso.org/quote

     Parallel version (MPI & OpenMP), running on      32 processor cores
     Number of MPI processes:                 8
     Threads/MPI process:                     4

     MPI processes distributed on     1 nodes
     K-points division:     npool     =       2
     R & G space division:  proc/nbgrp/npool/nimage =       4
     144186 MiB available memory on the printing compute node when the environment starts
 
     Reading input from espresso_246.pwi
Warning: card &CELL ignored
Warning: card / ignored

     Current dimensions of program PWSCF are:
     Max number of different atomic species (ntypx) = 10
     Max number of k-points (npk) =  40000
     Max angular momentum in pseudopotentials (lmaxx) =  4
     file Mg.pbe-n-kjpaw_psl.0.3.0.UPF: wavefunction(s)  3S renormalized

     Subspace diagonalization in iterative solution of the eigenvalue problem:
     one sub-group per band group will be used
     scalapack distributed-memory algorithm (size of sub-group:  2*  2 procs)

 
     Parallelization info
     --------------------
     sticks:   dense  smooth     PW     G-vecs:    dense   smooth      PW
     Min         419     209     65                20308     7170    1245
     Max         420     211     66                20311     7172    1246
     Sum        1679     839    263                81237    28683    4983
 
     Using Slab Decomposition
 


     bravais-lattice index     =            0
     lattice parameter (alat)  =      13.4060  a.u.
     unit-cell volume          =    1292.7782 (a.u.)^3
     number of atoms/cell      =            6
     number of atomic types    =            2
     number of electrons       =        36.00
     number of Kohn-Sham states=           64
     kinetic-energy cutoff     =      30.0000  Ry
     charge density cutoff     =     240.0000  Ry
     scf convergence threshold =      1.0E-06
     mixing beta               =       0.7000
     number of iterations used =            8  plain     mixing
     Exchange-correlation= SLA  PW   PBX  PBC
                           (   1   4   3   4   0   0   0)

     celldm(1)=  13.405983  celldm(2)=   0.000000  celldm(3)=   0.000000
     celldm(4)=   0.000000  celldm(5)=   0.000000  celldm(6)=   0.000000

     crystal axes: (cart. coord. in units of alat)
               a(1) = (   1.000000   0.000000   0.000000 )  
               a(2) = (   0.872391   0.488808   0.000000 )  
               a(3) = (   0.278625   0.072738   1.097715 )  

     reciprocal axes: (cart. coord. in units 2 pi/alat)
               b(1) = (  1.000000 -1.784732 -0.135561 )  
               b(2) = (  0.000000  2.045792 -0.135561 )  
               b(3) = (  0.000000  0.000000  0.910983 )  


     PseudoPot. # 1 for Ca read from file:
     /home/pragov/projects/rrg-bengioy-ad/pragov/crystal_structure_design/SSSP/Ca_pbe_v1.uspp.F.UPF
     MD5 check sum: 403a4c14b9e4d4dfdc3024c9a3812218
     Pseudo is Ultrasoft + core correction, Zval = 10.0
     Generated by new atomic code, or converted to UPF format
     Using radial grid of  845 points,  6 beta functions with: 
                l(1) =   0
                l(2) =   0
                l(3) =   1
                l(4) =   1
                l(5) =   2
                l(6) =   2
     Q(r) pseudized with  8 coefficients,  rinner =    1.500   1.500   1.500
                                                       1.500   1.500

     PseudoPot. # 2 for Mg read from file:
     /home/pragov/projects/rrg-bengioy-ad/pragov/crystal_structure_design/SSSP/Mg.pbe-n-kjpaw_psl.0.3.0.UPF
     MD5 check sum: 24ecedc7f3e3cbe212e682f4413594e4
     Pseudo is Projector augmented-wave + core cor, Zval =  2.0
     Generated using "atomic" code by A. Dal Corso  v.5.0.99 svn rev. 10869
     Shape of augmentation charge: PSQ
     Using radial grid of 1129 points,  4 beta functions with: 
                l(1) =   0
                l(2) =   0
                l(3) =   1
                l(4) =   1
     Q(r) pseudized with 0 coefficients 


     atomic species   valence    mass     pseudopotential
        Ca            10.00    40.07800     Ca( 1.00)
        Mg             2.00    24.30500     Mg( 1.00)

     No symmetry found


                                    s                        frac. trans.

      isym =  1     identity                                     

 cryst.   s( 1) = (     1          0          0      )
                  (     0          1          0      )
                  (     0          0          1      )

 cart.    s( 1) = (  1.0000000 -0.0000000 -0.0000000 )
                  (  0.0000000  1.0000000 -0.0000000 )
                  (  0.0000000  0.0000000  1.0000000 )


   Cartesian axes

     site n.     atom                  positions (alat units)
         1           Ca  tau(   1) = (   1.2055369   0.3147185   0.3033601  )
         2           Ca  tau(   2) = (   0.7260308   0.1895383   0.3952312  )
         3           Ca  tau(   3) = (   0.7933059   0.2071011   1.0008187  )
         4           Mg  tau(   4) = (   2.1483530   0.5608510   1.0882089  )
         5           Mg  tau(   5) = (   1.9672391   0.5135692   0.6756810  )
         6           Mg  tau(   6) = (   1.4050965   0.3668157   0.7446087  )

   Crystallographic axes

     site n.     atom                  positions (cryst. coord.)
         1           Ca  tau(   1) = (  0.6027250  0.6027250  0.2763560  )
         2           Ca  tau(   2) = (  0.3341780  0.3341780  0.3600490  )
         3           Ca  tau(   3) = (  0.2880140  0.2880140  0.9117290  )
         4           Mg  tau(   4) = (  0.9998660  0.9998660  0.9913400  )
         5           Mg  tau(   5) = (  0.9590600  0.9590600  0.6155340  )
         6           Mg  tau(   6) = (  0.6494890  0.6494890  0.6783260  )

     number of k points=    14
                       cart. coord. in units 2pi/alat
        k(    1) = (   0.0000000   0.0000000   0.0000000), wk =   0.0740741
        k(    2) = (   0.0000000   0.0000000   0.3036611), wk =   0.1481481
        k(    3) = (   0.0000000   0.6819308  -0.0451870), wk =   0.1481481
        k(    4) = (   0.0000000   0.6819308   0.2584741), wk =   0.1481481
        k(    5) = (   0.0000000   0.6819308  -0.3488481), wk =   0.1481481
        k(    6) = (   0.3333333  -0.5949105  -0.0451870), wk =   0.1481481
        k(    7) = (   0.3333333  -0.5949105   0.2584741), wk =   0.1481481
        k(    8) = (   0.3333333  -0.5949105  -0.3488481), wk =   0.1481481
        k(    9) = (   0.3333333   0.0870203  -0.0903740), wk =   0.1481481
        k(   10) = (   0.3333333   0.0870203   0.2132871), wk =   0.1481481
        k(   11) = (   0.3333333   0.0870203  -0.3940350), wk =   0.1481481
        k(   12) = (   0.3333333  -1.2768413   0.0000000), wk =   0.1481481
        k(   13) = (   0.3333333  -1.2768413   0.3036611), wk =   0.1481481
        k(   14) = (   0.3333333  -1.2768413  -0.3036611), wk =   0.1481481

                       cryst. coord.
        k(    1) = (   0.0000000   0.0000000   0.0000000), wk =   0.0740741
        k(    2) = (   0.0000000   0.0000000   0.3333333), wk =   0.1481481
        k(    3) = (   0.0000000   0.3333333  -0.0000000), wk =   0.1481481
        k(    4) = (   0.0000000   0.3333333   0.3333333), wk =   0.1481481
        k(    5) = (   0.0000000   0.3333333  -0.3333333), wk =   0.1481481
        k(    6) = (   0.3333333  -0.0000000  -0.0000000), wk =   0.1481481
        k(    7) = (   0.3333333  -0.0000000   0.3333333), wk =   0.1481481
        k(    8) = (   0.3333333  -0.0000000  -0.3333333), wk =   0.1481481
        k(    9) = (   0.3333333   0.3333333  -0.0000000), wk =   0.1481481
        k(   10) = (   0.3333333   0.3333333   0.3333333), wk =   0.1481481
        k(   11) = (   0.3333333   0.3333333  -0.3333333), wk =   0.1481481
        k(   12) = (   0.3333333  -0.3333333   0.0000000), wk =   0.1481481
        k(   13) = (   0.3333333  -0.3333333   0.3333333), wk =   0.1481481
        k(   14) = (   0.3333333  -0.3333333  -0.3333333), wk =   0.1481481

     Dense  grid:    81237 G-vectors     FFT dimensions: (  72,  72,  75)

     Smooth grid:    28683 G-vectors     FFT dimensions: (  48,  48,  54)

     Dynamical RAM for                 wfc:       0.88 MB

     Dynamical RAM for     wfc (w. buffer):       7.00 MB

     Dynamical RAM for           str. fact:       0.62 MB

     Dynamical RAM for           local pot:       0.00 MB

     Dynamical RAM for          nlocal pot:       1.07 MB

     Dynamical RAM for                qrad:       2.49 MB

     Dynamical RAM for          rho,v,vnew:       3.18 MB

     Dynamical RAM for               rhoin:       1.06 MB

     Dynamical RAM for            rho*nmix:       4.96 MB

     Dynamical RAM for           G-vectors:       1.22 MB

     Dynamical RAM for          h,s,v(r/c):       0.19 MB

     Dynamical RAM for          <psi|beta>:       0.08 MB

     Dynamical RAM for                 psi:       1.75 MB

     Dynamical RAM for                hpsi:       1.75 MB

     Dynamical RAM for                spsi:       1.75 MB

     Dynamical RAM for      wfcinit/wfcrot:       1.84 MB

     Dynamical RAM for           addusdens:      29.44 MB

     Estimated static dynamical RAM per process >      21.32 MB

     Estimated max dynamical RAM per process >      55.72 MB

     Estimated total dynamical RAM >     425.92 MB

     Initial potential from superposition of free atoms

     starting charge      35.9809, renormalised to      36.0000
     Starting wfcs are   42 randomized atomic wfcs +   22 random wfcs
     Checking if some PAW data can be deallocated... 
       PAW data deallocated on    5 nodes for type:  2

     total cpu time spent up to now is        2.0 secs

     Self-consistent Calculation

     iteration #  1     ecut=    30.00 Ry     beta= 0.70
     Davidson diagonalization with overlap

---- Real-time Memory Report at c_bands before calling an iterative solver
           178 MiB given to the printing process from OS
             0 MiB allocation reported by mallinfo(arena+hblkhd)
        143539 MiB available memory on the node where the printing process lives
------------------
     ethr =  1.00E-02,  avg # of iterations =  6.4

     Threshold (ethr) on eigenvalues was too large:
     Diagonalizing with lowered threshold

     Davidson diagonalization with overlap

---- Real-time Memory Report at c_bands before calling an iterative solver
           218 MiB given to the printing process from OS
             0 MiB allocation reported by mallinfo(arena+hblkhd)
        143464 MiB available memory on the node where the printing process lives
------------------
     ethr =  3.34E-04,  avg # of iterations =  1.6

     total cpu time spent up to now is        4.4 secs

     total energy              =    -325.53124232 Ry
     estimated scf accuracy    <       0.12027727 Ry

     iteration #  2     ecut=    30.00 Ry     beta= 0.70
     Davidson diagonalization with overlap

---- Real-time Memory Report at c_bands before calling an iterative solver
           223 MiB given to the printing process from OS
             0 MiB allocation reported by mallinfo(arena+hblkhd)
        143395 MiB available memory on the node where the printing process lives
------------------
     ethr =  3.34E-04,  avg # of iterations =  4.4

     total cpu time spent up to now is        5.5 secs

     total energy              =    -325.48198426 Ry
     estimated scf accuracy    <       1.01481595 Ry

     iteration #  3     ecut=    30.00 Ry     beta= 0.70
     Davidson diagonalization with overlap

---- Real-time Memory Report at c_bands before calling an iterative solver
           232 MiB given to the printing process from OS
             0 MiB allocation reported by mallinfo(arena+hblkhd)
        143358 MiB available memory on the node where the printing process lives
------------------
     ethr =  3.34E-04,  avg # of iterations =  2.4

     total cpu time spent up to now is        6.5 secs

     total energy              =    -325.59408023 Ry
     estimated scf accuracy    <       0.03284563 Ry

     iteration #  4     ecut=    30.00 Ry     beta= 0.70
     Davidson diagonalization with overlap

---- Real-time Memory Report at c_bands before calling an iterative solver
           233 MiB given to the printing process from OS
             0 MiB allocation reported by mallinfo(arena+hblkhd)
        143353 MiB available memory on the node where the printing process lives
------------------
     ethr =  9.12E-05,  avg # of iterations =  2.1

     total cpu time spent up to now is        7.4 secs

     total energy              =    -325.59997402 Ry
     estimated scf accuracy    <       0.01177590 Ry

     iteration #  5     ecut=    30.00 Ry     beta= 0.70
     Davidson diagonalization with overlap

---- Real-time Memory Report at c_bands before calling an iterative solver
           235 MiB given to the printing process from OS
             0 MiB allocation reported by mallinfo(arena+hblkhd)
        143320 MiB available memory on the node where the printing process lives
------------------
     ethr =  3.27E-05,  avg # of iterations =  3.1

     total cpu time spent up to now is        8.3 secs

     total energy              =    -325.60069945 Ry
     estimated scf accuracy    <       0.00614981 Ry

     iteration #  6     ecut=    30.00 Ry     beta= 0.70
     Davidson diagonalization with overlap

---- Real-time Memory Report at c_bands before calling an iterative solver
           235 MiB given to the printing process from OS
             0 MiB allocation reported by mallinfo(arena+hblkhd)
        143322 MiB available memory on the node where the printing process lives
------------------
     ethr =  1.71E-05,  avg # of iterations =  3.7

     total cpu time spent up to now is        9.3 secs

     total energy              =    -325.60157318 Ry
     estimated scf accuracy    <       0.00170685 Ry

     iteration #  7     ecut=    30.00 Ry     beta= 0.70
     Davidson diagonalization with overlap

---- Real-time Memory Report at c_bands before calling an iterative solver
           235 MiB given to the printing process from OS
             0 MiB allocation reported by mallinfo(arena+hblkhd)
        143320 MiB available memory on the node where the printing process lives
------------------
     ethr =  4.74E-06,  avg # of iterations =  5.9

     total cpu time spent up to now is       10.3 secs

     total energy              =    -325.60182681 Ry
     estimated scf accuracy    <       0.00038052 Ry

     iteration #  8     ecut=    30.00 Ry     beta= 0.70
     Davidson diagonalization with overlap

---- Real-time Memory Report at c_bands before calling an iterative solver
           238 MiB given to the printing process from OS
             0 MiB allocation reported by mallinfo(arena+hblkhd)
        143320 MiB available memory on the node where the printing process lives
------------------
     ethr =  1.06E-06,  avg # of iterations =  4.4

     total cpu time spent up to now is       11.3 secs

     total energy              =    -325.60192484 Ry
     estimated scf accuracy    <       0.00002650 Ry

     iteration #  9     ecut=    30.00 Ry     beta= 0.70
     Davidson diagonalization with overlap

---- Real-time Memory Report at c_bands before calling an iterative solver
           238 MiB given to the printing process from OS
             0 MiB allocation reported by mallinfo(arena+hblkhd)
        143316 MiB available memory on the node where the printing process lives
------------------
     ethr =  7.36E-08,  avg # of iterations =  3.4

     total cpu time spent up to now is       12.2 secs

     total energy              =    -325.60193450 Ry
     estimated scf accuracy    <       0.00000474 Ry

     iteration # 10     ecut=    30.00 Ry     beta= 0.70
     Davidson diagonalization with overlap

---- Real-time Memory Report at c_bands before calling an iterative solver
           238 MiB given to the printing process from OS
             0 MiB allocation reported by mallinfo(arena+hblkhd)
        143314 MiB available memory on the node where the printing process lives
------------------
     ethr =  1.32E-08,  avg # of iterations =  2.1

     total cpu time spent up to now is       13.1 secs

     End of self-consistent calculation

          k = 0.0000 0.0000 0.0000 (  3609 PWs)   bands (ev):

   -37.2192 -37.1068 -37.0836 -18.2675 -18.2218 -18.1464 -18.1329 -18.1001
   -18.0822 -18.0598 -18.0395 -18.0051  -0.7838   1.6729   1.9752   2.5257
     2.8197   3.6918   4.0192   5.5103   5.6860   5.8070   6.3234   6.4717
     7.3869   7.5424   7.7705   7.9151   7.9973   8.2948   8.3705   8.4729
     8.7035   8.8043   9.7088  10.0114  10.3093  10.9186  11.2394  11.4039
    11.7173  12.1674  12.5078  12.8618  13.2113  13.3498  13.7916  13.8593
    14.2860  14.2879  15.2278  15.4920  15.5971  15.9807  16.3473  16.4990
    16.5715  16.8640  17.3577  17.8080  17.9494  18.0000  18.8223  19.0136

     occupation numbers 
     1.0000   1.0000   1.0000   1.0000   1.0000   1.0000   1.0000   1.0000
     1.0000   1.0000   1.0000   1.0000   1.0000   1.0000   1.0000   1.0000
     1.0000   1.0000   0.0000   0.0000   0.0000   0.0000   0.0000   0.0000
     0.0000   0.0000   0.0000   0.0000   0.0000   0.0000   0.0000   0.0000
     0.0000   0.0000   0.0000   0.0000   0.0000   0.0000   0.0000   0.0000
     0.0000   0.0000   0.0000   0.0000   0.0000   0.0000   0.0000   0.0000
     0.0000   0.0000   0.0000   0.0000   0.0000   0.0000   0.0000   0.0000
     0.0000   0.0000   0.0000   0.0000   0.0000   0.0000   0.0000   0.0000

          k = 0.0000 0.0000 0.3037 (  3581 PWs)   bands (ev):

   -37.2192 -37.1068 -37.0836 -18.2675 -18.2170 -18.1464 -18.1359 -18.1020
   -18.0824 -18.0597 -18.0396 -18.0051  -0.5576   0.6029   2.4280   2.7585
     3.3951   3.7940   4.3816   4.8999   5.2684   5.7210   6.3313   6.4728
     7.5926   7.7140   7.7850   7.8819   8.0811   8.1894   8.2780   8.4157
     8.6882   8.8511   9.3310   9.7362  10.1317  11.0242  11.3140  11.4345
    11.9611  12.3766  12.7328  12.8536  12.9771  13.3607  14.2148  14.3565
    14.5082  14.5880  15.0106  15.5528  15.5585  15.7973  16.2351  16.6428
    16.8234  16.9430  17.5467  17.6530  17.8900  18.0932  18.2778  18.3109

     occupation numbers 
     1.0000   1.0000   1.0000   1.0000   1.0000   1.0000   1.0000   1.0000
     1.0000   1.0000   1.0000   1.0000   1.0000   1.0000   1.0000   1.0000
     1.0000   1.0000   0.0000   0.0000   0.0000   0.0000   0.0000   0.0000
     0.0000   0.0000   0.0000   0.0000   0.0000   0.0000   0.0000   0.0000
     0.0000   0.0000   0.0000   0.0000   0.0000   0.0000   0.0000   0.0000
     0.0000   0.0000   0.0000   0.0000   0.0000   0.0000   0.0000   0.0000
     0.0000   0.0000   0.0000   0.0000   0.0000   0.0000   0.0000   0.0000
     0.0000   0.0000   0.0000   0.0000   0.0000   0.0000   0.0000   0.0000

          k = 0.0000 0.6819-0.0452 (  3596 PWs)   bands (ev):

   -37.2084 -37.0958 -37.0733 -18.2787 -18.2379 -18.2060 -18.1738 -18.1419
   -18.1013 -18.0840 -18.0808 -18.0579   0.6265   2.6436   2.8931   3.4562
     4.0802   4.3405   4.5797   4.8425   5.4515   5.5252   5.7129   6.4534
     6.7337   6.9129   7.1892   7.3095   7.4273   7.8497   8.0445   8.4605
     8.6490   8.8431   8.9969   9.2942   9.6080   9.8030  10.3894  10.8436
    10.9753  11.3834  11.6208  11.9890  12.2665  12.4363  13.0268  13.3433
    13.5642  13.9852  14.5046  14.7763  15.3147  15.6086  15.9927  16.3614
    16.8832  17.1961  17.7478  17.9445  18.4397  18.6127  18.9266  19.2990

     occupation numbers 
     1.0000   1.0000   1.0000   1.0000   1.0000   1.0000   1.0000   1.0000
     1.0000   1.0000   1.0000   1.0000   1.0000   1.0000   1.0000   1.0000
     1.0000   1.0000   0.0000   0.0000   0.0000   0.0000   0.0000   0.0000
     0.0000   0.0000   0.0000   0.0000   0.0000   0.0000   0.0000   0.0000
     0.0000   0.0000   0.0000   0.0000   0.0000   0.0000   0.0000   0.0000
     0.0000   0.0000   0.0000   0.0000   0.0000   0.0000   0.0000   0.0000
     0.0000   0.0000   0.0000   0.0000   0.0000   0.0000   0.0000   0.0000
     0.0000   0.0000   0.0000   0.0000   0.0000   0.0000   0.0000   0.0000

          k = 0.0000 0.6819 0.2585 (  3596 PWs)   bands (ev):

   -37.2084 -37.0958 -37.0733 -18.2786 -18.2379 -18.2019 -18.1739 -18.1429
   -18.1038 -18.0849 -18.0807 -18.0578   0.7638   2.0492   2.9748   3.7275
     4.3413   4.4182   4.5637   5.0672   5.3330   5.5070   5.7538   6.2535
     6.4878   6.7623   7.2238   7.3057   7.5329   7.7498   8.1456   8.4481
     8.7047   8.8705   8.9938   9.5292   9.7374   9.8888  10.3943  10.4841
    10.8831  11.1363  11.4875  11.7090  12.0871  12.5941  12.8445  13.4594
    13.9796  14.3397  14.6635  15.0675  15.5078  15.8913  16.2766  16.5355
    16.7056  17.0578  17.6750  17.8869  18.0727  18.4648  18.8810  19.2987

     occupation numbers 
     1.0000   1.0000   1.0000   1.0000   1.0000   1.0000   1.0000   1.0000
     1.0000   1.0000   1.0000   1.0000   1.0000   1.0000   1.0000   1.0000
     1.0000   1.0000   0.0000   0.0000   0.0000   0.0000   0.0000   0.0000
     0.0000   0.0000   0.0000   0.0000   0.0000   0.0000   0.0000   0.0000
     0.0000   0.0000   0.0000   0.0000   0.0000   0.0000   0.0000   0.0000
     0.0000   0.0000   0.0000   0.0000   0.0000   0.0000   0.0000   0.0000
     0.0000   0.0000   0.0000   0.0000   0.0000   0.0000   0.0000   0.0000
     0.0000   0.0000   0.0000   0.0000   0.0000   0.0000   0.0000   0.0000

          k = 0.0000 0.6819-0.3488 (  3597 PWs)   bands (ev):

   -37.2084 -37.0958 -37.0733 -18.2787 -18.2380 -18.2016 -18.1739 -18.1430
   -18.1038 -18.0849 -18.0808 -18.0578   0.8354   1.8663   2.8242   4.2166
     4.3975   4.4871   4.5493   4.9381   5.3042   5.5874   5.7812   6.1072
     6.3690   6.6653   7.0855   7.3438   7.6161   7.7661   8.1672   8.4989
     8.5578   8.8166   9.1027   9.3541   9.5969   9.9297  10.1919  10.3519
    10.7757  11.5223  11.8659  12.2195  12.4548  12.7187  13.1253  13.5281
    13.8877  14.2164  14.4324  14.5955  15.1540  15.3857  15.8152  16.3438
    16.5871  17.0027  17.5854  17.7922  18.1604  18.8527  19.2475  19.5533

     occupation numbers 
     1.0000   1.0000   1.0000   1.0000   1.0000   1.0000   1.0000   1.0000
     1.0000   1.0000   1.0000   1.0000   1.0000   1.0000   1.0000   1.0000
     1.0000   1.0000   0.0000   0.0000   0.0000   0.0000   0.0000   0.0000
     0.0000   0.0000   0.0000   0.0000   0.0000   0.0000   0.0000   0.0000
     0.0000   0.0000   0.0000   0.0000   0.0000   0.0000   0.0000   0.0000
     0.0000   0.0000   0.0000   0.0000   0.0000   0.0000   0.0000   0.0000
     0.0000   0.0000   0.0000   0.0000   0.0000   0.0000   0.0000   0.0000
     0.0000   0.0000   0.0000   0.0000   0.0000   0.0000   0.0000   0.0000

          k = 0.3333-0.5949-0.0452 (  3596 PWs)   bands (ev):

   -37.2084 -37.0958 -37.0733 -18.2787 -18.2379 -18.2060 -18.1738 -18.1419
   -18.1013 -18.0840 -18.0808 -18.0579   0.6265   2.6436   2.8931   3.4562
     4.0802   4.3405   4.5797   4.8425   5.4515   5.5252   5.7129   6.4534
     6.7337   6.9129   7.1892   7.3095   7.4273   7.8497   8.0445   8.4605
     8.6490   8.8431   8.9969   9.2942   9.6080   9.8030  10.3894  10.8436
    10.9753  11.3834  11.6208  11.9890  12.2665  12.4363  13.0268  13.3433
    13.5642  13.9852  14.5046  14.7763  15.3147  15.6086  15.9927  16.3614
    16.8832  17.1961  17.7478  17.9445  18.4397  18.6127  18.9266  19.2989

     occupation numbers 
     1.0000   1.0000   1.0000   1.0000   1.0000   1.0000   1.0000   1.0000
     1.0000   1.0000   1.0000   1.0000   1.0000   1.0000   1.0000   1.0000
     1.0000   1.0000   0.0000   0.0000   0.0000   0.0000   0.0000   0.0000
     0.0000   0.0000   0.0000   0.0000   0.0000   0.0000   0.0000   0.0000
     0.0000   0.0000   0.0000   0.0000   0.0000   0.0000   0.0000   0.0000
     0.0000   0.0000   0.0000   0.0000   0.0000   0.0000   0.0000   0.0000
     0.0000   0.0000   0.0000   0.0000   0.0000   0.0000   0.0000   0.0000
     0.0000   0.0000   0.0000   0.0000   0.0000   0.0000   0.0000   0.0000

          k = 0.3333-0.5949 0.2585 (  3596 PWs)   bands (ev):

   -37.2084 -37.0958 -37.0733 -18.2786 -18.2379 -18.2019 -18.1739 -18.1429
   -18.1038 -18.0849 -18.0807 -18.0578   0.7638   2.0492   2.9748   3.7275
     4.3413   4.4182   4.5637   5.0672   5.3330   5.5070   5.7538   6.2535
     6.4878   6.7623   7.2238   7.3057   7.5329   7.7498   8.1456   8.4481
     8.7047   8.8705   8.9938   9.5292   9.7374   9.8888  10.3943  10.4841
    10.8831  11.1363  11.4875  11.7090  12.0871  12.5941  12.8444  13.4594
    13.9796  14.3397  14.6635  15.0675  15.5078  15.8913  16.2766  16.5355
    16.7056  17.0578  17.6750  17.8869  18.0727  18.4648  18.8810  19.2986

     occupation numbers 
     1.0000   1.0000   1.0000   1.0000   1.0000   1.0000   1.0000   1.0000
     1.0000   1.0000   1.0000   1.0000   1.0000   1.0000   1.0000   1.0000
     1.0000   1.0000   0.0000   0.0000   0.0000   0.0000   0.0000   0.0000
     0.0000   0.0000   0.0000   0.0000   0.0000   0.0000   0.0000   0.0000
     0.0000   0.0000   0.0000   0.0000   0.0000   0.0000   0.0000   0.0000
     0.0000   0.0000   0.0000   0.0000   0.0000   0.0000   0.0000   0.0000
     0.0000   0.0000   0.0000   0.0000   0.0000   0.0000   0.0000   0.0000
     0.0000   0.0000   0.0000   0.0000   0.0000   0.0000   0.0000   0.0000

          k = 0.3333-0.5949-0.3488 (  3597 PWs)   bands (ev):

   -37.2084 -37.0958 -37.0733 -18.2787 -18.2380 -18.2016 -18.1739 -18.1430
   -18.1038 -18.0849 -18.0808 -18.0578   0.8354   1.8663   2.8242   4.2166
     4.3975   4.4871   4.5493   4.9381   5.3042   5.5874   5.7812   6.1072
     6.3690   6.6653   7.0855   7.3438   7.6161   7.7661   8.1672   8.4989
     8.5578   8.8166   9.1027   9.3541   9.5969   9.9297  10.1919  10.3519
    10.7757  11.5223  11.8659  12.2195  12.4548  12.7187  13.1253  13.5281
    13.8877  14.2164  14.4324  14.5955  15.1540  15.3857  15.8152  16.3438
    16.5871  17.0027  17.5854  17.7922  18.1604  18.8527  19.2475  19.5533

     occupation numbers 
     1.0000   1.0000   1.0000   1.0000   1.0000   1.0000   1.0000   1.0000
     1.0000   1.0000   1.0000   1.0000   1.0000   1.0000   1.0000   1.0000
     1.0000   1.0000   0.0000   0.0000   0.0000   0.0000   0.0000   0.0000
     0.0000   0.0000   0.0000   0.0000   0.0000   0.0000   0.0000   0.0000
     0.0000   0.0000   0.0000   0.0000   0.0000   0.0000   0.0000   0.0000
     0.0000   0.0000   0.0000   0.0000   0.0000   0.0000   0.0000   0.0000
     0.0000   0.0000   0.0000   0.0000   0.0000   0.0000   0.0000   0.0000
     0.0000   0.0000   0.0000   0.0000   0.0000   0.0000   0.0000   0.0000

          k = 0.3333 0.0870-0.0904 (  3571 PWs)   bands (ev):

   -37.2190 -37.1068 -37.0838 -18.2450 -18.2198 -18.1469 -18.1373 -18.1036
   -18.0984 -18.0610 -18.0395 -18.0046  -0.4454   0.9410   1.7107   2.3068
     3.0659   4.1195   4.7016   5.2241   5.6136   6.0873   6.4881   6.7018
     6.9300   7.5725   7.6855   7.8232   8.0230   8.3708   8.4939   8.6338
     8.8528   8.8662   9.4936   9.5529  10.4144  10.5302  10.9650  11.3084
    11.6066  12.2591  12.4612  13.0555  13.0815  13.3273  13.5691  14.1105
    14.1606  14.4931  15.0093  15.0653  15.5113  15.9994  16.0383  16.3337
    16.7566  17.0472  17.5497  17.9837  18.0022  18.7207  19.1983  19.2500

     occupation numbers 
     1.0000   1.0000   1.0000   1.0000   1.0000   1.0000   1.0000   1.0000
     1.0000   1.0000   1.0000   1.0000   1.0000   1.0000   1.0000   1.0000
     1.0000   1.0000   0.0000   0.0000   0.0000   0.0000   0.0000   0.0000
     0.0000   0.0000   0.0000   0.0000   0.0000   0.0000   0.0000   0.0000
     0.0000   0.0000   0.0000   0.0000   0.0000   0.0000   0.0000   0.0000
     0.0000   0.0000   0.0000   0.0000   0.0000   0.0000   0.0000   0.0000
     0.0000   0.0000   0.0000   0.0000   0.0000   0.0000   0.0000   0.0000
     0.0000   0.0000   0.0000   0.0000   0.0000   0.0000   0.0000   0.0000

          k = 0.3333 0.0870 0.2133 (  3572 PWs)   bands (ev):

   -37.2189 -37.1068 -37.0838 -18.2445 -18.2159 -18.1469 -18.1405 -18.1041
   -18.0994 -18.0609 -18.0395 -18.0046  -0.3422   0.9434   1.3701   2.1147
     3.4095   4.5053   4.8744   5.3530   5.7186   5.8019   6.1954   6.4113
     7.2506   7.6188   7.7457   7.8943   8.0406   8.1177   8.3218   8.5151
     8.8089   8.8858   9.2152   9.7143  10.2810  10.6471  10.8987  11.0097
    11.5696  12.1827  12.2688  13.0006  13.3183  13.3891  13.9295  14.5275
    14.7499  15.1591  15.3548  15.6343  15.7642  16.0195  16.0265  16.5538
    16.6538  16.8651  17.1695  17.5602  17.5777  17.9996  18.4197  18.6360

     occupation numbers 
     1.0000   1.0000   1.0000   1.0000   1.0000   1.0000   1.0000   1.0000
     1.0000   1.0000   1.0000   1.0000   1.0000   1.0000   1.0000   1.0000
     1.0000   1.0000   0.0000   0.0000   0.0000   0.0000   0.0000   0.0000
     0.0000   0.0000   0.0000   0.0000   0.0000   0.0000   0.0000   0.0000
     0.0000   0.0000   0.0000   0.0000   0.0000   0.0000   0.0000   0.0000
     0.0000   0.0000   0.0000   0.0000   0.0000   0.0000   0.0000   0.0000
     0.0000   0.0000   0.0000   0.0000   0.0000   0.0000   0.0000   0.0000
     0.0000   0.0000   0.0000   0.0000   0.0000   0.0000   0.0000   0.0000

          k = 0.3333 0.0870-0.3940 (  3558 PWs)   bands (ev):

   -37.2189 -37.1068 -37.0838 -18.2449 -18.2150 -18.1469 -18.1407 -18.1046
   -18.0992 -18.0609 -18.0395 -18.0046  -0.1947   0.6953   1.0466   2.7325
     3.7162   4.3920   4.7199   4.9967   5.2795   6.0603   6.2624   6.5037
     7.3261   7.6100   7.6971   7.8314   8.0685   8.2345   8.3797   8.5442
     8.7115   8.8880   9.0855   9.7767  10.2968  10.8187  11.0026  11.1634
    11.5657  12.3252  12.3636  12.8268  13.4230  13.4445  13.6042  14.1165
    14.6377  14.7382  15.3455  15.6336  15.8427  15.8762  16.2421  16.3688
    16.7181  16.9650  17.0577  17.8464  18.0271  18.2593  18.3339  19.0035

     occupation numbers 
     1.0000   1.0000   1.0000   1.0000   1.0000   1.0000   1.0000   1.0000
     1.0000   1.0000   1.0000   1.0000   1.0000   1.0000   1.0000   1.0000
     1.0000   1.0000   0.0000   0.0000   0.0000   0.0000   0.0000   0.0000
     0.0000   0.0000   0.0000   0.0000   0.0000   0.0000   0.0000   0.0000
     0.0000   0.0000   0.0000   0.0000   0.0000   0.0000   0.0000   0.0000
     0.0000   0.0000   0.0000   0.0000   0.0000   0.0000   0.0000   0.0000
     0.0000   0.0000   0.0000   0.0000   0.0000   0.0000   0.0000   0.0000
     0.0000   0.0000   0.0000   0.0000   0.0000   0.0000   0.0000   0.0000

          k = 0.3333-1.2768 0.0000 (  3580 PWs)   bands (ev):

   -37.2083 -37.0958 -37.0735 -18.2791 -18.2262 -18.2053 -18.1737 -18.1423
   -18.1024 -18.0928 -18.0824 -18.0585   1.0005   1.8724   2.8071   3.4247
     4.0745   4.2239   4.5473   5.4935   5.5611   5.8095   6.1411   6.4180
     6.6677   6.7394   7.0888   7.1635   7.2780   7.9253   8.1533   8.2715
     8.5376   8.8975   9.2480   9.6797   9.8123   9.9363  10.1964  10.4652
    10.8884  11.0583  11.5095  11.6062  11.9514  12.3191  12.9756  13.2601
    13.9684  14.1879  14.6075  14.7016  14.9564  15.0254  15.8208  16.3583
    16.9041  17.5447  17.7489  18.3433  19.1424  19.1828  19.6669  19.9782

     occupation numbers 
     1.0000   1.0000   1.0000   1.0000   1.0000   1.0000   1.0000   1.0000
     1.0000   1.0000   1.0000   1.0000   1.0000   1.0000   1.0000   1.0000
     1.0000   1.0000   0.0000   0.0000   0.0000   0.0000   0.0000   0.0000
     0.0000   0.0000   0.0000   0.0000   0.0000   0.0000   0.0000   0.0000
     0.0000   0.0000   0.0000   0.0000   0.0000   0.0000   0.0000   0.0000
     0.0000   0.0000   0.0000   0.0000   0.0000   0.0000   0.0000   0.0000
     0.0000   0.0000   0.0000   0.0000   0.0000   0.0000   0.0000   0.0000
     0.0000   0.0000   0.0000   0.0000   0.0000   0.0000   0.0000   0.0000

          k = 0.3333-1.2768 0.3037 (  3594 PWs)   bands (ev):

   -37.2083 -37.0958 -37.0735 -18.2790 -18.2262 -18.2010 -18.1738 -18.1437
   -18.1047 -18.0926 -18.0832 -18.0584   1.1135   1.9298   2.3820   3.3004
     4.2324   4.4401   5.0195   5.2705   5.3347   5.7773   6.1137   6.4565
     6.6849   6.8060   7.0833   7.2251   7.4203   7.7498   8.1289   8.2223
     8.6708   9.0065   9.2762   9.4413   9.6601   9.8235  10.3189  10.4236
    10.6626  11.3660  11.4753  11.6281  12.0985  12.2639  12.6814  13.1350
    13.3601  13.7053  14.2877  14.7939  15.5543  16.3040  16.9554  17.1715
    17.4327  17.7318  17.9034  18.0355  18.5034  18.9720  19.3344  19.7418

     occupation numbers 
     1.0000   1.0000   1.0000   1.0000   1.0000   1.0000   1.0000   1.0000
     1.0000   1.0000   1.0000   1.0000   1.0000   1.0000   1.0000   1.0000
     1.0000   1.0000   0.0000   0.0000   0.0000   0.0000   0.0000   0.0000
     0.0000   0.0000   0.0000   0.0000   0.0000   0.0000   0.0000   0.0000
     0.0000   0.0000   0.0000   0.0000   0.0000   0.0000   0.0000   0.0000
     0.0000   0.0000   0.0000   0.0000   0.0000   0.0000   0.0000   0.0000
     0.0000   0.0000   0.0000   0.0000   0.0000   0.0000   0.0000   0.0000
     0.0000   0.0000   0.0000   0.0000   0.0000   0.0000   0.0000   0.0000

          k = 0.3333-1.2768-0.3037 (  3594 PWs)   bands (ev):

   -37.2083 -37.0958 -37.0735 -18.2790 -18.2262 -18.2010 -18.1738 -18.1437
   -18.1047 -18.0926 -18.0832 -18.0584   1.1135   1.9298   2.3820   3.3004
     4.2324   4.4401   5.0195   5.2705   5.3347   5.7773   6.1137   6.4565
     6.6849   6.8060   7.0833   7.2251   7.4203   7.7498   8.1289   8.2223
     8.6708   9.0065   9.2762   9.4413   9.6601   9.8235  10.3189  10.4236
    10.6626  11.3660  11.4753  11.6281  12.0985  12.2639  12.6814  13.1350
    13.3601  13.7053  14.2877  14.7939  15.5543  16.3040  16.9554  17.1715
    17.4327  17.7318  17.9034  18.0355  18.5034  18.9720  19.3344  19.7417

     occupation numbers 
     1.0000   1.0000   1.0000   1.0000   1.0000   1.0000   1.0000   1.0000
     1.0000   1.0000   1.0000   1.0000   1.0000   1.0000   1.0000   1.0000
     1.0000   1.0000   0.0000   0.0000   0.0000   0.0000   0.0000   0.0000
     0.0000   0.0000   0.0000   0.0000   0.0000   0.0000   0.0000   0.0000
     0.0000   0.0000   0.0000   0.0000   0.0000   0.0000   0.0000   0.0000
     0.0000   0.0000   0.0000   0.0000   0.0000   0.0000   0.0000   0.0000
     0.0000   0.0000   0.0000   0.0000   0.0000   0.0000   0.0000   0.0000
     0.0000   0.0000   0.0000   0.0000   0.0000   0.0000   0.0000   0.0000

     highest occupied, lowest unoccupied level (ev):     4.5053    4.0192

!    total energy              =    -325.60193511 Ry
     estimated scf accuracy    <       0.00000061 Ry

     The total energy is the sum of the following terms:
     one-electron contribution =    -142.95565668 Ry
     hartree contribution      =      74.74091967 Ry
     xc contribution           =     -40.16786583 Ry
     ewald contribution        =    -123.33947735 Ry
     one-center paw contrib.   =     -93.87985491 Ry
      -> PAW hartree energy AE =       0.00000000 Ry
      -> PAW hartree energy PS =       0.00000000 Ry
      -> PAW xc energy AE      =       0.00000000 Ry
      -> PAW xc energy PS      =       0.00000000 Ry
      -> total E_H with PAW    =      74.74091967 Ry
      -> total E_XC with PAW   =     -40.16786583 Ry

     convergence has been achieved in  10 iterations

     Writing all to output data dir calculations_bands_val/myprefix.save/
 
     init_run     :      5.66s CPU      1.82s WALL (       1 calls)
     electrons    :     42.61s CPU     11.19s WALL (       1 calls)

     Called by init_run:
     wfcinit      :      1.10s CPU      0.29s WALL (       1 calls)
     wfcinit:atom :      0.01s CPU      0.00s WALL (       7 calls)
     wfcinit:wfcr :      1.06s CPU      0.28s WALL (       7 calls)
     potinit      :      1.67s CPU      0.48s WALL (       1 calls)
     hinit0       :      2.70s CPU      1.00s WALL (       1 calls)

     Called by electrons:
     c_bands      :     32.90s CPU      8.55s WALL (      11 calls)
     sum_band     :      6.70s CPU      1.81s WALL (      11 calls)
     v_of_rho     :      1.12s CPU      0.30s WALL (      11 calls)
     v_h          :      0.07s CPU      0.02s WALL (      11 calls)
     v_xc         :      1.05s CPU      0.28s WALL (      11 calls)
     newd         :      0.94s CPU      0.26s WALL (      11 calls)
     PAW_pot      :      0.74s CPU      0.20s WALL (      11 calls)
     mix_rho      :      0.17s CPU      0.05s WALL (      11 calls)

     Called by c_bands:
     init_us_2    :      0.13s CPU      0.03s WALL (     161 calls)
     init_us_2:cp :      0.12s CPU      0.03s WALL (     161 calls)
     cegterg      :     31.76s CPU      8.26s WALL (      77 calls)

     Called by sum_band:
     sum_band:wei :      0.01s CPU      0.00s WALL (      11 calls)
     sum_band:loo :      5.44s CPU      1.41s WALL (      11 calls)
     sum_band:buf :      0.07s CPU      0.02s WALL (      77 calls)
     sum_band:ini :      0.06s CPU      0.01s WALL (      77 calls)
     sum_band:cal :      0.15s CPU      0.04s WALL (      77 calls)
     sum_band:bec :      0.03s CPU      0.01s WALL (      77 calls)
     addusdens    :      0.97s CPU      0.32s WALL (      11 calls)
     addusd:skk   :      0.01s CPU      0.00s WALL (      22 calls)
     addusd:dgemm :      0.21s CPU      0.13s WALL (      22 calls)
     addusd:qvan2 :      0.66s CPU      0.17s WALL (      22 calls)

     Called by *egterg:
     cdiaghg      :      5.09s CPU      1.34s WALL (     352 calls)
     cegterg:over :      0.88s CPU      0.23s WALL (     282 calls)
     cegterg:upda :      0.50s CPU      0.13s WALL (     282 calls)
     cegterg:last :      0.91s CPU      0.23s WALL (     152 calls)
     cdiaghg:chol :      0.38s CPU      0.10s WALL (     352 calls)
     cdiaghg:inve :      0.08s CPU      0.02s WALL (     352 calls)
     cdiaghg:para :      0.88s CPU      0.23s WALL (     704 calls)
     h_psi        :     24.63s CPU      6.40s WALL (     366 calls)
     s_psi        :      0.23s CPU      0.06s WALL (     366 calls)
     g_psi        :      0.03s CPU      0.01s WALL (     282 calls)

     Called by h_psi:
     h_psi:calbec :      0.47s CPU      0.12s WALL (     366 calls)
     vloc_psi     :     23.76s CPU      6.18s WALL (     366 calls)
     add_vuspsi   :      0.32s CPU      0.08s WALL (     366 calls)

     General routines
     calbec       :      0.61s CPU      0.16s WALL (     443 calls)
     fft          :      1.69s CPU      0.60s WALL (     142 calls)
     ffts         :      1.04s CPU      0.32s WALL (      22 calls)
     fftw         :     25.00s CPU      6.52s WALL (   28222 calls)
     interpolate  :      1.08s CPU      0.33s WALL (      11 calls)
 
     Parallel routines

     PAW routines
     PAW_pot      :      0.74s CPU      0.20s WALL (      11 calls)
 
     PWSCF        :     49.75s CPU     13.72s WALL

 
   This run was terminated on:  11:34:29   4Jun2023            

=------------------------------------------------------------------------------=
   JOB DONE.
=------------------------------------------------------------------------------=
