
     Program PWSCF v.7.0 starts on  4Jun2023 at 14:18:10 

     This program is part of the open-source Quantum ESPRESSO suite
     for quantum simulation of materials; please cite
         "P. Giannozzi et al., J. Phys.:Condens. Matter 21 395502 (2009);
         "P. Giannozzi et al., J. Phys.:Condens. Matter 29 465901 (2017);
         "P. Giannozzi et al., J. Chem. Phys. 152 154105 (2020);
          URL http://www.quantum-espresso.org", 
     in publications or presentations arising from this work. More details at
     http://www.quantum-espresso.org/quote

     Parallel version (MPI & OpenMP), running on      32 processor cores
     Number of MPI processes:                 8
     Threads/MPI process:                     4

     MPI processes distributed on     1 nodes
     K-points division:     npool     =       2
     R & G space division:  proc/nbgrp/npool/nimage =       4
     145435 MiB available memory on the printing compute node when the environment starts
 
     Reading input from espresso_726.pwi
Warning: card &CELL ignored
Warning: card / ignored

     Current dimensions of program PWSCF are:
     Max number of different atomic species (ntypx) = 10
     Max number of k-points (npk) =  40000
     Max angular momentum in pseudopotentials (lmaxx) =  4
     Message from routine setup:
     using ibrav=0 with symmetry is DISCOURAGED, use correct ibrav instead

     Subspace diagonalization in iterative solution of the eigenvalue problem:
     one sub-group per band group will be used
     scalapack distributed-memory algorithm (size of sub-group:  2*  2 procs)

 
     Parallelization info
     --------------------
     sticks:   dense  smooth     PW     G-vecs:    dense   smooth      PW
     Min         441     219     63                12216     4315     670
     Max         442     220     64                12219     4316     673
     Sum        1765     877    253                48869    17261    2685
 
     Using Slab Decomposition
 


     bravais-lattice index     =            0
     lattice parameter (alat)  =      10.3256  a.u.
     unit-cell volume          =     778.4585 (a.u.)^3
     number of atoms/cell      =            6
     number of atomic types    =            2
     number of electrons       =        86.00
     number of Kohn-Sham states=           64
     kinetic-energy cutoff     =      30.0000  Ry
     charge density cutoff     =     240.0000  Ry
     scf convergence threshold =      1.0E-06
     mixing beta               =       0.7000
     number of iterations used =            8  plain     mixing
     Exchange-correlation= PBE
                           (   1   4   3   4   0   0   0)

     celldm(1)=  10.325636  celldm(2)=   0.000000  celldm(3)=   0.000000
     celldm(4)=   0.000000  celldm(5)=   0.000000  celldm(6)=   0.000000

     crystal axes: (cart. coord. in units of alat)
               a(1) = (   1.000000   0.000000   0.000000 )  
               a(2) = (   0.500000   0.866025   0.000000 )  
               a(3) = (   0.500000   0.288675   0.816497 )  

     reciprocal axes: (cart. coord. in units 2 pi/alat)
               b(1) = (  1.000000 -0.577350 -0.408248 )  
               b(2) = (  0.000000  1.154701 -0.408248 )  
               b(3) = (  0.000000  0.000000  1.224745 )  


     PseudoPot. # 1 for La read from file:
     /home/pragov/projects/rrg-bengioy-ad/pragov/crystal_structure_design/SSSP/La.GGA-PBE-paw-v1.0.UPF
     MD5 check sum: 436541e95c1ad8901025bd0b0ed42ae2
     Pseudo is Projector augmented-wave + core cor, Zval = 11.0
     Generated using ATOMPAW code
     Shape of augmentation charge: BESSEL
     Using radial grid of 1101 points,  8 beta functions with: 
                l(1) =   0
                l(2) =   0
                l(3) =   1
                l(4) =   1
                l(5) =   2
                l(6) =   2
                l(7) =   3
                l(8) =   3
     Q(r) pseudized with 0 coefficients 


     PseudoPot. # 2 for Ru read from file:
     /home/pragov/projects/rrg-bengioy-ad/pragov/crystal_structure_design/SSSP/Ru_ONCV_PBE-1.0.oncvpsp.upf
     MD5 check sum: be037bb81c227cfb9b1461a9f099f4bd
     Pseudo is Norm-conserving, Zval = 16.0
     Generated using ONCVPSP code by D. R. Hamann
     Using radial grid of 1458 points,  6 beta functions with: 
                l(1) =   0
                l(2) =   0
                l(3) =   1
                l(4) =   1
                l(5) =   2
                l(6) =   2

     atomic species   valence    mass     pseudopotential
        La            11.00   138.90547     La( 1.00)
        Ru            16.00   101.07000     Ru( 1.00)

     12 Sym. Ops., with inversion, found ( 6 have fractional translation)


                                    s                        frac. trans.

      isym =  1     identity                                     

 cryst.   s( 1) = (     1          0          0      )
                  (     0          1          0      )
                  (     0          0          1      )

 cart.    s( 1) = (  1.0000000  0.0000000  0.0000000 )
                  (  0.0000000  1.0000000 -0.0000000 )
                  (  0.0000000  0.0000000  1.0000000 )


      isym =  2     180 deg rotation - cart. axis [1,0,0]        

 cryst.   s( 2) = (     1          0          0      )    f =( -0.2500000 )
                  (     1         -1          0      )       ( -0.2500000 )
                  (     1          0         -1      )       ( -0.2500000 )

 cart.    s( 2) = (  1.0000000  0.0000000  0.0000000 )    f =( -0.5000000 )
                  (  0.0000000 -1.0000000  0.0000000 )       ( -0.2886751 )
                  (  0.0000000  0.0000000 -1.0000000 )       ( -0.2041241 )


      isym =  3     120 deg rotation - cryst. axis [0,0,1]       

 cryst.   s( 3) = (    -1          1          0      )
                  (    -1          0          0      )
                  (    -1          0          1      )

 cart.    s( 3) = ( -0.5000000 -0.8660254 -0.0000000 )
                  (  0.8660254 -0.5000000 -0.0000000 )
                  (  0.0000000  0.0000000  1.0000000 )


      isym =  4     120 deg rotation - cryst. axis [0,0,-1]      

 cryst.   s( 4) = (     0         -1          0      )
                  (     1         -1          0      )
                  (     0         -1          1      )

 cart.    s( 4) = ( -0.5000000  0.8660254  0.0000000 )
                  ( -0.8660254 -0.5000000 -0.0000000 )
                  (  0.0000000  0.0000000  1.0000000 )


      isym =  5     180 deg rotation - cryst. axis [0,1,0]       

 cryst.   s( 5) = (     0         -1          0      )    f =( -0.2500000 )
                  (    -1          0          0      )       ( -0.2500000 )
                  (     0          0         -1      )       ( -0.2500000 )

 cart.    s( 5) = ( -0.5000000 -0.8660254 -0.0000000 )    f =( -0.5000000 )
                  ( -0.8660254  0.5000000  0.0000000 )       ( -0.2886751 )
                  (  0.0000000  0.0000000 -1.0000000 )       ( -0.2041241 )


      isym =  6     180 deg rotation - cryst. axis [1,1,0]       

 cryst.   s( 6) = (    -1          1          0      )    f =( -0.2500000 )
                  (     0          1          0      )       ( -0.2500000 )
                  (     0          1         -1      )       ( -0.2500000 )

 cart.    s( 6) = ( -0.5000000  0.8660254  0.0000000 )    f =( -0.5000000 )
                  (  0.8660254  0.5000000  0.0000000 )       ( -0.2886751 )
                  (  0.0000000  0.0000000 -1.0000000 )       ( -0.2041241 )


      isym =  7     inversion                                    

 cryst.   s( 7) = (    -1          0          0      )    f =( -0.2500000 )
                  (     0         -1          0      )       ( -0.2500000 )
                  (     0          0         -1      )       ( -0.2500000 )

 cart.    s( 7) = ( -1.0000000  0.0000000  0.0000000 )    f =( -0.5000000 )
                  (  0.0000000 -1.0000000  0.0000000 )       ( -0.2886751 )
                  (  0.0000000  0.0000000 -1.0000000 )       ( -0.2041241 )


      isym =  8     inv. 180 deg rotation - cart. axis [1,0,0]   

 cryst.   s( 8) = (    -1          0          0      )
                  (    -1          1          0      )
                  (    -1          0          1      )

 cart.    s( 8) = ( -1.0000000  0.0000000  0.0000000 )
                  (  0.0000000  1.0000000 -0.0000000 )
                  (  0.0000000  0.0000000  1.0000000 )


      isym =  9     inv. 120 deg rotation - cryst. axis [0,0,1]  

 cryst.   s( 9) = (     1         -1          0      )    f =( -0.2500000 )
                  (     1          0          0      )       ( -0.2500000 )
                  (     1          0         -1      )       ( -0.2500000 )

 cart.    s( 9) = (  0.5000000  0.8660254  0.0000000 )    f =( -0.5000000 )
                  ( -0.8660254  0.5000000  0.0000000 )       ( -0.2886751 )
                  (  0.0000000  0.0000000 -1.0000000 )       ( -0.2041241 )


      isym = 10     inv. 120 deg rotation - cryst. axis [0,0,-1] 

 cryst.   s(10) = (     0          1          0      )    f =( -0.2500000 )
                  (    -1          1          0      )       ( -0.2500000 )
                  (     0          1         -1      )       ( -0.2500000 )

 cart.    s(10) = (  0.5000000 -0.8660254 -0.0000000 )    f =( -0.5000000 )
                  (  0.8660254  0.5000000  0.0000000 )       ( -0.2886751 )
                  (  0.0000000  0.0000000 -1.0000000 )       ( -0.2041241 )


      isym = 11     inv. 180 deg rotation - cryst. axis [0,1,0]  

 cryst.   s(11) = (     0          1          0      )
                  (     1          0          0      )
                  (     0          0          1      )

 cart.    s(11) = (  0.5000000  0.8660254  0.0000000 )
                  (  0.8660254 -0.5000000 -0.0000000 )
                  (  0.0000000  0.0000000  1.0000000 )


      isym = 12     inv. 180 deg rotation - cryst. axis [1,1,0]  

 cryst.   s(12) = (     1         -1          0      )
                  (     0         -1          0      )
                  (     0         -1          1      )

 cart.    s(12) = (  0.5000000 -0.8660254 -0.0000000 )
                  ( -0.8660254 -0.5000000 -0.0000000 )
                  (  0.0000000  0.0000000  1.0000000 )


   Cartesian axes

     site n.     atom                  positions (alat units)
         1           La  tau(   1) = (   1.0000000   0.5773503   0.4082483  )
         2           La  tau(   2) = (   1.5000000   0.8660254   0.6123724  )
         3           Ru  tau(   3) = (   0.2500000   0.1443376   0.1020621  )
         4           Ru  tau(   4) = (   0.7500000   0.1443376   0.1020621  )
         5           Ru  tau(   5) = (   0.5000000   0.5773503   0.1020621  )
         6           Ru  tau(   6) = (   0.5000000   0.2886751   0.5103104  )

   Crystallographic axes

     site n.     atom                  positions (cryst. coord.)
         1           La  tau(   1) = (  0.5000000  0.5000000  0.5000000  )
         2           La  tau(   2) = (  0.7500000  0.7500000  0.7500000  )
         3           Ru  tau(   3) = (  0.1250000  0.1250000  0.1250000  )
         4           Ru  tau(   4) = (  0.6250000  0.1250000  0.1250000  )
         5           Ru  tau(   5) = (  0.1250000  0.6250000  0.1250000  )
         6           Ru  tau(   6) = (  0.1250000  0.1250000  0.6250000  )

     number of k points=     6
                       cart. coord. in units 2pi/alat
        k(    1) = (   0.0000000   0.0000000   0.0000000), wk =   0.0740741
        k(    2) = (   0.0000000   0.0000000   0.4082483), wk =   0.1481481
        k(    3) = (   0.0000000   0.3849002  -0.1360828), wk =   0.4444444
        k(    4) = (   0.0000000   0.3849002   0.2721655), wk =   0.4444444
        k(    5) = (   0.0000000   0.3849002  -0.5443311), wk =   0.4444444
        k(    6) = (   0.3333333  -0.5773503  -0.0000000), wk =   0.4444444

                       cryst. coord.
        k(    1) = (   0.0000000   0.0000000   0.0000000), wk =   0.0740741
        k(    2) = (   0.0000000   0.0000000   0.3333333), wk =   0.1481481
        k(    3) = (   0.0000000   0.3333333   0.0000000), wk =   0.4444444
        k(    4) = (   0.0000000   0.3333333   0.3333333), wk =   0.4444444
        k(    5) = (   0.0000000   0.3333333  -0.3333333), wk =   0.4444444
        k(    6) = (   0.3333333  -0.3333333  -0.0000000), wk =   0.4444444

     Dense  grid:    48869 G-vectors     FFT dimensions: (  60,  60,  60)

     Smooth grid:    17261 G-vectors     FFT dimensions: (  40,  40,  40)

     Dynamical RAM for                 wfc:       0.53 MB

     Dynamical RAM for     wfc (w. buffer):       2.11 MB

     Dynamical RAM for           str. fact:       0.37 MB

     Dynamical RAM for           local pot:       0.00 MB

     Dynamical RAM for          nlocal pot:       1.12 MB

     Dynamical RAM for                qrad:       5.97 MB

     Dynamical RAM for          rho,v,vnew:       1.80 MB

     Dynamical RAM for               rhoin:       0.60 MB

     Dynamical RAM for            rho*nmix:       2.98 MB

     Dynamical RAM for           G-vectors:       0.73 MB

     Dynamical RAM for          h,s,v(r/c):       0.19 MB

     Dynamical RAM for          <psi|beta>:       0.13 MB

     Dynamical RAM for                 psi:       1.05 MB

     Dynamical RAM for                hpsi:       1.05 MB

     Dynamical RAM for                spsi:       1.05 MB

     Dynamical RAM for      wfcinit/wfcrot:       1.96 MB

     Dynamical RAM for           addusdens:      52.01 MB

     Estimated static dynamical RAM per process >      15.32 MB

     Estimated max dynamical RAM per process >      70.32 MB

     Estimated total dynamical RAM >     550.61 MB

     Initial potential from superposition of free atoms

     starting charge      85.9807, renormalised to      86.0000
     Starting wfcs are  104 randomized atomic wfcs
     Checking if some PAW data can be deallocated... 
       PAW data deallocated on    4 nodes for type:  1

     total cpu time spent up to now is        2.1 secs

     Self-consistent Calculation

     iteration #  1     ecut=    30.00 Ry     beta= 0.70
     Davidson diagonalization with overlap

---- Real-time Memory Report at c_bands before calling an iterative solver
           210 MiB given to the printing process from OS
             0 MiB allocation reported by mallinfo(arena+hblkhd)
        144814 MiB available memory on the node where the printing process lives
------------------
     ethr =  1.00E-02,  avg # of iterations =  2.5

     Threshold (ethr) on eigenvalues was too large:
     Diagonalizing with lowered threshold

     Davidson diagonalization with overlap

---- Real-time Memory Report at c_bands before calling an iterative solver
           291 MiB given to the printing process from OS
             0 MiB allocation reported by mallinfo(arena+hblkhd)
        144622 MiB available memory on the node where the printing process lives
------------------
     ethr =  2.39E-04,  avg # of iterations =  5.0

     total cpu time spent up to now is        3.3 secs

     total energy              =   -1670.55562602 Ry
     estimated scf accuracy    <       0.17306101 Ry

     iteration #  2     ecut=    30.00 Ry     beta= 0.70
     Davidson diagonalization with overlap

---- Real-time Memory Report at c_bands before calling an iterative solver
           304 MiB given to the printing process from OS
             0 MiB allocation reported by mallinfo(arena+hblkhd)
        144476 MiB available memory on the node where the printing process lives
------------------
     ethr =  2.01E-04,  avg # of iterations =  9.5

     total cpu time spent up to now is        4.1 secs

     total energy              =   -1670.34633056 Ry
     estimated scf accuracy    <       1.69495317 Ry

     iteration #  3     ecut=    30.00 Ry     beta= 0.70
     Davidson diagonalization with overlap

---- Real-time Memory Report at c_bands before calling an iterative solver
           310 MiB given to the printing process from OS
             0 MiB allocation reported by mallinfo(arena+hblkhd)
        144461 MiB available memory on the node where the printing process lives
------------------
     ethr =  2.01E-04,  avg # of iterations =  6.0

     total cpu time spent up to now is        4.9 secs

     total energy              =   -1670.63145846 Ry
     estimated scf accuracy    <       0.04432783 Ry

     iteration #  4     ecut=    30.00 Ry     beta= 0.70
     Davidson diagonalization with overlap

---- Real-time Memory Report at c_bands before calling an iterative solver
           312 MiB given to the printing process from OS
             0 MiB allocation reported by mallinfo(arena+hblkhd)
        144425 MiB available memory on the node where the printing process lives
------------------
     ethr =  5.15E-05,  avg # of iterations =  5.0

     total cpu time spent up to now is        5.7 secs

     total energy              =   -1670.63282308 Ry
     estimated scf accuracy    <       0.00995540 Ry

     iteration #  5     ecut=    30.00 Ry     beta= 0.70
     Davidson diagonalization with overlap

---- Real-time Memory Report at c_bands before calling an iterative solver
           312 MiB given to the printing process from OS
             0 MiB allocation reported by mallinfo(arena+hblkhd)
        144475 MiB available memory on the node where the printing process lives
------------------
     ethr =  1.16E-05,  avg # of iterations =  8.7

     total cpu time spent up to now is        6.5 secs

     total energy              =   -1670.63247554 Ry
     estimated scf accuracy    <       0.01369903 Ry

     iteration #  6     ecut=    30.00 Ry     beta= 0.70
     Davidson diagonalization with overlap

---- Real-time Memory Report at c_bands before calling an iterative solver
           312 MiB given to the printing process from OS
             0 MiB allocation reported by mallinfo(arena+hblkhd)
        144412 MiB available memory on the node where the printing process lives
------------------
     ethr =  1.16E-05,  avg # of iterations =  1.0

     total cpu time spent up to now is        7.1 secs

     total energy              =   -1670.63312772 Ry
     estimated scf accuracy    <       0.00049296 Ry

     iteration #  7     ecut=    30.00 Ry     beta= 0.70
     Davidson diagonalization with overlap

---- Real-time Memory Report at c_bands before calling an iterative solver
           312 MiB given to the printing process from OS
             0 MiB allocation reported by mallinfo(arena+hblkhd)
        144465 MiB available memory on the node where the printing process lives
------------------
     ethr =  5.73E-07,  avg # of iterations =  7.5

     total cpu time spent up to now is        7.8 secs

     total energy              =   -1670.63324285 Ry
     estimated scf accuracy    <       0.00004941 Ry

     iteration #  8     ecut=    30.00 Ry     beta= 0.70
     Davidson diagonalization with overlap

---- Real-time Memory Report at c_bands before calling an iterative solver
           313 MiB given to the printing process from OS
             0 MiB allocation reported by mallinfo(arena+hblkhd)
        144404 MiB available memory on the node where the printing process lives
------------------
     ethr =  5.75E-08,  avg # of iterations =  2.5

     total cpu time spent up to now is        8.5 secs

     total energy              =   -1670.63324891 Ry
     estimated scf accuracy    <       0.00000676 Ry

     iteration #  9     ecut=    30.00 Ry     beta= 0.70
     Davidson diagonalization with overlap

---- Real-time Memory Report at c_bands before calling an iterative solver
           313 MiB given to the printing process from OS
             0 MiB allocation reported by mallinfo(arena+hblkhd)
        144408 MiB available memory on the node where the printing process lives
------------------
     ethr =  7.86E-09,  avg # of iterations =  3.0

     total cpu time spent up to now is        9.5 secs

     total energy              =   -1670.63324989 Ry
     estimated scf accuracy    <       0.00000164 Ry

     iteration # 10     ecut=    30.00 Ry     beta= 0.70
     Davidson diagonalization with overlap

---- Real-time Memory Report at c_bands before calling an iterative solver
           313 MiB given to the printing process from OS
             0 MiB allocation reported by mallinfo(arena+hblkhd)
        144445 MiB available memory on the node where the printing process lives
------------------
     ethr =  1.90E-09,  avg # of iterations =  2.3

     total cpu time spent up to now is       10.2 secs

     End of self-consistent calculation

          k = 0.0000 0.0000 0.0000 (  2109 PWs)   bands (ev):

   -54.3593 -54.2663 -54.2663 -54.2652 -24.8399 -24.4308 -24.4308 -24.4307
   -24.2895 -24.2895 -24.0358 -24.0358 -24.0354 -24.0336 -24.0331 -24.0331
   -13.8597 -13.3964   1.9209   1.9209   1.9209   2.8741   2.8741   2.8742
    12.1575  13.8238  13.8878  13.8879  13.8879  14.9999  14.9999  15.8450
    15.8451  15.8451  17.5468  17.5468  17.6857  17.6857  17.6860  17.9018
    17.9020  17.9020  17.9539  17.9539  19.3753  19.3753  19.3753  20.0127
    20.2200  20.2203  20.2203  20.8440  20.8440  20.8440  20.8533  20.9116
    20.9116  20.9116  21.4464  21.4464  21.4465  21.7399  21.7399  21.7400

     occupation numbers 
     1.0000   1.0000   1.0000   1.0000   1.0000   1.0000   1.0000   1.0000
     1.0000   1.0000   1.0000   1.0000   1.0000   1.0000   1.0000   1.0000
     1.0000   1.0000   1.0000   1.0000   1.0000   1.0000   1.0000   1.0000
     1.0000   1.0000   1.0000   1.0000   1.0000   1.0000   1.0000   1.0000
     1.0000   1.0000   1.0000   1.0000   1.0000   1.0000   1.0000   1.0000
     1.0000   1.0000   1.0000   0.0000   0.0000   0.0000   0.0000   0.0000
     0.0000   0.0000   0.0000   0.0000   0.0000   0.0000   0.0000   0.0000
     0.0000   0.0000   0.0000   0.0000   0.0000   0.0000   0.0000   0.0000

          k = 0.0000 0.0000 0.4082 (  2151 PWs)   bands (ev):

   -54.3438 -54.2809 -54.2663 -54.2663 -24.7424 -24.4010 -24.3926 -24.3926
   -24.2514 -24.2514 -24.1733 -24.1141 -24.1141 -24.0353 -24.0353 -24.0344
   -13.7775 -13.4787   1.8703   1.8703   1.9057   2.8671   2.9528   2.9528
    12.9681  14.2710  14.3040  14.3040  14.8615  15.1905  15.3395  15.3395
    15.5643  15.5643  16.7463  16.9173  16.9173  17.0293  17.0293  17.3147
    17.7412  17.8558  17.8558  18.2491  18.2491  19.2771  19.3579  19.3579
    20.2171  20.3165  20.3165  20.8565  21.0203  21.0203  21.0912  21.1177
    21.2474  21.2474  21.5127  21.5197  21.5197  21.5958  21.5958  21.6240

     occupation numbers 
     1.0000   1.0000   1.0000   1.0000   1.0000   1.0000   1.0000   1.0000
     1.0000   1.0000   1.0000   1.0000   1.0000   1.0000   1.0000   1.0000
     1.0000   1.0000   1.0000   1.0000   1.0000   1.0000   1.0000   1.0000
     1.0000   1.0000   1.0000   1.0000   1.0000   1.0000   1.0000   1.0000
     1.0000   1.0000   1.0000   1.0000   1.0000   1.0000   1.0000   1.0000
     1.0000   1.0000   1.0000   0.0000   0.0000   0.0000   0.0000   0.0000
     0.0000   0.0000   0.0000   0.0000   0.0000   0.0000   0.0000   0.0000
     0.0000   0.0000   0.0000   0.0000   0.0000   0.0000   0.0000   0.0000

          k = 0.0000 0.3849-0.1361 (  2151 PWs)   bands (ev):

   -54.3435 -54.2822 -54.2663 -54.2653 -24.7422 -24.4015 -24.3923 -24.3922
   -24.2517 -24.2515 -24.1734 -24.1147 -24.1144 -24.0352 -24.0348 -24.0339
   -13.7775 -13.4787   1.8703   1.8703   1.9057   2.8671   2.9528   2.9528
    12.9681  14.2711  14.3041  14.3042  14.8614  15.1906  15.3395  15.3395
    15.5643  15.5644  16.7460  16.9172  16.9172  17.0289  17.0289  17.3147
    17.7414  17.8558  17.8561  18.2491  18.2493  19.2771  19.3578  19.3579
    20.2173  20.3164  20.3165  20.8565  21.0203  21.0203  21.0912  21.1177
    21.2474  21.2474  21.5127  21.5197  21.5198  21.5959  21.5959  21.6240

     occupation numbers 
     1.0000   1.0000   1.0000   1.0000   1.0000   1.0000   1.0000   1.0000
     1.0000   1.0000   1.0000   1.0000   1.0000   1.0000   1.0000   1.0000
     1.0000   1.0000   1.0000   1.0000   1.0000   1.0000   1.0000   1.0000
     1.0000   1.0000   1.0000   1.0000   1.0000   1.0000   1.0000   1.0000
     1.0000   1.0000   1.0000   1.0000   1.0000   1.0000   1.0000   1.0000
     1.0000   1.0000   1.0000   0.0000   0.0000   0.0000   0.0000   0.0000
     0.0000   0.0000   0.0000   0.0000   0.0000   0.0000   0.0000   0.0000
     0.0000   0.0000   0.0000   0.0000   0.0000   0.0000   0.0000   0.0000

          k = 0.0000 0.3849 0.2722 (  2137 PWs)   bands (ev):

   -54.3361 -54.2894 -54.2663 -54.2656 -24.6892 -24.4703 -24.3362 -24.3360
   -24.2795 -24.2264 -24.1683 -24.1334 -24.1333 -24.0986 -24.0346 -24.0340
   -13.7412 -13.5149   1.7774   1.7774   2.1944   2.5693   3.0555   3.0556
    13.3518  13.8933  14.8134  14.8135  14.9605  15.0227  15.2251  15.5352
    15.9971  15.9972  16.3385  16.4856  16.5667  16.6155  16.6156  17.3968
    17.6405  17.6406  17.8902  18.3031  18.3033  18.4536  18.8057  19.6926
    20.1780  20.1781  20.3984  20.9075  20.9392  21.0376  21.2029  21.2029
    21.3442  21.3442  21.5543  21.5851  21.5853  21.7236  21.7586  21.7587

     occupation numbers 
     1.0000   1.0000   1.0000   1.0000   1.0000   1.0000   1.0000   1.0000
     1.0000   1.0000   1.0000   1.0000   1.0000   1.0000   1.0000   1.0000
     1.0000   1.0000   1.0000   1.0000   1.0000   1.0000   1.0000   1.0000
     1.0000   1.0000   1.0000   1.0000   1.0000   1.0000   1.0000   1.0000
     1.0000   1.0000   1.0000   1.0000   1.0000   1.0000   1.0000   1.0000
     1.0000   1.0000   1.0000   0.0000   0.0000   0.0000   0.0000   0.0000
     0.0000   0.0000   0.0000   0.0000   0.0000   0.0000   0.0000   0.0000
     0.0000   0.0000   0.0000   0.0000   0.0000   0.0000   0.0000   0.0000

          k = 0.0000 0.3849-0.5443 (  2165 PWs)   bands (ev):

   -54.3247 -54.3007 -54.2663 -54.2657 -24.6250 -24.4754 -24.3303 -24.3237
   -24.2763 -24.2480 -24.1477 -24.1409 -24.1233 -24.1150 -24.1089 -24.0348
   -13.6831 -13.5727   1.6611   1.7959   2.2118   2.5972   3.0492   3.1508
    13.7421  14.5340  14.8274  14.9309  14.9516  15.1455  15.3141  15.4672
    15.4992  15.7715  15.8242  16.0203  16.6433  16.8724  16.9552  17.0242
    17.4091  17.4722  17.4769  17.6914  18.3120  18.8177  19.5242  20.1581
    20.3040  20.6435  20.6631  20.7063  20.7435  21.0602  21.1890  21.2019
    21.3030  21.4193  21.4872  21.5037  21.5694  21.5832  21.7690  21.7965

     occupation numbers 
     1.0000   1.0000   1.0000   1.0000   1.0000   1.0000   1.0000   1.0000
     1.0000   1.0000   1.0000   1.0000   1.0000   1.0000   1.0000   1.0000
     1.0000   1.0000   1.0000   1.0000   1.0000   1.0000   1.0000   1.0000
     1.0000   1.0000   1.0000   1.0000   1.0000   1.0000   1.0000   1.0000
     1.0000   1.0000   1.0000   1.0000   1.0000   1.0000   1.0000   1.0000
     1.0000   1.0000   1.0000   0.0000   0.0000   0.0000   0.0000   0.0000
     0.0000   0.0000   0.0000   0.0000   0.0000   0.0000   0.0000   0.0000
     0.0000   0.0000   0.0000   0.0000   0.0000   0.0000   0.0000   0.0000

          k = 0.3333-0.5774-0.0000 (  2165 PWs)   bands (ev):

   -54.3242 -54.3015 -54.2663 -54.2654 -24.6246 -24.4758 -24.3301 -24.3235
   -24.2766 -24.2481 -24.1477 -24.1408 -24.1238 -24.1148 -24.1091 -24.0342
   -13.6831 -13.5727   1.6611   1.7960   2.2117   2.5972   3.0492   3.1508
    13.7421  14.5341  14.8275  14.9308  14.9516  15.1456  15.3141  15.4671
    15.4990  15.7715  15.8243  16.0202  16.6431  16.8723  16.9552  17.0240
    17.4089  17.4722  17.4770  17.6914  18.3122  18.8178  19.5242  20.1581
    20.3042  20.6435  20.6631  20.7063  20.7435  21.0601  21.1890  21.2019
    21.3030  21.4192  21.4872  21.5037  21.5694  21.5832  21.7689  21.7965

     occupation numbers 
     1.0000   1.0000   1.0000   1.0000   1.0000   1.0000   1.0000   1.0000
     1.0000   1.0000   1.0000   1.0000   1.0000   1.0000   1.0000   1.0000
     1.0000   1.0000   1.0000   1.0000   1.0000   1.0000   1.0000   1.0000
     1.0000   1.0000   1.0000   1.0000   1.0000   1.0000   1.0000   1.0000
     1.0000   1.0000   1.0000   1.0000   1.0000   1.0000   1.0000   1.0000
     1.0000   1.0000   1.0000   0.0000   0.0000   0.0000   0.0000   0.0000
     0.0000   0.0000   0.0000   0.0000   0.0000   0.0000   0.0000   0.0000
     0.0000   0.0000   0.0000   0.0000   0.0000   0.0000   0.0000   0.0000

     highest occupied, lowest unoccupied level (ev):    17.9539   17.6914

!    total energy              =   -1670.63324968 Ry
     estimated scf accuracy    <       0.00000038 Ry

     The total energy is the sum of the following terms:
     one-electron contribution =    -267.93087391 Ry
     hartree contribution      =     184.55859007 Ry
     xc contribution           =     -96.90362636 Ry
     ewald contribution        =    -694.13388865 Ry
     one-center paw contrib.   =    -796.22345083 Ry
      -> PAW hartree energy AE =      35.98262783 Ry
      -> PAW hartree energy PS =     -36.02241333 Ry
      -> PAW xc energy AE      =    -405.49237840 Ry
      -> PAW xc energy PS      =       7.42043849 Ry
      -> total E_H with PAW    =     184.51880457 Ry
      -> total E_XC with PAW   =    -494.97556627 Ry

     convergence has been achieved in  10 iterations

     Writing all to output data dir calculations_bands_val/myprefix.save/
 
     init_run     :      6.26s CPU      1.81s WALL (       1 calls)
     electrons    :     30.47s CPU      8.16s WALL (       1 calls)

     Called by init_run:
     wfcinit      :      0.54s CPU      0.15s WALL (       1 calls)
     wfcinit:atom :      0.00s CPU      0.00s WALL (       3 calls)
     wfcinit:wfcr :      0.50s CPU      0.14s WALL (       3 calls)
     potinit      :      2.20s CPU      0.60s WALL (       1 calls)
     hinit0       :      2.04s CPU      0.65s WALL (       1 calls)

     Called by electrons:
     c_bands      :     13.65s CPU      3.57s WALL (      11 calls)
     sum_band     :      4.04s CPU      1.18s WALL (      11 calls)
     v_of_rho     :      0.60s CPU      0.16s WALL (      11 calls)
     v_h          :      0.04s CPU      0.01s WALL (      11 calls)
     v_xc         :      0.56s CPU      0.15s WALL (      11 calls)
     newd         :      2.64s CPU      0.72s WALL (      11 calls)
     PAW_pot      :     10.42s CPU      2.76s WALL (      11 calls)
     mix_rho      :      0.11s CPU      0.03s WALL (      11 calls)

     Called by c_bands:
     init_us_2    :      0.07s CPU      0.02s WALL (      69 calls)
     init_us_2:cp :      0.07s CPU      0.02s WALL (      69 calls)
     cegterg      :     11.72s CPU      3.07s WALL (      33 calls)

     Called by sum_band:
     sum_band:wei :      0.01s CPU      0.00s WALL (      11 calls)
     sum_band:loo :      1.64s CPU      0.43s WALL (      11 calls)
     sum_band:buf :      0.01s CPU      0.00s WALL (      33 calls)
     sum_band:ini :      0.03s CPU      0.01s WALL (      33 calls)
     sum_band:cal :      0.09s CPU      0.02s WALL (      33 calls)
     sum_band:bec :      0.01s CPU      0.00s WALL (      33 calls)
     addusdens    :      2.04s CPU      0.65s WALL (      11 calls)
     addusd:skk   :      0.01s CPU      0.00s WALL (      11 calls)
     addusd:dgemm :      0.35s CPU      0.21s WALL (      11 calls)
     addusd:qvan2 :      1.16s CPU      0.30s WALL (      11 calls)

     Called by *egterg:
     cdiaghg      :      3.29s CPU      0.86s WALL (     187 calls)
     cegterg:over :      0.45s CPU      0.12s WALL (     157 calls)
     cegterg:upda :      0.22s CPU      0.06s WALL (     157 calls)
     cegterg:last :      0.31s CPU      0.08s WALL (      71 calls)
     cdiaghg:chol :      0.22s CPU      0.06s WALL (     187 calls)
     cdiaghg:inve :      0.05s CPU      0.01s WALL (     187 calls)
     cdiaghg:para :      0.49s CPU      0.13s WALL (     374 calls)
     h_psi        :      7.62s CPU      2.00s WALL (     193 calls)
     s_psi        :      0.11s CPU      0.03s WALL (     193 calls)
     g_psi        :      0.01s CPU      0.00s WALL (     157 calls)

     Called by h_psi:
     h_psi:calbec :      0.29s CPU      0.08s WALL (     193 calls)
     vloc_psi     :      7.13s CPU      1.86s WALL (     193 calls)
     add_vuspsi   :      0.17s CPU      0.05s WALL (     193 calls)

     General routines
     calbec       :      0.37s CPU      0.10s WALL (     226 calls)
     fft          :      1.58s CPU      0.49s WALL (     142 calls)
     ffts         :      1.04s CPU      0.29s WALL (      22 calls)
     fftw         :      7.16s CPU      1.88s WALL (   13490 calls)
     interpolate  :      1.07s CPU      0.30s WALL (      11 calls)
 
     Parallel routines

     PAW routines
     PAW_pot      :     10.42s CPU      2.76s WALL (      11 calls)
     PAW_symme    :      0.05s CPU      0.01s WALL (      22 calls)
 
     PWSCF        :     37.55s CPU     10.42s WALL

 
   This run was terminated on:  14:18:20   4Jun2023            

=------------------------------------------------------------------------------=
   JOB DONE.
=------------------------------------------------------------------------------=
