
     Program PWSCF v.7.0 starts on  4Jun2023 at 11:33:44 

     This program is part of the open-source Quantum ESPRESSO suite
     for quantum simulation of materials; please cite
         "P. Giannozzi et al., J. Phys.:Condens. Matter 21 395502 (2009);
         "P. Giannozzi et al., J. Phys.:Condens. Matter 29 465901 (2017);
         "P. Giannozzi et al., J. Chem. Phys. 152 154105 (2020);
          URL http://www.quantum-espresso.org", 
     in publications or presentations arising from this work. More details at
     http://www.quantum-espresso.org/quote

     Parallel version (MPI & OpenMP), running on      32 processor cores
     Number of MPI processes:                 8
     Threads/MPI process:                     4

     MPI processes distributed on     1 nodes
     K-points division:     npool     =       2
     R & G space division:  proc/nbgrp/npool/nimage =       4
     144067 MiB available memory on the printing compute node when the environment starts
 
     Reading input from espresso_243.pwi
Warning: card &CELL ignored
Warning: card / ignored

     Current dimensions of program PWSCF are:
     Max number of different atomic species (ntypx) = 10
     Max number of k-points (npk) =  40000
     Max angular momentum in pseudopotentials (lmaxx) =  4
     Message from routine setup:
     using ibrav=0 with symmetry is DISCOURAGED, use correct ibrav instead

     Subspace diagonalization in iterative solution of the eigenvalue problem:
     one sub-group per band group will be used
     scalapack distributed-memory algorithm (size of sub-group:  2*  2 procs)

 
     Parallelization info
     --------------------
     sticks:   dense  smooth     PW     G-vecs:    dense   smooth      PW
     Min         762     380    105                37289    13168    1938
     Max         763     381    106                37291    13170    1943
     Sum        3049    1521    421               149159    52675    7757
 
     Using Slab Decomposition
 


     bravais-lattice index     =            0
     lattice parameter (alat)  =      12.6375  a.u.
     unit-cell volume          =    2374.6440 (a.u.)^3
     number of atoms/cell      =           14
     number of atomic types    =            3
     number of electrons       =        96.00
     number of Kohn-Sham states=           64
     kinetic-energy cutoff     =      30.0000  Ry
     charge density cutoff     =     240.0000  Ry
     scf convergence threshold =      1.0E-06
     mixing beta               =       0.7000
     number of iterations used =            8  plain     mixing
     Exchange-correlation=  SLA  PW   PBX  PBC
                           (   1   4   3   4   0   0   0)

     celldm(1)=  12.637504  celldm(2)=   0.000000  celldm(3)=   0.000000
     celldm(4)=   0.000000  celldm(5)=   0.000000  celldm(6)=   0.000000

     crystal axes: (cart. coord. in units of alat)
               a(1) = (   1.000000   0.000000   0.000000 )  
               a(2) = (   0.000000   0.998954   0.000000 )  
               a(3) = (   0.000000   0.384288   1.177794 )  

     reciprocal axes: (cart. coord. in units 2 pi/alat)
               b(1) = (  1.000000  0.000000  0.000000 )  
               b(2) = (  0.000000  1.001047 -0.326619 )  
               b(3) = (  0.000000  0.000000  0.849045 )  


     PseudoPot. # 1 for Sr read from file:
     /home/pragov/projects/rrg-bengioy-ad/pragov/crystal_structure_design/SSSP/Sr_pbe_v1.uspp.F.UPF
     MD5 check sum: 6b418c05fbe9db5448babca5e47b7a5b
     Pseudo is Ultrasoft + core correction, Zval = 10.0
     Generated by new atomic code, or converted to UPF format
     Using radial grid of  883 points,  6 beta functions with: 
                l(1) =   0
                l(2) =   0
                l(3) =   1
                l(4) =   1
                l(5) =   2
                l(6) =   2
     Q(r) pseudized with  6 coefficients,  rinner =    1.400   1.400   1.400
                                                       1.400   1.400

     PseudoPot. # 2 for Si read from file:
     /home/pragov/projects/rrg-bengioy-ad/pragov/crystal_structure_design/SSSP/Si.pbe-n-rrkjus_psl.1.0.0.UPF
     MD5 check sum: 0b0bb1205258b0d07b9f9672cf965d36
     Pseudo is Ultrasoft + core correction, Zval =  4.0
     Generated using "atomic" code by A. Dal Corso  v.5.1
     Using radial grid of 1141 points,  6 beta functions with: 
                l(1) =   0
                l(2) =   0
                l(3) =   1
                l(4) =   1
                l(5) =   2
                l(6) =   2
     Q(r) pseudized with 0 coefficients 


     PseudoPot. # 3 for S  read from file:
     /home/pragov/projects/rrg-bengioy-ad/pragov/crystal_structure_design/SSSP/s_pbe_v1.4.uspp.F.UPF
     MD5 check sum: 88d86576ff6df21479756cfb9bdac1df
     Pseudo is Ultrasoft + core correction, Zval =  6.0
     Generated by new atomic code, or converted to UPF format
     Using radial grid of  907 points,  6 beta functions with: 
                l(1) =   0
                l(2) =   0
                l(3) =   1
                l(4) =   1
                l(5) =   2
                l(6) =   2
     Q(r) pseudized with  8 coefficients,  rinner =    1.300   1.300   1.300
                                                       1.300   1.300

     atomic species   valence    mass     pseudopotential
        Sr            10.00    87.62000     Sr( 1.00)
        Si             4.00    28.08500     Si( 1.00)
        S              6.00    32.06000     S ( 1.00)

      4 Sym. Ops., with inversion, found ( 2 have fractional translation)


                                    s                        frac. trans.

      isym =  1     identity                                     

 cryst.   s( 1) = (     1          0          0      )
                  (     0          1          0      )
                  (     0          0          1      )

 cart.    s( 1) = (  1.0000000  0.0000000  0.0000000 )
                  (  0.0000000  1.0000000  0.0000000 )
                  (  0.0000000  0.0000000  1.0000000 )


      isym =  2     180 deg rotation - cart. axis [1,0,0]        

 cryst.   s( 2) = (     1          0          0      )    f =( -0.5000000 )
                  (     0         -1          0      )       (  0.0000000 )
                  (     0          0         -1      )       (  0.0000000 )

 cart.    s( 2) = (  1.0000000  0.0000000  0.0000000 )    f =( -0.5000000 )
                  (  0.0000000 -1.0000000 -0.0000000 )       (  0.0000000 )
                  (  0.0000000  0.0000000 -1.0000000 )       (  0.0000000 )


      isym =  3     inversion                                    

 cryst.   s( 3) = (    -1          0          0      )
                  (     0         -1          0      )
                  (     0          0         -1      )

 cart.    s( 3) = ( -1.0000000  0.0000000  0.0000000 )
                  (  0.0000000 -1.0000000 -0.0000000 )
                  (  0.0000000  0.0000000 -1.0000000 )


      isym =  4     inv. 180 deg rotation - cart. axis [1,0,0]   

 cryst.   s( 4) = (    -1          0          0      )    f =(  0.5000000 )
                  (     0          1          0      )       (  0.0000000 )
                  (     0          0          1      )       (  0.0000000 )

 cart.    s( 4) = ( -1.0000000  0.0000000  0.0000000 )    f =(  0.5000000 )
                  (  0.0000000  1.0000000  0.0000000 )       (  0.0000000 )
                  (  0.0000000  0.0000000  1.0000000 )       (  0.0000000 )


   Cartesian axes

     site n.     atom                  positions (alat units)
         1           Sr  tau(   1) = (   0.2500000   1.0858317   1.1179524  )
         2           Sr  tau(   2) = (   0.7500000   0.2974098   0.0598413  )
         3           Sr  tau(   3) = (   0.2500000   0.9324299   0.5085077  )
         4           Sr  tau(   4) = (   0.7500000   0.4508117   0.6692860  )
         5           Si  tau(   5) = (   0.2500000   0.5841119   0.9413422  )
         6           Si  tau(   6) = (   0.7500000   0.7991297   0.2364515  )
         7           S   tau(   7) = (   0.2500000   0.1340169   0.0754342  )
         8           S   tau(   8) = (   0.7500000   1.2492247   1.1023596  )
         9           S   tau(   9) = (   0.2500000   0.3298009   0.7461783  )
        10           S   tau(  10) = (   0.7500000   1.0534407   0.4316155  )
        11           S   tau(  11) = (   0.4977470   0.7716224   0.8717594  )
        12           S   tau(  12) = (   0.9977470   0.6116192   0.3060344  )
        13           S   tau(  13) = (   0.5022530   0.6116192   0.3060344  )
        14           S   tau(  14) = (   0.0022530   0.7716224   0.8717594  )

   Crystallographic axes

     site n.     atom                  positions (cryst. coord.)
         1           Sr  tau(   1) = (  0.2500000  0.7218240  0.9491920  )
         2           Sr  tau(   2) = (  0.7500000  0.2781760  0.0508080  )
         3           Sr  tau(   3) = (  0.2500000  0.7673180  0.4317460  )
         4           Sr  tau(   4) = (  0.7500000  0.2326820  0.5682540  )
         5           Si  tau(   5) = (  0.2500000  0.2772630  0.7992420  )
         6           Si  tau(   6) = (  0.7500000  0.7227370  0.2007580  )
         7           S   tau(   7) = (  0.2500000  0.1095190  0.0640470  )
         8           S   tau(   8) = (  0.7500000  0.8904810  0.9359530  )
         9           S   tau(   9) = (  0.2500000  0.0864300  0.6335390  )
        10           S   tau(  10) = (  0.7500000  0.9135700  0.3664610  )
        11           S   tau(  11) = (  0.4977470  0.4876970  0.7401630  )
        12           S   tau(  12) = (  0.9977470  0.5123030  0.2598370  )
        13           S   tau(  13) = (  0.5022530  0.5123030  0.2598370  )
        14           S   tau(  14) = (  0.0022530  0.4876970  0.7401630  )

     number of k points=    10
                       cart. coord. in units 2pi/alat
        k(    1) = (   0.0000000   0.0000000   0.0000000), wk =   0.0740741
        k(    2) = (   0.0000000   0.0000000   0.2830150), wk =   0.1481481
        k(    3) = (   0.0000000   0.3336825  -0.1088732), wk =   0.1481481
        k(    4) = (   0.0000000   0.3336825   0.1741419), wk =   0.1481481
        k(    5) = (   0.0000000   0.3336825  -0.3918882), wk =   0.1481481
        k(    6) = (   0.3333333   0.0000000   0.0000000), wk =   0.1481481
        k(    7) = (   0.3333333   0.0000000   0.2830150), wk =   0.2962963
        k(    8) = (   0.3333333   0.3336825  -0.1088732), wk =   0.2962963
        k(    9) = (   0.3333333   0.3336825   0.1741419), wk =   0.2962963
        k(   10) = (   0.3333333   0.3336825  -0.3918882), wk =   0.2962963

                       cryst. coord.
        k(    1) = (   0.0000000   0.0000000   0.0000000), wk =   0.0740741
        k(    2) = (   0.0000000   0.0000000   0.3333333), wk =   0.1481481
        k(    3) = (   0.0000000   0.3333333   0.0000000), wk =   0.1481481
        k(    4) = (   0.0000000   0.3333333   0.3333333), wk =   0.1481481
        k(    5) = (   0.0000000   0.3333333  -0.3333333), wk =   0.1481481
        k(    6) = (   0.3333333   0.0000000   0.0000000), wk =   0.1481481
        k(    7) = (   0.3333333   0.0000000   0.3333333), wk =   0.2962963
        k(    8) = (   0.3333333   0.3333333   0.0000000), wk =   0.2962963
        k(    9) = (   0.3333333   0.3333333   0.3333333), wk =   0.2962963
        k(   10) = (   0.3333333   0.3333333  -0.3333333), wk =   0.2962963

     Dense  grid:   149159 G-vectors     FFT dimensions: (  64,  64,  80)

     Smooth grid:    52675 G-vectors     FFT dimensions: (  48,  45,  60)

     Dynamical RAM for                 wfc:       1.61 MB

     Dynamical RAM for     wfc (w. buffer):       9.65 MB

     Dynamical RAM for           str. fact:       1.71 MB

     Dynamical RAM for           local pot:       0.00 MB

     Dynamical RAM for          nlocal pot:       6.33 MB

     Dynamical RAM for                qrad:       3.73 MB

     Dynamical RAM for          rho,v,vnew:       3.58 MB

     Dynamical RAM for               rhoin:       1.19 MB

     Dynamical RAM for            rho*nmix:       9.10 MB

     Dynamical RAM for           G-vectors:       2.23 MB

     Dynamical RAM for          h,s,v(r/c):       0.19 MB

     Dynamical RAM for          <psi|beta>:       0.25 MB

     Dynamical RAM for                 psi:       3.22 MB

     Dynamical RAM for                hpsi:       3.22 MB

     Dynamical RAM for                spsi:       3.22 MB

     Dynamical RAM for      wfcinit/wfcrot:       4.82 MB

     Dynamical RAM for           addusdens:      55.48 MB

     Estimated static dynamical RAM per process >      33.83 MB

     Estimated max dynamical RAM per process >      98.42 MB

     Estimated total dynamical RAM >     750.91 MB

     Check: negative core charge=   -0.000002

     Initial potential from superposition of free atoms

     starting charge      95.8640, renormalised to      96.0000

     negative rho (up, down):  2.533E-01 0.000E+00
     Starting wfcs are   92 randomized atomic wfcs

     total cpu time spent up to now is        3.3 secs

     Self-consistent Calculation

     iteration #  1     ecut=    30.00 Ry     beta= 0.70
     Davidson diagonalization with overlap

---- Real-time Memory Report at c_bands before calling an iterative solver
           217 MiB given to the printing process from OS
             0 MiB allocation reported by mallinfo(arena+hblkhd)
        143208 MiB available memory on the node where the printing process lives
------------------
     ethr =  1.00E-02,  avg # of iterations =  4.0

     Threshold (ethr) on eigenvalues was too large:
     Diagonalizing with lowered threshold

     Davidson diagonalization with overlap

---- Real-time Memory Report at c_bands before calling an iterative solver
           284 MiB given to the printing process from OS
             0 MiB allocation reported by mallinfo(arena+hblkhd)
        142681 MiB available memory on the node where the printing process lives
------------------
     ethr =  8.65E-04,  avg # of iterations =  1.0

     negative rho (up, down):  2.582E-01 0.000E+00

     total cpu time spent up to now is        6.1 secs

     total energy              =    -497.56743489 Ry
     estimated scf accuracy    <       0.83218259 Ry

     iteration #  2     ecut=    30.00 Ry     beta= 0.70
     Davidson diagonalization with overlap

---- Real-time Memory Report at c_bands before calling an iterative solver
           287 MiB given to the printing process from OS
             0 MiB allocation reported by mallinfo(arena+hblkhd)
        142582 MiB available memory on the node where the printing process lives
------------------
     ethr =  8.67E-04,  avg # of iterations =  4.5

     negative rho (up, down):  2.625E-01 0.000E+00

     total cpu time spent up to now is        7.5 secs

     total energy              =    -497.79790299 Ry
     estimated scf accuracy    <       0.19120935 Ry

     iteration #  3     ecut=    30.00 Ry     beta= 0.70
     Davidson diagonalization with overlap

---- Real-time Memory Report at c_bands before calling an iterative solver
           305 MiB given to the printing process from OS
             0 MiB allocation reported by mallinfo(arena+hblkhd)
        142478 MiB available memory on the node where the printing process lives
------------------
     ethr =  1.99E-04,  avg # of iterations =  3.2

     negative rho (up, down):  2.648E-01 0.000E+00

     total cpu time spent up to now is        8.7 secs

     total energy              =    -497.83106618 Ry
     estimated scf accuracy    <       0.00665121 Ry

     iteration #  4     ecut=    30.00 Ry     beta= 0.70
     Davidson diagonalization with overlap

---- Real-time Memory Report at c_bands before calling an iterative solver
           310 MiB given to the printing process from OS
             0 MiB allocation reported by mallinfo(arena+hblkhd)
        142432 MiB available memory on the node where the printing process lives
------------------
     c_bands:  1 eigenvalues not converged
     ethr =  6.93E-06,  avg # of iterations = 17.1

     negative rho (up, down):  2.653E-01 0.000E+00

     total cpu time spent up to now is       10.7 secs

     total energy              =    -497.83231322 Ry
     estimated scf accuracy    <       0.00710488 Ry

     iteration #  5     ecut=    30.00 Ry     beta= 0.70
     Davidson diagonalization with overlap

---- Real-time Memory Report at c_bands before calling an iterative solver
           316 MiB given to the printing process from OS
             0 MiB allocation reported by mallinfo(arena+hblkhd)
        142393 MiB available memory on the node where the printing process lives
------------------
     ethr =  6.93E-06,  avg # of iterations =  6.8

     negative rho (up, down):  2.651E-01 0.000E+00

     total cpu time spent up to now is       12.2 secs

     total energy              =    -497.83363441 Ry
     estimated scf accuracy    <       0.00036085 Ry

     iteration #  6     ecut=    30.00 Ry     beta= 0.70
     Davidson diagonalization with overlap

---- Real-time Memory Report at c_bands before calling an iterative solver
           316 MiB given to the printing process from OS
             0 MiB allocation reported by mallinfo(arena+hblkhd)
        142384 MiB available memory on the node where the printing process lives
------------------
     ethr =  3.76E-07,  avg # of iterations =  3.1

     negative rho (up, down):  2.650E-01 0.000E+00

     total cpu time spent up to now is       13.3 secs

     total energy              =    -497.83370286 Ry
     estimated scf accuracy    <       0.00004272 Ry

     iteration #  7     ecut=    30.00 Ry     beta= 0.70
     Davidson diagonalization with overlap

---- Real-time Memory Report at c_bands before calling an iterative solver
           316 MiB given to the printing process from OS
             0 MiB allocation reported by mallinfo(arena+hblkhd)
        142446 MiB available memory on the node where the printing process lives
------------------
     ethr =  4.45E-08,  avg # of iterations =  2.8

     negative rho (up, down):  2.650E-01 0.000E+00

     total cpu time spent up to now is       14.5 secs

     total energy              =    -497.83371556 Ry
     estimated scf accuracy    <       0.00000262 Ry

     iteration #  8     ecut=    30.00 Ry     beta= 0.70
     Davidson diagonalization with overlap

---- Real-time Memory Report at c_bands before calling an iterative solver
           316 MiB given to the printing process from OS
             0 MiB allocation reported by mallinfo(arena+hblkhd)
        142447 MiB available memory on the node where the printing process lives
------------------
     ethr =  2.73E-09,  avg # of iterations =  4.3

     negative rho (up, down):  2.650E-01 0.000E+00

     total cpu time spent up to now is       15.9 secs

     total energy              =    -497.83371689 Ry
     estimated scf accuracy    <       0.00000120 Ry

     iteration #  9     ecut=    30.00 Ry     beta= 0.70
     Davidson diagonalization with overlap

---- Real-time Memory Report at c_bands before calling an iterative solver
           316 MiB given to the printing process from OS
             0 MiB allocation reported by mallinfo(arena+hblkhd)
        142443 MiB available memory on the node where the printing process lives
------------------
     ethr =  1.25E-09,  avg # of iterations =  2.0

     negative rho (up, down):  2.650E-01 0.000E+00

     total cpu time spent up to now is       17.0 secs

     End of self-consistent calculation

          k = 0.0000 0.0000 0.0000 (  6601 PWs)   bands (ev):

   -29.0246 -29.0227 -28.4654 -28.4610 -11.1154 -11.1037 -11.0654 -11.0452
   -11.0393 -10.9873 -10.5938 -10.5590 -10.5529 -10.5281 -10.5065 -10.4739
    -7.7374  -7.3698  -6.0255  -5.9002  -5.8454  -5.8434  -5.8267  -5.7912
    -0.9412  -0.5913   1.2918   1.6775   1.8536   1.9694   2.1655   2.4031
     2.7058   3.2489   3.3100   3.6908   3.7271   3.7758   3.9851   4.3179
     4.5085   4.6257   4.6813   4.8839   4.8889   5.0414   5.1651   5.3985
     8.6740   9.0178   9.0516   9.4045   9.4498   9.5492   9.6434  10.0238
    10.1389  10.3389  10.3999  10.6448  10.8749  11.0017  11.1414  11.2660

     occupation numbers 
     1.0000   1.0000   1.0000   1.0000   1.0000   1.0000   1.0000   1.0000
     1.0000   1.0000   1.0000   1.0000   1.0000   1.0000   1.0000   1.0000
     1.0000   1.0000   1.0000   1.0000   1.0000   1.0000   1.0000   1.0000
     1.0000   1.0000   1.0000   1.0000   1.0000   1.0000   1.0000   1.0000
     1.0000   1.0000   1.0000   1.0000   1.0000   1.0000   1.0000   1.0000
     1.0000   1.0000   1.0000   1.0000   1.0000   1.0000   1.0000   1.0000
     0.0000   0.0000   0.0000   0.0000   0.0000   0.0000   0.0000   0.0000
     0.0000   0.0000   0.0000   0.0000   0.0000   0.0000   0.0000   0.0000

          k = 0.0000 0.0000 0.2830 (  6570 PWs)   bands (ev):

   -29.0246 -29.0227 -28.4654 -28.4610 -11.1042 -11.0956 -11.0545 -11.0447
   -11.0377 -10.9873 -10.5973 -10.5799 -10.5609 -10.5290 -10.5196 -10.4740
    -7.6359  -7.4338  -5.9917  -5.9154  -5.8769  -5.8635  -5.8304  -5.8077
    -0.8505  -0.6633   1.4622   1.7064   1.8557   1.9770   2.1408   2.4662
     2.9088   3.3502   3.4206   3.4256   3.7080   3.8154   4.0705   4.1246
     4.1550   4.4763   4.6769   4.7420   4.8402   5.0251   5.1118   5.3075
     8.9176   9.0837   9.2213   9.4721   9.5628   9.9547   9.9729  10.1481
    10.2820  10.4272  10.6190  10.7089  10.7418  11.0146  11.1281  11.1424

     occupation numbers 
     1.0000   1.0000   1.0000   1.0000   1.0000   1.0000   1.0000   1.0000
     1.0000   1.0000   1.0000   1.0000   1.0000   1.0000   1.0000   1.0000
     1.0000   1.0000   1.0000   1.0000   1.0000   1.0000   1.0000   1.0000
     1.0000   1.0000   1.0000   1.0000   1.0000   1.0000   1.0000   1.0000
     1.0000   1.0000   1.0000   1.0000   1.0000   1.0000   1.0000   1.0000
     1.0000   1.0000   1.0000   1.0000   1.0000   1.0000   1.0000   1.0000
     0.0000   0.0000   0.0000   0.0000   0.0000   0.0000   0.0000   0.0000
     0.0000   0.0000   0.0000   0.0000   0.0000   0.0000   0.0000   0.0000

          k = 0.0000 0.3337-0.1089 (  6586 PWs)   bands (ev):

   -29.0242 -29.0231 -28.4651 -28.4612 -11.1147 -11.0987 -11.0676 -11.0558
   -11.0311 -10.9949 -10.6008 -10.5685 -10.5546 -10.5366 -10.5047 -10.4785
    -7.5694  -7.3744  -6.0480  -5.9651  -5.8841  -5.8456  -5.8283  -5.8175
    -0.8376  -0.6169   1.4434   1.6351   1.7868   1.9634   2.0394   2.4184
     2.7375   3.2985   3.3930   3.6534   3.9298   3.9674   4.1253   4.1763
     4.2711   4.4965   4.5198   4.6824   4.9782   4.9999   5.1856   5.2406
     8.3906   8.7022   9.0813   9.2945   9.5443   9.6886   9.7707   9.9467
    10.3908  10.6117  10.6217  10.6405  10.9207  10.9847  11.1531  11.3356

     occupation numbers 
     1.0000   1.0000   1.0000   1.0000   1.0000   1.0000   1.0000   1.0000
     1.0000   1.0000   1.0000   1.0000   1.0000   1.0000   1.0000   1.0000
     1.0000   1.0000   1.0000   1.0000   1.0000   1.0000   1.0000   1.0000
     1.0000   1.0000   1.0000   1.0000   1.0000   1.0000   1.0000   1.0000
     1.0000   1.0000   1.0000   1.0000   1.0000   1.0000   1.0000   1.0000
     1.0000   1.0000   1.0000   1.0000   1.0000   1.0000   1.0000   1.0000
     0.0000   0.0000   0.0000   0.0000   0.0000   0.0000   0.0000   0.0000
     0.0000   0.0000   0.0000   0.0000   0.0000   0.0000   0.0000   0.0000

          k = 0.0000 0.3337 0.1741 (  6587 PWs)   bands (ev):

   -29.0242 -29.0231 -28.4652 -28.4613 -11.1013 -11.0891 -11.0595 -11.0519
   -11.0302 -10.9946 -10.6069 -10.5847 -10.5557 -10.5422 -10.5192 -10.4788
    -7.5695  -7.3940  -6.0764  -5.9596  -5.8705  -5.8643  -5.8085  -5.7641
    -0.7065  -0.6870   1.4635   1.5873   1.7189   1.8864   2.0329   2.3023
     2.8912   3.3724   3.4307   3.5077   3.6200   3.7985   4.1163   4.1940
     4.4291   4.5253   4.7479   4.8504   4.8530   5.0126   5.1072   5.3499
     8.8551   9.0723   9.2185   9.2890   9.4390   9.7868  10.0531  10.1792
    10.4011  10.4600  10.5484  10.6647  10.8658  10.8992  11.0209  11.1037

     occupation numbers 
     1.0000   1.0000   1.0000   1.0000   1.0000   1.0000   1.0000   1.0000
     1.0000   1.0000   1.0000   1.0000   1.0000   1.0000   1.0000   1.0000
     1.0000   1.0000   1.0000   1.0000   1.0000   1.0000   1.0000   1.0000
     1.0000   1.0000   1.0000   1.0000   1.0000   1.0000   1.0000   1.0000
     1.0000   1.0000   1.0000   1.0000   1.0000   1.0000   1.0000   1.0000
     1.0000   1.0000   1.0000   1.0000   1.0000   1.0000   1.0000   1.0000
     0.0000   0.0000   0.0000   0.0000   0.0000   0.0000   0.0000   0.0000
     0.0000   0.0000   0.0000   0.0000   0.0000   0.0000   0.0000   0.0000

          k = 0.0000 0.3337-0.3919 (  6553 PWs)   bands (ev):

   -29.0242 -29.0231 -28.4652 -28.4613 -11.0980 -11.0945 -11.0612 -11.0506
   -11.0298 -10.9948 -10.6076 -10.5828 -10.5561 -10.5452 -10.5176 -10.4787
    -7.4807  -7.4512  -6.0450  -5.9923  -5.8667  -5.8643  -5.8190  -5.8085
    -0.8036  -0.6057   1.5324   1.7034   1.7282   1.9569   1.9816   2.3982
     2.9443   3.3220   3.4432   3.4820   3.5897   3.8020   4.1091   4.2732
     4.3199   4.3975   4.5676   4.7218   4.8952   5.0689   5.1197   5.2727
     8.6265   8.9699   9.3202   9.4704   9.7103   9.7610   9.9616  10.0853
    10.3870  10.4107  10.5907  10.7066  10.8247  10.9261  11.0245  11.2292

     occupation numbers 
     1.0000   1.0000   1.0000   1.0000   1.0000   1.0000   1.0000   1.0000
     1.0000   1.0000   1.0000   1.0000   1.0000   1.0000   1.0000   1.0000
     1.0000   1.0000   1.0000   1.0000   1.0000   1.0000   1.0000   1.0000
     1.0000   1.0000   1.0000   1.0000   1.0000   1.0000   1.0000   1.0000
     1.0000   1.0000   1.0000   1.0000   1.0000   1.0000   1.0000   1.0000
     1.0000   1.0000   1.0000   1.0000   1.0000   1.0000   1.0000   1.0000
     0.0000   0.0000   0.0000   0.0000   0.0000   0.0000   0.0000   0.0000
     0.0000   0.0000   0.0000   0.0000   0.0000   0.0000   0.0000   0.0000

          k = 0.3333 0.0000 0.0000 (  6550 PWs)   bands (ev):

   -29.0241 -29.0232 -28.4643 -28.4621 -11.1038 -11.0899 -11.0778 -11.0626
   -11.0265 -11.0036 -10.5845 -10.5696 -10.5407 -10.5198 -10.5181 -10.4952
    -7.5944  -7.4018  -6.0704  -5.9963  -5.8774  -5.8756  -5.8093  -5.7685
    -0.6574  -0.4829   1.5401   1.7379   1.8818   1.9531   2.0864   2.1853
     3.0158   3.1612   3.2233   3.6550   3.8642   3.8938   4.0155   4.0623
     4.3760   4.4157   4.4233   4.5838   4.7073   4.7517   4.9649   5.0454
     8.9963   9.1241   9.5269   9.5845   9.6938   9.8191   9.9046  10.2086
    10.2708  10.5845  10.7049  10.7946  10.9605  11.0695  11.0926  11.1732

     occupation numbers 
     1.0000   1.0000   1.0000   1.0000   1.0000   1.0000   1.0000   1.0000
     1.0000   1.0000   1.0000   1.0000   1.0000   1.0000   1.0000   1.0000
     1.0000   1.0000   1.0000   1.0000   1.0000   1.0000   1.0000   1.0000
     1.0000   1.0000   1.0000   1.0000   1.0000   1.0000   1.0000   1.0000
     1.0000   1.0000   1.0000   1.0000   1.0000   1.0000   1.0000   1.0000
     1.0000   1.0000   1.0000   1.0000   1.0000   1.0000   1.0000   1.0000
     0.0000   0.0000   0.0000   0.0000   0.0000   0.0000   0.0000   0.0000
     0.0000   0.0000   0.0000   0.0000   0.0000   0.0000   0.0000   0.0000

          k = 0.3333 0.0000 0.2830 (  6568 PWs)   bands (ev):

   -29.0241 -29.0231 -28.4643 -28.4621 -11.0922 -11.0872 -11.0659 -11.0611
   -11.0253 -11.0034 -10.5869 -10.5709 -10.5624 -10.5334 -10.5204 -10.4949
    -7.5275  -7.4209  -6.0480  -6.0112  -5.9102  -5.8912  -5.8186  -5.7870
    -0.5827  -0.4819   1.6733   1.7708   1.8270   1.9502   2.1657   2.2623
     3.0675   3.2152   3.2254   3.4841   3.7214   3.8358   3.9701   4.1265
     4.2276   4.2837   4.4079   4.4980   4.6398   4.8234   4.9653   5.0121
     9.0842   9.2051   9.4560   9.6205   9.8657  10.0654  10.2015  10.3824
    10.4744  10.5806  10.6462  10.7036  10.9091  11.0525  11.1345  11.3077

     occupation numbers 
     1.0000   1.0000   1.0000   1.0000   1.0000   1.0000   1.0000   1.0000
     1.0000   1.0000   1.0000   1.0000   1.0000   1.0000   1.0000   1.0000
     1.0000   1.0000   1.0000   1.0000   1.0000   1.0000   1.0000   1.0000
     1.0000   1.0000   1.0000   1.0000   1.0000   1.0000   1.0000   1.0000
     1.0000   1.0000   1.0000   1.0000   1.0000   1.0000   1.0000   1.0000
     1.0000   1.0000   1.0000   1.0000   1.0000   1.0000   1.0000   1.0000
     0.0000   0.0000   0.0000   0.0000   0.0000   0.0000   0.0000   0.0000
     0.0000   0.0000   0.0000   0.0000   0.0000   0.0000   0.0000   0.0000

          k = 0.3333 0.3337-0.1089 (  6610 PWs)   bands (ev):

   -29.0239 -29.0234 -28.4642 -28.4622 -11.1018 -11.0981 -11.0848 -11.0739
   -11.0140 -10.9999 -10.6076 -10.5969 -10.5387 -10.5163 -10.5073 -10.4838
    -7.4624  -7.3595  -6.0799  -5.9953  -5.9482  -5.8896  -5.8525  -5.8140
    -0.5532  -0.4233   1.5191   1.7102   1.8066   1.9693   2.0293   2.4057
     2.9479   3.1571   3.2642   3.5667   3.6488   3.8723   4.0321   4.1547
     4.2984   4.3971   4.4855   4.5753   4.6518   4.8271   4.9035   5.0134
     8.6447   8.9474   9.1174   9.4209   9.5536   9.8556  10.1784  10.2301
    10.3892  10.7341  10.8186  10.8790  10.9456  11.0774  11.2163  11.3621

     occupation numbers 
     1.0000   1.0000   1.0000   1.0000   1.0000   1.0000   1.0000   1.0000
     1.0000   1.0000   1.0000   1.0000   1.0000   1.0000   1.0000   1.0000
     1.0000   1.0000   1.0000   1.0000   1.0000   1.0000   1.0000   1.0000
     1.0000   1.0000   1.0000   1.0000   1.0000   1.0000   1.0000   1.0000
     1.0000   1.0000   1.0000   1.0000   1.0000   1.0000   1.0000   1.0000
     1.0000   1.0000   1.0000   1.0000   1.0000   1.0000   1.0000   1.0000
     0.0000   0.0000   0.0000   0.0000   0.0000   0.0000   0.0000   0.0000
     0.0000   0.0000   0.0000   0.0000   0.0000   0.0000   0.0000   0.0000

          k = 0.3333 0.3337 0.1741 (  6609 PWs)   bands (ev):

   -29.0239 -29.0234 -28.4642 -28.4622 -11.0955 -11.0823 -11.0794 -11.0629
   -11.0142 -11.0002 -10.6135 -10.6023 -10.5569 -10.5328 -10.5073 -10.4838
    -7.4701  -7.3759  -6.0863  -5.9923  -5.9243  -5.8993  -5.8422  -5.7810
    -0.4800  -0.4625   1.5318   1.6486   1.7647   1.8556   2.1468   2.2330
     3.0080   3.1860   3.3256   3.5763   3.6608   3.8659   3.9626   4.0749
     4.3554   4.3725   4.4552   4.5477   4.7174   4.8319   4.9126   4.9908
     9.2447   9.2969   9.5277   9.5753   9.6980   9.9983  10.2296  10.2972
    10.3254  10.6319  10.7098  10.8102  10.9559  11.0947  11.1076  11.1824

     occupation numbers 
     1.0000   1.0000   1.0000   1.0000   1.0000   1.0000   1.0000   1.0000
     1.0000   1.0000   1.0000   1.0000   1.0000   1.0000   1.0000   1.0000
     1.0000   1.0000   1.0000   1.0000   1.0000   1.0000   1.0000   1.0000
     1.0000   1.0000   1.0000   1.0000   1.0000   1.0000   1.0000   1.0000
     1.0000   1.0000   1.0000   1.0000   1.0000   1.0000   1.0000   1.0000
     1.0000   1.0000   1.0000   1.0000   1.0000   1.0000   1.0000   1.0000
     0.0000   0.0000   0.0000   0.0000   0.0000   0.0000   0.0000   0.0000
     0.0000   0.0000   0.0000   0.0000   0.0000   0.0000   0.0000   0.0000

          k = 0.3333 0.3337-0.3919 (  6590 PWs)   bands (ev):

   -29.0239 -29.0234 -28.4642 -28.4622 -11.0979 -11.0832 -11.0826 -11.0621
   -11.0134 -10.9999 -10.6123 -10.5999 -10.5578 -10.5318 -10.5081 -10.4838
    -7.4125  -7.3972  -6.0474  -5.9964  -5.9661  -5.9113  -5.8566  -5.8102
    -0.5222  -0.3915   1.6423   1.6810   1.7197   1.9406   2.0900   2.3722
     2.9429   3.1907   3.3354   3.5022   3.5531   3.8034   4.0547   4.0774
     4.2180   4.4062   4.5209   4.5793   4.6589   4.8084   4.8445   4.9826
     9.0876   9.1822   9.3446   9.4925   9.5847   9.9933  10.2088  10.3579
    10.4451  10.6004  10.7037  10.9191  11.0534  11.0807  11.1850  11.4192

     occupation numbers 
     1.0000   1.0000   1.0000   1.0000   1.0000   1.0000   1.0000   1.0000
     1.0000   1.0000   1.0000   1.0000   1.0000   1.0000   1.0000   1.0000
     1.0000   1.0000   1.0000   1.0000   1.0000   1.0000   1.0000   1.0000
     1.0000   1.0000   1.0000   1.0000   1.0000   1.0000   1.0000   1.0000
     1.0000   1.0000   1.0000   1.0000   1.0000   1.0000   1.0000   1.0000
     1.0000   1.0000   1.0000   1.0000   1.0000   1.0000   1.0000   1.0000
     0.0000   0.0000   0.0000   0.0000   0.0000   0.0000   0.0000   0.0000
     0.0000   0.0000   0.0000   0.0000   0.0000   0.0000   0.0000   0.0000

     highest occupied, lowest unoccupied level (ev):     5.3985    8.3906

!    total energy              =    -497.83371695 Ry
     estimated scf accuracy    <       0.00000017 Ry

     The total energy is the sum of the following terms:
     one-electron contribution =     -71.33008257 Ry
     hartree contribution      =      72.25285613 Ry
     xc contribution           =    -153.53458267 Ry
     ewald contribution        =    -345.22190784 Ry

     convergence has been achieved in   9 iterations

     Writing all to output data dir calculations_bands_val/myprefix.save/
 
     init_run     :      8.33s CPU      3.00s WALL (       1 calls)
     electrons    :     52.09s CPU     13.79s WALL (       1 calls)

     Called by init_run:
     wfcinit      :      1.64s CPU      0.43s WALL (       1 calls)
     wfcinit:atom :      0.02s CPU      0.01s WALL (       5 calls)
     wfcinit:wfcr :      1.45s CPU      0.38s WALL (       5 calls)
     potinit      :      2.34s CPU      0.61s WALL (       1 calls)
     hinit0       :      3.98s CPU      1.82s WALL (       1 calls)

     Called by electrons:
     c_bands      :     38.60s CPU     10.03s WALL (      10 calls)
     sum_band     :      9.13s CPU      2.58s WALL (      10 calls)
     v_of_rho     :      1.11s CPU      0.29s WALL (      10 calls)
     v_h          :      0.09s CPU      0.02s WALL (      10 calls)
     v_xc         :      1.02s CPU      0.27s WALL (      10 calls)
     newd         :      3.08s CPU      0.83s WALL (      10 calls)
     mix_rho      :      0.24s CPU      0.06s WALL (      10 calls)

     Called by c_bands:
     init_us_2    :      0.31s CPU      0.08s WALL (     105 calls)
     init_us_2:cp :      0.30s CPU      0.08s WALL (     105 calls)
     cegterg      :     34.38s CPU      8.93s WALL (      50 calls)

     Called by sum_band:
     sum_band:wei :      0.02s CPU      0.00s WALL (      10 calls)
     sum_band:loo :      4.86s CPU      1.27s WALL (      10 calls)
     sum_band:buf :      0.08s CPU      0.02s WALL (      50 calls)
     sum_band:ini :      0.13s CPU      0.03s WALL (      50 calls)
     sum_band:cal :      0.64s CPU      0.16s WALL (      50 calls)
     sum_band:bec :      0.06s CPU      0.02s WALL (      50 calls)
     addusdens    :      3.26s CPU      1.04s WALL (      10 calls)
     addusd:skk   :      0.02s CPU      0.01s WALL (      30 calls)
     addusd:dgemm :      0.61s CPU      0.34s WALL (      30 calls)
     addusd:qvan2 :      2.37s CPU      0.62s WALL (      30 calls)

     Called by *egterg:
     cdiaghg      :      5.08s CPU      1.33s WALL (     272 calls)
     cegterg:over :      1.86s CPU      0.48s WALL (     227 calls)
     cegterg:upda :      0.79s CPU      0.21s WALL (     227 calls)
     cegterg:last :      1.23s CPU      0.32s WALL (     108 calls)
     cdiaghg:chol :      0.37s CPU      0.10s WALL (     272 calls)
     cdiaghg:inve :      0.07s CPU      0.02s WALL (     272 calls)
     cdiaghg:para :      0.82s CPU      0.21s WALL (     544 calls)
     h_psi        :     25.09s CPU      6.52s WALL (     282 calls)
     s_psi        :      1.04s CPU      0.27s WALL (     282 calls)
     g_psi        :      0.05s CPU      0.01s WALL (     227 calls)

     Called by h_psi:
     h_psi:calbec :      2.56s CPU      0.68s WALL (     282 calls)
     vloc_psi     :     21.22s CPU      5.50s WALL (     282 calls)
     add_vuspsi   :      1.21s CPU      0.31s WALL (     282 calls)

     General routines
     calbec       :      3.19s CPU      0.84s WALL (     332 calls)
     fft          :      1.95s CPU      0.51s WALL (     129 calls)
     ffts         :      1.21s CPU      0.32s WALL (      20 calls)
     fftw         :     21.49s CPU      5.59s WALL (   21422 calls)
     interpolate  :      1.25s CPU      0.33s WALL (      10 calls)
 
     Parallel routines
 
     PWSCF        :   1m 1.61s CPU     17.45s WALL

 
   This run was terminated on:  11:34: 2   4Jun2023            

=------------------------------------------------------------------------------=
   JOB DONE.
=------------------------------------------------------------------------------=
