
     Program PWSCF v.7.0 starts on  4Jun2023 at 10:33:58 

     This program is part of the open-source Quantum ESPRESSO suite
     for quantum simulation of materials; please cite
         "P. Giannozzi et al., J. Phys.:Condens. Matter 21 395502 (2009);
         "P. Giannozzi et al., J. Phys.:Condens. Matter 29 465901 (2017);
         "P. Giannozzi et al., J. Chem. Phys. 152 154105 (2020);
          URL http://www.quantum-espresso.org", 
     in publications or presentations arising from this work. More details at
     http://www.quantum-espresso.org/quote

     Parallel version (MPI & OpenMP), running on      32 processor cores
     Number of MPI processes:                 8
     Threads/MPI process:                     4

     MPI processes distributed on     1 nodes
     K-points division:     npool     =       2
     R & G space division:  proc/nbgrp/npool/nimage =       4
     147179 MiB available memory on the printing compute node when the environment starts
 
     Reading input from espresso_50.pwi
Warning: card &CELL ignored
Warning: card / ignored

     Current dimensions of program PWSCF are:
     Max number of different atomic species (ntypx) = 10
     Max number of k-points (npk) =  40000
     Max angular momentum in pseudopotentials (lmaxx) =  4
     Message from routine setup:
     using ibrav=0 with symmetry is DISCOURAGED, use correct ibrav instead

     Subspace diagonalization in iterative solution of the eigenvalue problem:
     one sub-group per band group will be used
     scalapack distributed-memory algorithm (size of sub-group:  2*  2 procs)

 
     Parallelization info
     --------------------
     sticks:   dense  smooth     PW     G-vecs:    dense   smooth      PW
     Min         286     145     40                 7470     2618     432
     Max         287     146     41                 7473     2619     435
     Sum        1147     583    163                29889    10473    1737
 
     Using Slab Decomposition
 


     bravais-lattice index     =            0
     lattice parameter (alat)  =       8.3058  a.u.
     unit-cell volume          =     473.4611 (a.u.)^3
     number of atoms/cell      =            3
     number of atomic types    =            3
     number of electrons       =        46.00
     number of Kohn-Sham states=           64
     kinetic-energy cutoff     =      30.0000  Ry
     charge density cutoff     =     240.0000  Ry
     scf convergence threshold =      1.0E-06
     mixing beta               =       0.7000
     number of iterations used =            8  plain     mixing
     Exchange-correlation=  SLA  PW   PBX  PBC
                           (   1   4   3   4   0   0   0)

     celldm(1)=   8.305816  celldm(2)=   0.000000  celldm(3)=   0.000000
     celldm(4)=   0.000000  celldm(5)=   0.000000  celldm(6)=   0.000000

     crystal axes: (cart. coord. in units of alat)
               a(1) = (   1.000000   0.000000   0.000000 )  
               a(2) = (  -0.500000   0.866025   0.000000 )  
               a(3) = (   0.000000   0.000000   0.954128 )  

     reciprocal axes: (cart. coord. in units 2 pi/alat)
               b(1) = (  1.000000  0.577350  0.000000 )  
               b(2) = (  0.000000  1.154701  0.000000 )  
               b(3) = (  0.000000  0.000000  1.048077 )  


     PseudoPot. # 1 for Pr read from file:
     /home/pragov/projects/rrg-bengioy-ad/pragov/crystal_structure_design/SSSP/Pr.GGA-PBE-paw-v1.0.UPF
     MD5 check sum: b5e1e58e76df433569641143f671cc27
     Pseudo is Projector augmented-wave + core cor, Zval = 13.0
     Generated using ATOMPAW code
     Shape of augmentation charge: BESSEL
     Using radial grid of 1103 points,  8 beta functions with: 
                l(1) =   0
                l(2) =   0
                l(3) =   1
                l(4) =   1
                l(5) =   2
                l(6) =   2
                l(7) =   3
                l(8) =   3
     Q(r) pseudized with 0 coefficients 


     PseudoPot. # 2 for Ni read from file:
     /home/pragov/projects/rrg-bengioy-ad/pragov/crystal_structure_design/SSSP/ni_pbe_v1.4.uspp.F.UPF
     MD5 check sum: 1ee80287db30b12d2bc1f57a5b5d6409
     Pseudo is Ultrasoft + core correction, Zval = 18.0
     Generated by new atomic code, or converted to UPF format
     Using radial grid of  865 points,  6 beta functions with: 
                l(1) =   0
                l(2) =   0
                l(3) =   1
                l(4) =   1
                l(5) =   2
                l(6) =   2
     Q(r) pseudized with 10 coefficients,  rinner =    0.980   0.980   0.980
                                                       0.980   0.980

     PseudoPot. # 3 for Sb read from file:
     /home/pragov/projects/rrg-bengioy-ad/pragov/crystal_structure_design/SSSP/sb_pbe_v1.4.uspp.F.UPF
     MD5 check sum: 9bc50dfb53373b713f5709b9110fe27f
     Pseudo is Ultrasoft + core correction, Zval = 15.0
     Generated by new atomic code, or converted to UPF format
     Using radial grid of  891 points,  6 beta functions with: 
                l(1) =   0
                l(2) =   0
                l(3) =   1
                l(4) =   1
                l(5) =   2
                l(6) =   2
     Q(r) pseudized with  8 coefficients,  rinner =    1.350   1.350   1.350
                                                       1.350   1.350

     atomic species   valence    mass     pseudopotential
        Pr            13.00   140.90766     Pr( 1.00)
        Ni            18.00    58.69340     Ni( 1.00)
        Sb            15.00   121.76000     Sb( 1.00)

     12 Sym. Ops. (no inversion) found


                                    s                        frac. trans.

      isym =  1     identity                                     

 cryst.   s( 1) = (     1          0          0      )
                  (     0          1          0      )
                  (     0          0          1      )

 cart.    s( 1) = (  1.0000000  0.0000000  0.0000000 )
                  (  0.0000000  1.0000000  0.0000000 )
                  (  0.0000000  0.0000000  1.0000000 )


      isym =  2     180 deg rotation - cart. axis [0,1,0]        

 cryst.   s( 2) = (    -1          0          0      )
                  (     1          1          0      )
                  (     0          0         -1      )

 cart.    s( 2) = ( -1.0000000 -0.0000003  0.0000000 )
                  (  0.0000000  1.0000000  0.0000000 )
                  (  0.0000000  0.0000000 -1.0000000 )


      isym =  3     120 deg rotation - cryst. axis [0,0,1]       

 cryst.   s( 3) = (     0          1          0      )
                  (    -1         -1          0      )
                  (     0          0          1      )

 cart.    s( 3) = ( -0.5000001 -0.8660255  0.0000000 )
                  (  0.8660253 -0.4999999  0.0000000 )
                  (  0.0000000  0.0000000  1.0000000 )


      isym =  4     120 deg rotation - cryst. axis [0,0,-1]      

 cryst.   s( 4) = (    -1         -1          0      )
                  (     1          0          0      )
                  (     0          0          1      )

 cart.    s( 4) = ( -0.4999999  0.8660255  0.0000000 )
                  ( -0.8660253 -0.5000001  0.0000000 )
                  (  0.0000000  0.0000000  1.0000000 )


      isym =  5     180 deg rotation - cryst. axis [1,-1,0]      

 cryst.   s( 5) = (     0         -1          0      )
                  (    -1          0          0      )
                  (     0          0         -1      )

 cart.    s( 5) = (  0.5000001 -0.8660253  0.0000000 )
                  ( -0.8660253 -0.5000001  0.0000000 )
                  (  0.0000000  0.0000000 -1.0000000 )


      isym =  6     180 deg rotation - cryst. axis [2,1,0]       

 cryst.   s( 6) = (     1          1          0      )
                  (     0         -1          0      )
                  (     0          0         -1      )

 cart.    s( 6) = (  0.4999999  0.8660256  0.0000000 )
                  (  0.8660253 -0.4999999  0.0000000 )
                  (  0.0000000  0.0000000 -1.0000000 )


      isym =  7     inv. 180 deg rotation - cart. axis [0,0,1]   

 cryst.   s( 7) = (     1          0          0      )
                  (     0          1          0      )
                  (     0          0         -1      )

 cart.    s( 7) = (  1.0000000  0.0000000  0.0000000 )
                  (  0.0000000  1.0000000  0.0000000 )
                  (  0.0000000  0.0000000 -1.0000000 )


      isym =  8     inv. 180 deg rotation - cart. axis [1,0,0]   

 cryst.   s( 8) = (    -1          0          0      )
                  (     1          1          0      )
                  (     0          0          1      )

 cart.    s( 8) = ( -1.0000000 -0.0000003  0.0000000 )
                  (  0.0000000  1.0000000  0.0000000 )
                  (  0.0000000  0.0000000  1.0000000 )


      isym =  9     inv.  60 deg rotation - cryst. axis [0,0,1]  

 cryst.   s( 9) = (    -1         -1          0      )
                  (     1          0          0      )
                  (     0          0         -1      )

 cart.    s( 9) = ( -0.4999999  0.8660255  0.0000000 )
                  ( -0.8660253 -0.5000001  0.0000000 )
                  (  0.0000000  0.0000000 -1.0000000 )


      isym = 10     inv.  60 deg rotation - cryst. axis [0,0,-1] 

 cryst.   s(10) = (     0          1          0      )
                  (    -1         -1          0      )
                  (     0          0         -1      )

 cart.    s(10) = ( -0.5000001 -0.8660255  0.0000000 )
                  (  0.8660253 -0.4999999  0.0000000 )
                  (  0.0000000  0.0000000 -1.0000000 )


      isym = 11     inv. 180 deg rotation - cryst. axis [0,1,0]  

 cryst.   s(11) = (     1          1          0      )
                  (     0         -1          0      )
                  (     0          0          1      )

 cart.    s(11) = (  0.4999999  0.8660256  0.0000000 )
                  (  0.8660253 -0.4999999  0.0000000 )
                  (  0.0000000  0.0000000  1.0000000 )


      isym = 12     inv. 180 deg rotation - cryst. axis [1,1,0]  

 cryst.   s(12) = (     0         -1          0      )
                  (    -1          0          0      )
                  (     0          0          1      )

 cart.    s(12) = (  0.5000001 -0.8660253  0.0000000 )
                  ( -0.8660253 -0.5000001  0.0000000 )
                  (  0.0000000  0.0000000  1.0000000 )


   Cartesian axes

     site n.     atom                  positions (alat units)
         1           Pr  tau(   1) = (   0.5000005   0.2886748   0.0000000  )
         2           Ni  tau(   2) = (   0.0000000   0.0000000   0.4770642  )
         3           Sb  tau(   3) = (  -0.0000006   0.5773505   0.4770642  )

   Crystallographic axes

     site n.     atom                  positions (cryst. coord.)
         1           Pr  tau(   1) = (  0.6666670  0.3333330  0.0000000  )
         2           Ni  tau(   2) = (  0.0000000  0.0000000  0.5000000  )
         3           Sb  tau(   3) = (  0.3333330  0.6666670  0.5000000  )

     number of k points=     6
                       cart. coord. in units 2pi/alat
        k(    1) = (   0.0000000   0.0000000   0.0000000), wk =   0.0740741
        k(    2) = (   0.0000000   0.0000000   0.3493590), wk =   0.1481481
        k(    3) = (   0.0000000   0.3849002   0.0000000), wk =   0.4444444
        k(    4) = (   0.0000000   0.3849002   0.3493590), wk =   0.8888889
        k(    5) = (   0.3333333   0.5773504   0.0000000), wk =   0.1481481
        k(    6) = (   0.3333333   0.5773504   0.3493590), wk =   0.2962963

                       cryst. coord.
        k(    1) = (   0.0000000   0.0000000   0.0000000), wk =   0.0740741
        k(    2) = (   0.0000000   0.0000000   0.3333333), wk =   0.1481481
        k(    3) = (   0.0000000   0.3333333   0.0000000), wk =   0.4444444
        k(    4) = (   0.0000000   0.3333333   0.3333333), wk =   0.8888889
        k(    5) = (   0.3333333   0.3333333   0.0000000), wk =   0.1481481
        k(    6) = (   0.3333333   0.3333333   0.3333333), wk =   0.2962963

     Dense  grid:    29889 G-vectors     FFT dimensions: (  45,  45,  40)

     Smooth grid:    10473 G-vectors     FFT dimensions: (  30,  30,  27)

     Dynamical RAM for                 wfc:       0.32 MB

     Dynamical RAM for     wfc (w. buffer):       1.28 MB

     Dynamical RAM for           str. fact:       0.34 MB

     Dynamical RAM for           local pot:       0.00 MB

     Dynamical RAM for          nlocal pot:       0.34 MB

     Dynamical RAM for                qrad:       8.96 MB

     Dynamical RAM for          rho,v,vnew:       0.81 MB

     Dynamical RAM for               rhoin:       0.27 MB

     Dynamical RAM for            rho*nmix:       1.82 MB

     Dynamical RAM for           G-vectors:       0.45 MB

     Dynamical RAM for          h,s,v(r/c):       0.19 MB

     Dynamical RAM for          <psi|beta>:       0.07 MB

     Dynamical RAM for                 psi:       0.64 MB

     Dynamical RAM for                hpsi:       0.64 MB

     Dynamical RAM for                spsi:       0.64 MB

     Dynamical RAM for      wfcinit/wfcrot:       0.73 MB

     Dynamical RAM for           addusdens:      31.75 MB

     Estimated static dynamical RAM per process >      13.67 MB

     Estimated max dynamical RAM per process >      47.25 MB

     Estimated total dynamical RAM >     370.69 MB

     Check: negative core charge=   -0.000005

     Initial potential from superposition of free atoms

     starting charge      42.9926, renormalised to      46.0000
     Starting wfcs are   54 randomized atomic wfcs +   10 random wfcs
     Checking if some PAW data can be deallocated... 
       PAW data deallocated on    5 nodes for type:  1

     total cpu time spent up to now is        2.0 secs

     Self-consistent Calculation

     iteration #  1     ecut=    30.00 Ry     beta= 0.70
     Davidson diagonalization with overlap

---- Real-time Memory Report at c_bands before calling an iterative solver
           195 MiB given to the printing process from OS
             0 MiB allocation reported by mallinfo(arena+hblkhd)
        146618 MiB available memory on the node where the printing process lives
------------------
     ethr =  1.00E-02,  avg # of iterations =  6.2

     total cpu time spent up to now is        2.6 secs

     total energy              =    -998.76209569 Ry
     estimated scf accuracy    <      50.60088008 Ry

     iteration #  2     ecut=    30.00 Ry     beta= 0.70
     Davidson diagonalization with overlap

---- Real-time Memory Report at c_bands before calling an iterative solver
           233 MiB given to the printing process from OS
             0 MiB allocation reported by mallinfo(arena+hblkhd)
        146464 MiB available memory on the node where the printing process lives
------------------
     ethr =  1.00E-02,  avg # of iterations =  3.3

     total cpu time spent up to now is        3.3 secs

     total energy              =   -1026.98601200 Ry
     estimated scf accuracy    <     155.99399964 Ry

     iteration #  3     ecut=    30.00 Ry     beta= 0.70
     Davidson diagonalization with overlap

---- Real-time Memory Report at c_bands before calling an iterative solver
           236 MiB given to the printing process from OS
             0 MiB allocation reported by mallinfo(arena+hblkhd)
        146449 MiB available memory on the node where the printing process lives
------------------
     ethr =  1.00E-02,  avg # of iterations =  3.3

     total cpu time spent up to now is        3.9 secs

     total energy              =   -1034.83031030 Ry
     estimated scf accuracy    <      37.59824473 Ry

     iteration #  4     ecut=    30.00 Ry     beta= 0.70
     Davidson diagonalization with overlap

---- Real-time Memory Report at c_bands before calling an iterative solver
           236 MiB given to the printing process from OS
             0 MiB allocation reported by mallinfo(arena+hblkhd)
        146447 MiB available memory on the node where the printing process lives
------------------
     ethr =  1.00E-02,  avg # of iterations =  2.2

     total cpu time spent up to now is        4.4 secs

     total energy              =   -1037.81454541 Ry
     estimated scf accuracy    <      20.39140720 Ry

     iteration #  5     ecut=    30.00 Ry     beta= 0.70
     Davidson diagonalization with overlap

---- Real-time Memory Report at c_bands before calling an iterative solver
           236 MiB given to the printing process from OS
             0 MiB allocation reported by mallinfo(arena+hblkhd)
        146448 MiB available memory on the node where the printing process lives
------------------
     ethr =  1.00E-02,  avg # of iterations =  2.0

     total cpu time spent up to now is        4.9 secs

     total energy              =   -1036.97278949 Ry
     estimated scf accuracy    <       8.89413000 Ry

     iteration #  6     ecut=    30.00 Ry     beta= 0.70
     Davidson diagonalization with overlap

---- Real-time Memory Report at c_bands before calling an iterative solver
           237 MiB given to the printing process from OS
             0 MiB allocation reported by mallinfo(arena+hblkhd)
        146449 MiB available memory on the node where the printing process lives
------------------
     ethr =  1.00E-02,  avg # of iterations =  1.2

     total cpu time spent up to now is        5.5 secs

     total energy              =   -1036.38809379 Ry
     estimated scf accuracy    <       4.66423046 Ry

     iteration #  7     ecut=    30.00 Ry     beta= 0.70
     Davidson diagonalization with overlap

---- Real-time Memory Report at c_bands before calling an iterative solver
           237 MiB given to the printing process from OS
             0 MiB allocation reported by mallinfo(arena+hblkhd)
        146450 MiB available memory on the node where the printing process lives
------------------
     ethr =  1.00E-02,  avg # of iterations =  1.0

     total cpu time spent up to now is        6.5 secs

     total energy              =   -1036.67817251 Ry
     estimated scf accuracy    <       1.27728661 Ry

     iteration #  8     ecut=    30.00 Ry     beta= 0.70
     Davidson diagonalization with overlap

---- Real-time Memory Report at c_bands before calling an iterative solver
           237 MiB given to the printing process from OS
             0 MiB allocation reported by mallinfo(arena+hblkhd)
        146451 MiB available memory on the node where the printing process lives
------------------
     ethr =  2.78E-03,  avg # of iterations =  1.2

     total cpu time spent up to now is        6.9 secs

     total energy              =   -1036.71083677 Ry
     estimated scf accuracy    <       1.04125869 Ry

     iteration #  9     ecut=    30.00 Ry     beta= 0.70
     Davidson diagonalization with overlap

---- Real-time Memory Report at c_bands before calling an iterative solver
           237 MiB given to the printing process from OS
             0 MiB allocation reported by mallinfo(arena+hblkhd)
        146478 MiB available memory on the node where the printing process lives
------------------
     ethr =  2.26E-03,  avg # of iterations =  1.3

     total cpu time spent up to now is        7.4 secs

     total energy              =   -1036.64014371 Ry
     estimated scf accuracy    <       1.19777266 Ry

     iteration # 10     ecut=    30.00 Ry     beta= 0.70
     Davidson diagonalization with overlap

---- Real-time Memory Report at c_bands before calling an iterative solver
           237 MiB given to the printing process from OS
             0 MiB allocation reported by mallinfo(arena+hblkhd)
        146451 MiB available memory on the node where the printing process lives
------------------
     ethr =  2.26E-03,  avg # of iterations =  1.3

     total cpu time spent up to now is        8.0 secs

     total energy              =   -1036.24384660 Ry
     estimated scf accuracy    <       0.88127313 Ry

     iteration # 11     ecut=    30.00 Ry     beta= 0.70
     Davidson diagonalization with overlap

---- Real-time Memory Report at c_bands before calling an iterative solver
           237 MiB given to the printing process from OS
             0 MiB allocation reported by mallinfo(arena+hblkhd)
        146451 MiB available memory on the node where the printing process lives
------------------
     ethr =  1.92E-03,  avg # of iterations =  1.5

     total cpu time spent up to now is        8.5 secs

     total energy              =   -1037.15369659 Ry
     estimated scf accuracy    <      18.08342600 Ry

     iteration # 12     ecut=    30.00 Ry     beta= 0.70
     Davidson diagonalization with overlap

---- Real-time Memory Report at c_bands before calling an iterative solver
           237 MiB given to the printing process from OS
             0 MiB allocation reported by mallinfo(arena+hblkhd)
        146451 MiB available memory on the node where the printing process lives
------------------
     ethr =  1.92E-03,  avg # of iterations =  1.0

     total cpu time spent up to now is        8.9 secs

     total energy              =   -1037.48165148 Ry
     estimated scf accuracy    <      68.46027020 Ry

     iteration # 13     ecut=    30.00 Ry     beta= 0.70
     Davidson diagonalization with overlap

---- Real-time Memory Report at c_bands before calling an iterative solver
           237 MiB given to the printing process from OS
             0 MiB allocation reported by mallinfo(arena+hblkhd)
        146451 MiB available memory on the node where the printing process lives
------------------
     ethr =  1.92E-03,  avg # of iterations =  1.0

     total cpu time spent up to now is        9.3 secs

     total energy              =   -1037.23630048 Ry
     estimated scf accuracy    <      70.99772660 Ry

     iteration # 14     ecut=    30.00 Ry     beta= 0.70
     Davidson diagonalization with overlap

---- Real-time Memory Report at c_bands before calling an iterative solver
           237 MiB given to the printing process from OS
             0 MiB allocation reported by mallinfo(arena+hblkhd)
        146451 MiB available memory on the node where the printing process lives
------------------
     ethr =  1.92E-03,  avg # of iterations =  1.0

     total cpu time spent up to now is        9.9 secs

     total energy              =   -1036.88331463 Ry
     estimated scf accuracy    <      65.54734352 Ry

     iteration # 15     ecut=    30.00 Ry     beta= 0.70
     Davidson diagonalization with overlap

---- Real-time Memory Report at c_bands before calling an iterative solver
           237 MiB given to the printing process from OS
             0 MiB allocation reported by mallinfo(arena+hblkhd)
        146450 MiB available memory on the node where the printing process lives
------------------
     ethr =  1.92E-03,  avg # of iterations =  1.0

     total cpu time spent up to now is       10.6 secs

     total energy              =   -1036.33140902 Ry
     estimated scf accuracy    <      35.63991894 Ry

     iteration # 16     ecut=    30.00 Ry     beta= 0.70
     Davidson diagonalization with overlap

---- Real-time Memory Report at c_bands before calling an iterative solver
           238 MiB given to the printing process from OS
             0 MiB allocation reported by mallinfo(arena+hblkhd)
        146450 MiB available memory on the node where the printing process lives
------------------
     ethr =  1.92E-03,  avg # of iterations =  1.0

     total cpu time spent up to now is       11.0 secs

     total energy              =   -1036.42669177 Ry
     estimated scf accuracy    <       1.72048085 Ry

     iteration # 17     ecut=    30.00 Ry     beta= 0.70
     Davidson diagonalization with overlap

---- Real-time Memory Report at c_bands before calling an iterative solver
           238 MiB given to the printing process from OS
             0 MiB allocation reported by mallinfo(arena+hblkhd)
        146452 MiB available memory on the node where the printing process lives
------------------
     ethr =  1.92E-03,  avg # of iterations =  1.0

     total cpu time spent up to now is       11.5 secs

     total energy              =   -1036.50774263 Ry
     estimated scf accuracy    <       0.09962101 Ry

     iteration # 18     ecut=    30.00 Ry     beta= 0.70
     Davidson diagonalization with overlap

---- Real-time Memory Report at c_bands before calling an iterative solver
           238 MiB given to the printing process from OS
             0 MiB allocation reported by mallinfo(arena+hblkhd)
        146472 MiB available memory on the node where the printing process lives
------------------
     ethr =  2.17E-04,  avg # of iterations =  1.2

     total cpu time spent up to now is       11.9 secs

     total energy              =   -1036.50121912 Ry
     estimated scf accuracy    <       0.11132750 Ry

     iteration # 19     ecut=    30.00 Ry     beta= 0.70
     Davidson diagonalization with overlap

---- Real-time Memory Report at c_bands before calling an iterative solver
           238 MiB given to the printing process from OS
             0 MiB allocation reported by mallinfo(arena+hblkhd)
        146453 MiB available memory on the node where the printing process lives
------------------
     ethr =  2.17E-04,  avg # of iterations =  1.0

     total cpu time spent up to now is       12.4 secs

     total energy              =   -1036.49411932 Ry
     estimated scf accuracy    <       0.37377735 Ry

     iteration # 20     ecut=    30.00 Ry     beta= 0.70
     Davidson diagonalization with overlap

---- Real-time Memory Report at c_bands before calling an iterative solver
           238 MiB given to the printing process from OS
             0 MiB allocation reported by mallinfo(arena+hblkhd)
        146453 MiB available memory on the node where the printing process lives
------------------
     ethr =  2.17E-04,  avg # of iterations =  1.0

     total cpu time spent up to now is       12.8 secs

     total energy              =   -1036.50176454 Ry
     estimated scf accuracy    <       0.21597930 Ry

     iteration # 21     ecut=    30.00 Ry     beta= 0.70
     Davidson diagonalization with overlap

---- Real-time Memory Report at c_bands before calling an iterative solver
           238 MiB given to the printing process from OS
             0 MiB allocation reported by mallinfo(arena+hblkhd)
        146452 MiB available memory on the node where the printing process lives
------------------
     ethr =  2.17E-04,  avg # of iterations =  1.0

     total cpu time spent up to now is       13.2 secs

     total energy              =   -1036.50558753 Ry
     estimated scf accuracy    <       0.33753299 Ry

     iteration # 22     ecut=    30.00 Ry     beta= 0.70
     Davidson diagonalization with overlap

---- Real-time Memory Report at c_bands before calling an iterative solver
           238 MiB given to the printing process from OS
             0 MiB allocation reported by mallinfo(arena+hblkhd)
        146454 MiB available memory on the node where the printing process lives
------------------
     ethr =  2.17E-04,  avg # of iterations =  1.0

     total cpu time spent up to now is       13.9 secs

     total energy              =   -1036.50320204 Ry
     estimated scf accuracy    <       0.27183099 Ry

     iteration # 23     ecut=    30.00 Ry     beta= 0.70
     Davidson diagonalization with overlap

---- Real-time Memory Report at c_bands before calling an iterative solver
           238 MiB given to the printing process from OS
             0 MiB allocation reported by mallinfo(arena+hblkhd)
        146453 MiB available memory on the node where the printing process lives
------------------
     ethr =  2.17E-04,  avg # of iterations =  1.0

     total cpu time spent up to now is       14.6 secs

     total energy              =   -1036.49624898 Ry
     estimated scf accuracy    <       0.24109139 Ry

     iteration # 24     ecut=    30.00 Ry     beta= 0.70
     Davidson diagonalization with overlap

---- Real-time Memory Report at c_bands before calling an iterative solver
           238 MiB given to the printing process from OS
             0 MiB allocation reported by mallinfo(arena+hblkhd)
        146453 MiB available memory on the node where the printing process lives
------------------
     ethr =  2.17E-04,  avg # of iterations =  1.0

     total cpu time spent up to now is       15.4 secs

     total energy              =   -1036.48591801 Ry
     estimated scf accuracy    <       0.15121698 Ry

     iteration # 25     ecut=    30.00 Ry     beta= 0.70
     Davidson diagonalization with overlap

---- Real-time Memory Report at c_bands before calling an iterative solver
           238 MiB given to the printing process from OS
             0 MiB allocation reported by mallinfo(arena+hblkhd)
        146456 MiB available memory on the node where the printing process lives
------------------
     ethr =  2.17E-04,  avg # of iterations =  1.0

     total cpu time spent up to now is       16.2 secs

     total energy              =   -1036.49272761 Ry
     estimated scf accuracy    <       0.01151647 Ry

     iteration # 26     ecut=    30.00 Ry     beta= 0.70
     Davidson diagonalization with overlap

---- Real-time Memory Report at c_bands before calling an iterative solver
           238 MiB given to the printing process from OS
             0 MiB allocation reported by mallinfo(arena+hblkhd)
        146453 MiB available memory on the node where the printing process lives
------------------
     ethr =  2.50E-05,  avg # of iterations =  1.0

     total cpu time spent up to now is       17.1 secs

     total energy              =   -1036.49321856 Ry
     estimated scf accuracy    <       0.00323727 Ry

     iteration # 27     ecut=    30.00 Ry     beta= 0.70
     Davidson diagonalization with overlap

---- Real-time Memory Report at c_bands before calling an iterative solver
           238 MiB given to the printing process from OS
             0 MiB allocation reported by mallinfo(arena+hblkhd)
        146483 MiB available memory on the node where the printing process lives
------------------
     ethr =  7.04E-06,  avg # of iterations =  1.2

     total cpu time spent up to now is       17.7 secs

     total energy              =   -1036.49337374 Ry
     estimated scf accuracy    <       0.00003731 Ry

     iteration # 28     ecut=    30.00 Ry     beta= 0.70
     Davidson diagonalization with overlap

---- Real-time Memory Report at c_bands before calling an iterative solver
           238 MiB given to the printing process from OS
             0 MiB allocation reported by mallinfo(arena+hblkhd)
        146457 MiB available memory on the node where the printing process lives
------------------
     ethr =  8.11E-08,  avg # of iterations =  3.3

     total cpu time spent up to now is       18.1 secs

     total energy              =   -1036.49339746 Ry
     estimated scf accuracy    <       0.00000814 Ry

     iteration # 29     ecut=    30.00 Ry     beta= 0.70
     Davidson diagonalization with overlap

---- Real-time Memory Report at c_bands before calling an iterative solver
           238 MiB given to the printing process from OS
             0 MiB allocation reported by mallinfo(arena+hblkhd)
        146455 MiB available memory on the node where the printing process lives
------------------
     ethr =  1.77E-08,  avg # of iterations =  1.5

     total cpu time spent up to now is       18.6 secs

     total energy              =   -1036.49340022 Ry
     estimated scf accuracy    <       0.00002006 Ry

     iteration # 30     ecut=    30.00 Ry     beta= 0.70
     Davidson diagonalization with overlap

---- Real-time Memory Report at c_bands before calling an iterative solver
           238 MiB given to the printing process from OS
             0 MiB allocation reported by mallinfo(arena+hblkhd)
        146457 MiB available memory on the node where the printing process lives
------------------
     ethr =  1.77E-08,  avg # of iterations =  1.0

     total cpu time spent up to now is       19.0 secs

     End of self-consistent calculation

          k = 0.0000 0.0000 0.0000 (  1303 PWs)   bands (ev):

   -90.2953 -50.6780 -50.6780 -50.5344 -23.0464 -15.7127 -15.7127 -15.7079
   -15.6986 -15.6986  -5.0397  -4.9719  -4.9719   2.4593   9.7926   9.7926
    10.7693  11.3672  11.3672  12.0804  12.5956  12.6245  12.6245  13.0581
    13.0581  13.1260  13.1260  13.2828  13.4294  13.6648  14.9643  16.0204
    16.0205  17.3613  17.3614  18.8122  18.8122  18.8877  21.7090  24.1001
    24.1002  26.3872  26.6992  28.9435  28.9436  29.8597  29.8597  31.2711
    32.5898  33.7025  33.7026  35.1643  36.5732  36.5732  38.0390  38.0390
    38.1281  40.0235  40.0235  40.1200  40.8842  41.4315  42.7556  42.9174

     occupation numbers 
     1.0000   1.0000   1.0000   1.0000   1.0000   1.0000   1.0000   1.0000
     1.0000   1.0000   1.0000   1.0000   1.0000   1.0000   1.0000   1.0000
     1.0000   1.0000   1.0000   1.0000   1.0000   1.0000   1.0000   0.0000
     0.0000   0.0000   0.0000   0.0000   0.0000   0.0000   0.0000   0.0000
     0.0000   0.0000   0.0000   0.0000   0.0000   0.0000   0.0000   0.0000
     0.0000   0.0000   0.0000   0.0000   0.0000   0.0000   0.0000   0.0000
     0.0000   0.0000   0.0000   0.0000   0.0000   0.0000   0.0000   0.0000
     0.0000   0.0000   0.0000   0.0000   0.0000   0.0000   0.0000   0.0000

          k = 0.0000 0.0000 0.3494 (  1322 PWs)   bands (ev):

   -90.2972 -50.6851 -50.6851 -50.5367 -23.0375 -15.7177 -15.7177 -15.7076
   -15.7076 -15.6981  -5.2767  -4.9510  -4.9510   3.2035   9.2220   9.7335
     9.7336  11.2284  11.2284  11.6498  12.7232  12.7232  12.8454  13.0806
    13.0905  13.0905  13.2828  13.8321  13.8321  14.4872  14.4872  15.2201
    16.0905  16.1621  16.1622  18.8390  21.4771  21.4772  21.8970  23.5963
    26.1304  26.1304  27.0127  27.0127  29.6981  30.6518  30.7368  30.7368
    31.6397  33.1507  33.2190  33.2190  36.3575  36.3576  36.8827  36.8828
    37.0166  38.3253  38.6602  38.6603  40.4861  40.9744  40.9746  42.0083

     occupation numbers 
     1.0000   1.0000   1.0000   1.0000   1.0000   1.0000   1.0000   1.0000
     1.0000   1.0000   1.0000   1.0000   1.0000   1.0000   1.0000   1.0000
     1.0000   1.0000   1.0000   1.0000   1.0000   1.0000   1.0000   0.0000
     0.0000   0.0000   0.0000   0.0000   0.0000   0.0000   0.0000   0.0000
     0.0000   0.0000   0.0000   0.0000   0.0000   0.0000   0.0000   0.0000
     0.0000   0.0000   0.0000   0.0000   0.0000   0.0000   0.0000   0.0000
     0.0000   0.0000   0.0000   0.0000   0.0000   0.0000   0.0000   0.0000
     0.0000   0.0000   0.0000   0.0000   0.0000   0.0000   0.0000   0.0000

          k = 0.0000 0.3849 0.0000 (  1300 PWs)   bands (ev):

   -90.2959 -50.6829 -50.6761 -50.5355 -23.0377 -15.7139 -15.7136 -15.7101
   -15.7028 -15.6965  -5.1673  -5.0131  -5.0090   3.3050   8.3206  10.2700
    10.7788  10.9639  11.3160  11.3890  12.1303  12.3102  12.8859  13.0512
    13.0791  13.1206  13.1222  13.2942  13.3435  13.4400  15.8991  15.9430
    16.3501  17.1636  17.4078  20.1806  20.5341  20.6591  22.4264  24.1134
    25.2121  25.7402  26.6308  27.0538  28.5706  29.0713  29.4462  29.7284
    31.5634  32.8538  33.0266  34.9396  35.0802  36.1891  36.4007  36.7695
    38.2096  38.7712  39.7189  39.8422  40.8119  40.9262  41.9733  42.1909

     occupation numbers 
     1.0000   1.0000   1.0000   1.0000   1.0000   1.0000   1.0000   1.0000
     1.0000   1.0000   1.0000   1.0000   1.0000   1.0000   1.0000   1.0000
     1.0000   1.0000   1.0000   1.0000   1.0000   1.0000   1.0000   0.0000
     0.0000   0.0000   0.0000   0.0000   0.0000   0.0000   0.0000   0.0000
     0.0000   0.0000   0.0000   0.0000   0.0000   0.0000   0.0000   0.0000
     0.0000   0.0000   0.0000   0.0000   0.0000   0.0000   0.0000   0.0000
     0.0000   0.0000   0.0000   0.0000   0.0000   0.0000   0.0000   0.0000
     0.0000   0.0000   0.0000   0.0000   0.0000   0.0000   0.0000   0.0000

          k = 0.0000 0.3849 0.3494 (  1315 PWs)   bands (ev):

   -90.2973 -50.6832 -50.6810 -50.5425 -23.0297 -15.7188 -15.7133 -15.7103
   -15.7060 -15.7006  -5.2097  -5.1155  -4.9858   3.5262   8.7705   9.8604
    10.0589  11.3087  11.3299  11.4595  11.7979  11.9071  12.8849  13.0450
    13.0765  13.0854  13.1365  13.1466  13.2581  13.5326  15.5343  15.8393
    17.1628  18.0406  18.2393  19.9398  21.0902  21.6863  21.9242  23.7210
    23.9354  25.9908  26.8662  27.1519  28.7529  29.2263  29.5638  30.3128
    31.3232  32.8571  33.8653  34.2318  34.9755  35.3088  36.0009  36.2210
    36.4934  37.7549  38.8823  39.1973  39.9283  40.0151  41.2143  41.2231

     occupation numbers 
     1.0000   1.0000   1.0000   1.0000   1.0000   1.0000   1.0000   1.0000
     1.0000   1.0000   1.0000   1.0000   1.0000   1.0000   1.0000   1.0000
     1.0000   1.0000   1.0000   1.0000   1.0000   1.0000   1.0000   0.0000
     0.0000   0.0000   0.0000   0.0000   0.0000   0.0000   0.0000   0.0000
     0.0000   0.0000   0.0000   0.0000   0.0000   0.0000   0.0000   0.0000
     0.0000   0.0000   0.0000   0.0000   0.0000   0.0000   0.0000   0.0000
     0.0000   0.0000   0.0000   0.0000   0.0000   0.0000   0.0000   0.0000
     0.0000   0.0000   0.0000   0.0000   0.0000   0.0000   0.0000   0.0000

          k = 0.3333 0.5774 0.0000 (  1311 PWs)   bands (ev):

   -90.2974 -50.6825 -50.6823 -50.5422 -23.0333 -15.7154 -15.7143 -15.7097
   -15.7081 -15.7059  -5.1700  -5.1260  -4.9935   3.8046   8.7082   8.9525
    10.3564  11.0188  11.1707  11.4480  11.5073  12.6589  12.9512  13.0365
    13.0439  13.0843  13.1682  13.1731  13.6596  14.0884  15.2221  15.3913
    15.4833  19.1154  19.9625  21.3856  21.4071  21.8392  21.9734  22.0031
    22.3206  24.9417  27.2056  27.7904  29.0795  29.3165  29.7605  31.0831
    31.1667  32.3146  32.3351  34.4598  34.5573  35.3891  35.4945  36.3817
    36.3968  37.0279  37.4294  38.8484  40.6790  40.9819  41.6634  41.9580

     occupation numbers 
     1.0000   1.0000   1.0000   1.0000   1.0000   1.0000   1.0000   1.0000
     1.0000   1.0000   1.0000   1.0000   1.0000   1.0000   1.0000   1.0000
     1.0000   1.0000   1.0000   1.0000   1.0000   1.0000   1.0000   0.0000
     0.0000   0.0000   0.0000   0.0000   0.0000   0.0000   0.0000   0.0000
     0.0000   0.0000   0.0000   0.0000   0.0000   0.0000   0.0000   0.0000
     0.0000   0.0000   0.0000   0.0000   0.0000   0.0000   0.0000   0.0000
     0.0000   0.0000   0.0000   0.0000   0.0000   0.0000   0.0000   0.0000
     0.0000   0.0000   0.0000   0.0000   0.0000   0.0000   0.0000   0.0000

          k = 0.3333 0.5774 0.3494 (  1311 PWs)   bands (ev):

   -90.2972 -50.6823 -50.6821 -50.5408 -23.0257 -15.7179 -15.7167 -15.7064
   -15.7046 -15.7018  -5.1735  -5.1202  -5.0825   3.7406   8.2561  10.0476
    10.0734  11.1091  11.3328  11.4020  11.4985  12.0619  12.9985  13.0393
    13.0625  13.0642  13.0882  13.1825  13.1909  13.3698  16.3696  16.8900
    17.2803  17.8892  18.2926  18.7154  20.8560  22.0558  22.1368  23.9319
    26.0076  26.2118  27.4816  27.5723  27.9930  28.7972  29.5451  30.3086
    30.6939  31.6121  32.0787  32.5717  32.7169  33.3085  36.2721  36.3768
    37.3467  37.9768  38.4955  38.9683  39.3501  41.0725  42.2272  42.8134

     occupation numbers 
     1.0000   1.0000   1.0000   1.0000   1.0000   1.0000   1.0000   1.0000
     1.0000   1.0000   1.0000   1.0000   1.0000   1.0000   1.0000   1.0000
     1.0000   1.0000   1.0000   1.0000   1.0000   1.0000   1.0000   0.0000
     0.0000   0.0000   0.0000   0.0000   0.0000   0.0000   0.0000   0.0000
     0.0000   0.0000   0.0000   0.0000   0.0000   0.0000   0.0000   0.0000
     0.0000   0.0000   0.0000   0.0000   0.0000   0.0000   0.0000   0.0000
     0.0000   0.0000   0.0000   0.0000   0.0000   0.0000   0.0000   0.0000
     0.0000   0.0000   0.0000   0.0000   0.0000   0.0000   0.0000   0.0000

     highest occupied, lowest unoccupied level (ev):    12.9985   13.0365

!    total energy              =   -1036.49340377 Ry
     estimated scf accuracy    <       0.00000061 Ry

     The total energy is the sum of the following terms:
     one-electron contribution =    -374.70573259 Ry
     hartree contribution      =     216.05455252 Ry
     xc contribution           =     -91.57674837 Ry
     ewald contribution        =    -366.73396804 Ry
     one-center paw contrib.   =    -419.53150730 Ry
      -> PAW hartree energy AE =      62.60401499 Ry
      -> PAW hartree energy PS =     -62.61644352 Ry
      -> PAW xc energy AE      =    -430.08556303 Ry
      -> PAW xc energy PS      =      10.56648426 Ry
      -> total E_H with PAW    =     216.04212400 Ry
      -> total E_XC with PAW   =    -511.09582714 Ry

     convergence has been achieved in  30 iterations

     Writing all to output data dir calculations_bands_val/myprefix.save/
 
     init_run     :      4.76s CPU      1.38s WALL (       1 calls)
     electrons    :     64.09s CPU     17.11s WALL (       1 calls)

     Called by init_run:
     wfcinit      :      0.22s CPU      0.06s WALL (       1 calls)
     wfcinit:atom :      0.00s CPU      0.00s WALL (       3 calls)
     wfcinit:wfcr :      0.21s CPU      0.06s WALL (       3 calls)
     potinit      :      1.78s CPU      0.47s WALL (       1 calls)
     hinit0       :      2.26s CPU      0.66s WALL (       1 calls)

     Called by electrons:
     c_bands      :     19.43s CPU      5.13s WALL (      30 calls)
     sum_band     :     10.45s CPU      2.87s WALL (      30 calls)
     v_of_rho     :      0.72s CPU      0.19s WALL (      31 calls)
     v_h          :      0.05s CPU      0.01s WALL (      31 calls)
     v_xc         :      0.67s CPU      0.18s WALL (      31 calls)
     newd         :      6.27s CPU      1.71s WALL (      31 calls)
     PAW_pot      :     27.03s CPU      7.13s WALL (      31 calls)
     mix_rho      :      0.61s CPU      0.17s WALL (      30 calls)

     Called by c_bands:
     init_us_2    :      0.16s CPU      0.04s WALL (     183 calls)
     init_us_2:cp :      0.15s CPU      0.04s WALL (     183 calls)
     cegterg      :     16.93s CPU      4.46s WALL (      90 calls)

     Called by sum_band:
     sum_band:wei :      0.01s CPU      0.00s WALL (      30 calls)
     sum_band:loo :      3.01s CPU      0.79s WALL (      30 calls)
     sum_band:buf :      0.03s CPU      0.01s WALL (      90 calls)
     sum_band:ini :      0.08s CPU      0.02s WALL (      90 calls)
     sum_band:cal :      0.13s CPU      0.03s WALL (      90 calls)
     sum_band:bec :      0.03s CPU      0.01s WALL (      90 calls)
     addusdens    :      4.84s CPU      1.35s WALL (      30 calls)
     addusd:skk   :      0.01s CPU      0.00s WALL (      90 calls)
     addusd:dgemm :      0.57s CPU      0.26s WALL (      90 calls)
     addusd:qvan2 :      3.66s CPU      0.92s WALL (      90 calls)

     Called by *egterg:
     cdiaghg      :      3.94s CPU      1.03s WALL (     222 calls)
     cegterg:over :      0.55s CPU      0.14s WALL (     132 calls)
     cegterg:upda :      0.26s CPU      0.07s WALL (     132 calls)
     cegterg:last :      0.26s CPU      0.07s WALL (     117 calls)
     cdiaghg:chol :      0.25s CPU      0.07s WALL (     222 calls)
     cdiaghg:inve :      0.05s CPU      0.01s WALL (     222 calls)
     cdiaghg:para :      0.61s CPU      0.16s WALL (     444 calls)
     h_psi        :     11.70s CPU      3.09s WALL (     225 calls)
     s_psi        :      0.10s CPU      0.03s WALL (     225 calls)
     g_psi        :      0.01s CPU      0.00s WALL (     132 calls)

     Called by h_psi:
     h_psi:calbec :      0.28s CPU      0.08s WALL (     225 calls)
     vloc_psi     :     11.25s CPU      2.97s WALL (     225 calls)
     add_vuspsi   :      0.13s CPU      0.03s WALL (     225 calls)

     General routines
     calbec       :      0.40s CPU      0.11s WALL (     315 calls)
     fft          :      1.26s CPU      0.33s WALL (     401 calls)
     ffts         :      0.59s CPU      0.16s WALL (      61 calls)
     fftw         :     11.90s CPU      3.15s WALL (   30846 calls)
     interpolate  :      0.56s CPU      0.15s WALL (      31 calls)
 
     Parallel routines

     PAW routines
     PAW_pot      :     27.03s CPU      7.13s WALL (      31 calls)
     PAW_symme    :      0.31s CPU      0.09s WALL (      61 calls)
 
     PWSCF        :   1m11.05s CPU     19.52s WALL

 
   This run was terminated on:  10:34:17   4Jun2023            

=------------------------------------------------------------------------------=
   JOB DONE.
=------------------------------------------------------------------------------=
