
     Program PWSCF v.7.0 starts on  4Jun2023 at 10:47:26 

     This program is part of the open-source Quantum ESPRESSO suite
     for quantum simulation of materials; please cite
         "P. Giannozzi et al., J. Phys.:Condens. Matter 21 395502 (2009);
         "P. Giannozzi et al., J. Phys.:Condens. Matter 29 465901 (2017);
         "P. Giannozzi et al., J. Chem. Phys. 152 154105 (2020);
          URL http://www.quantum-espresso.org", 
     in publications or presentations arising from this work. More details at
     http://www.quantum-espresso.org/quote

     Parallel version (MPI & OpenMP), running on      32 processor cores
     Number of MPI processes:                 8
     Threads/MPI process:                     4

     MPI processes distributed on     1 nodes
     K-points division:     npool     =       2
     R & G space division:  proc/nbgrp/npool/nimage =       4
     145466 MiB available memory on the printing compute node when the environment starts
 
     Reading input from espresso_87.pwi
Warning: card &CELL ignored
Warning: card / ignored

     Current dimensions of program PWSCF are:
     Max number of different atomic species (ntypx) = 10
     Max number of k-points (npk) =  40000
     Max angular momentum in pseudopotentials (lmaxx) =  4
     Message from routine setup:
     using ibrav=0 with symmetry is DISCOURAGED, use correct ibrav instead

     Subspace diagonalization in iterative solution of the eigenvalue problem:
     one sub-group per band group will be used
     scalapack distributed-memory algorithm (size of sub-group:  2*  2 procs)

 
     Parallelization info
     --------------------
     sticks:   dense  smooth     PW     G-vecs:    dense   smooth      PW
     Min         907     450    127                29524    10424    1573
     Max         909     451    128                29525    10427    1576
     Sum        3631    1801    511               118099    41699    6301
 
     Using Slab Decomposition
 


     bravais-lattice index     =            0
     lattice parameter (alat)  =      14.7943  a.u.
     unit-cell volume          =    1880.8359 (a.u.)^3
     number of atoms/cell      =           14
     number of atomic types    =            3
     number of electrons       =       118.00
     number of Kohn-Sham states=           64
     kinetic-energy cutoff     =      30.0000  Ry
     charge density cutoff     =     240.0000  Ry
     scf convergence threshold =      1.0E-06
     mixing beta               =       0.7000
     number of iterations used =            8  plain     mixing
     Exchange-correlation= PBE
                           (   1   4   3   4   0   0   0)

     celldm(1)=  14.794288  celldm(2)=   0.000000  celldm(3)=   0.000000
     celldm(4)=   0.000000  celldm(5)=   0.000000  celldm(6)=   0.000000

     crystal axes: (cart. coord. in units of alat)
               a(1) = (   1.000000   0.000000   0.000000 )  
               a(2) = (  -0.500000   0.866025   0.000000 )  
               a(3) = (   0.000000   0.000000   0.670715 )  

     reciprocal axes: (cart. coord. in units 2 pi/alat)
               b(1) = (  1.000000  0.577350  0.000000 )  
               b(2) = (  0.000000  1.154701  0.000000 )  
               b(3) = (  0.000000  0.000000  1.490946 )  


     PseudoPot. # 1 for Sr read from file:
     /home/pragov/projects/rrg-bengioy-ad/pragov/crystal_structure_design/SSSP/Sr_pbe_v1.uspp.F.UPF
     MD5 check sum: 6b418c05fbe9db5448babca5e47b7a5b
     Pseudo is Ultrasoft + core correction, Zval = 10.0
     Generated by new atomic code, or converted to UPF format
     Using radial grid of  883 points,  6 beta functions with: 
                l(1) =   0
                l(2) =   0
                l(3) =   1
                l(4) =   1
                l(5) =   2
                l(6) =   2
     Q(r) pseudized with  6 coefficients,  rinner =    1.400   1.400   1.400
                                                       1.400   1.400

     PseudoPot. # 2 for Cr read from file:
     /home/pragov/projects/rrg-bengioy-ad/pragov/crystal_structure_design/SSSP/cr_pbe_v1.5.uspp.F.UPF
     MD5 check sum: 0d52af634a40206e4dee301ad30da4bf
     Pseudo is Ultrasoft + core correction, Zval = 14.0
     Generated by new atomic code, or converted to UPF format
     Using radial grid of  857 points,  6 beta functions with: 
                l(1) =   0
                l(2) =   0
                l(3) =   1
                l(4) =   1
                l(5) =   2
                l(6) =   2
     Q(r) pseudized with  8 coefficients,  rinner =    0.950   0.950   0.950
                                                       0.950   0.950

     PseudoPot. # 3 for N  read from file:
     /home/pragov/projects/rrg-bengioy-ad/pragov/crystal_structure_design/SSSP/N.pbe-n-radius_5.UPF
     MD5 check sum: 16739722b17309cd8fe442a2ace49922
     Pseudo is Ultrasoft + core correction, Zval =  5.0
     Generated using "atomic" code by A. Dal Corso  v.5.1
     Using radial grid of 1085 points,  4 beta functions with: 
                l(1) =   0
                l(2) =   0
                l(3) =   1
                l(4) =   1
     Q(r) pseudized with 0 coefficients 


     atomic species   valence    mass     pseudopotential
        Sr            10.00    87.62000     Sr( 1.00)
        Cr            14.00    51.99610     Cr( 1.00)
        N              5.00    14.00700     N ( 1.00)

     12 Sym. Ops., with inversion, found ( 6 have fractional translation)


                                    s                        frac. trans.

      isym =  1     identity                                     

 cryst.   s( 1) = (     1          0          0      )
                  (     0          1          0      )
                  (     0          0          1      )

 cart.    s( 1) = (  1.0000000 -0.0000000  0.0000000 )
                  (  0.0000000  1.0000000  0.0000000 )
                  (  0.0000000  0.0000000  1.0000000 )


      isym =  2     180 deg rotation - cart. axis [0,0,1]        

 cryst.   s( 2) = (    -1          0          0      )    f =( -0.0000000 )
                  (     0         -1          0      )       ( -0.0000000 )
                  (     0          0          1      )       ( -0.5000000 )

 cart.    s( 2) = ( -1.0000000  0.0000000  0.0000000 )    f =( -0.0000000 )
                  (  0.0000000 -1.0000000  0.0000000 )       ( -0.0000000 )
                  (  0.0000000  0.0000000  1.0000000 )       ( -0.3353575 )


      isym =  3      60 deg rotation - cryst. axis [0,0,1]       

 cryst.   s( 3) = (     1          1          0      )    f =( -0.0000010 )
                  (    -1          0          0      )       ( -0.0000000 )
                  (     0          0          1      )       ( -0.5000000 )

 cart.    s( 3) = (  0.5000000 -0.8660254  0.0000000 )    f =( -0.0000010 )
                  (  0.8660254  0.5000000  0.0000000 )       ( -0.0000000 )
                  (  0.0000000  0.0000000  1.0000000 )       ( -0.3353575 )


      isym =  4      60 deg rotation - cryst. axis [0,0,-1]      

 cryst.   s( 4) = (     0         -1          0      )    f =(  0.0000000 )
                  (     1          1          0      )       (  0.0000010 )
                  (     0          0          1      )       ( -0.5000000 )

 cart.    s( 4) = (  0.5000000  0.8660254  0.0000000 )    f =( -0.0000005 )
                  ( -0.8660254  0.5000000  0.0000000 )       (  0.0000009 )
                  (  0.0000000  0.0000000  1.0000000 )       ( -0.3353575 )


      isym =  5     120 deg rotation - cryst. axis [0,0,1]       

 cryst.   s( 5) = (     0          1          0      )
                  (    -1         -1          0      )
                  (     0          0          1      )

 cart.    s( 5) = ( -0.5000000 -0.8660254  0.0000000 )
                  (  0.8660254 -0.5000000  0.0000000 )
                  (  0.0000000  0.0000000  1.0000000 )


      isym =  6     120 deg rotation - cryst. axis [0,0,-1]      

 cryst.   s( 6) = (    -1         -1          0      )
                  (     1          0          0      )
                  (     0          0          1      )

 cart.    s( 6) = ( -0.5000000  0.8660254  0.0000000 )
                  ( -0.8660254 -0.5000000  0.0000000 )
                  (  0.0000000  0.0000000  1.0000000 )


      isym =  7     inversion                                    

 cryst.   s( 7) = (    -1          0          0      )
                  (     0         -1          0      )
                  (     0          0         -1      )

 cart.    s( 7) = ( -1.0000000  0.0000000  0.0000000 )
                  (  0.0000000 -1.0000000  0.0000000 )
                  (  0.0000000  0.0000000 -1.0000000 )


      isym =  8     inv. 180 deg rotation - cart. axis [0,0,1]   

 cryst.   s( 8) = (     1          0          0      )    f =(  0.0000000 )
                  (     0          1          0      )       (  0.0000000 )
                  (     0          0         -1      )       (  0.5000000 )

 cart.    s( 8) = (  1.0000000 -0.0000000  0.0000000 )    f =(  0.0000000 )
                  (  0.0000000  1.0000000  0.0000000 )       (  0.0000000 )
                  (  0.0000000  0.0000000 -1.0000000 )       (  0.3353575 )


      isym =  9     inv.  60 deg rotation - cryst. axis [0,0,1]  

 cryst.   s( 9) = (    -1         -1          0      )    f =( -0.0000010 )
                  (     1          0          0      )       ( -0.0000000 )
                  (     0          0         -1      )       (  0.5000000 )

 cart.    s( 9) = ( -0.5000000  0.8660254  0.0000000 )    f =( -0.0000010 )
                  ( -0.8660254 -0.5000000  0.0000000 )       ( -0.0000000 )
                  (  0.0000000  0.0000000 -1.0000000 )       (  0.3353575 )


      isym = 10     inv.  60 deg rotation - cryst. axis [0,0,-1] 

 cryst.   s(10) = (     0          1          0      )    f =( -0.0000000 )
                  (    -1         -1          0      )       (  0.0000010 )
                  (     0          0         -1      )       (  0.5000000 )

 cart.    s(10) = ( -0.5000000 -0.8660254  0.0000000 )    f =( -0.0000005 )
                  (  0.8660254 -0.5000000  0.0000000 )       (  0.0000009 )
                  (  0.0000000  0.0000000 -1.0000000 )       (  0.3353575 )


      isym = 11     inv. 120 deg rotation - cryst. axis [0,0,1]  

 cryst.   s(11) = (     0         -1          0      )
                  (     1          1          0      )
                  (     0          0         -1      )

 cart.    s(11) = (  0.5000000  0.8660254  0.0000000 )
                  ( -0.8660254  0.5000000  0.0000000 )
                  (  0.0000000  0.0000000 -1.0000000 )


      isym = 12     inv. 120 deg rotation - cryst. axis [0,0,-1] 

 cryst.   s(12) = (     1          1          0      )
                  (    -1          0          0      )
                  (     0          0         -1      )

 cart.    s(12) = (  0.5000000 -0.8660254  0.0000000 )
                  (  0.8660254  0.5000000  0.0000000 )
                  (  0.0000000  0.0000000 -1.0000000 )


   Cartesian axes

     site n.     atom                  positions (alat units)
         1           Sr  tau(   1) = (   0.6835565   0.0724335   0.1676788  )
         2           Sr  tau(   2) = (   0.2790480   0.6281940   0.5030363  )
         3           Sr  tau(   3) = (  -0.0954930   0.3102657   0.5030363  )
         4           Sr  tau(   4) = (   0.5954930   0.5557597   0.1676788  )
         5           Sr  tau(   5) = (   0.2209520   0.2378314   0.1676788  )
         6           Sr  tau(   6) = (  -0.1835565   0.7935919   0.5030363  )
         7           Cr  tau(   7) = (  -0.0000005   0.5773505   0.1676788  )
         8           Cr  tau(   8) = (   0.5000005   0.2886748   0.5030363  )
         9           N   tau(   9) = (   0.6240945   0.1056404   0.5030363  )
        10           N   tau(  10) = (   0.2205590   0.5933019   0.1676788  )
        11           N   tau(  11) = (  -0.0964660   0.3783648   0.1676788  )
        12           N   tau(  12) = (   0.5964660   0.4876606   0.5030363  )
        13           N   tau(  13) = (   0.2794410   0.2727235   0.5030363  )
        14           N   tau(  14) = (  -0.1240945   0.7603850   0.1676788  )

   Crystallographic axes

     site n.     atom                  positions (cryst. coord.)
         1           Sr  tau(   1) = (  0.7253760  0.0836390  0.2500000  )
         2           Sr  tau(   2) = (  0.6417360  0.7253760  0.7500000  )
         3           Sr  tau(   3) = (  0.0836390  0.3582640  0.7500000  )
         4           Sr  tau(   4) = (  0.9163610  0.6417360  0.2500000  )
         5           Sr  tau(   5) = (  0.3582640  0.2746240  0.2500000  )
         6           Sr  tau(   6) = (  0.2746240  0.9163610  0.7500000  )
         7           Cr  tau(   7) = (  0.3333330  0.6666670  0.2500000  )
         8           Cr  tau(   8) = (  0.6666670  0.3333330  0.7500000  )
         9           N   tau(   9) = (  0.6850860  0.1219830  0.7500000  )
        10           N   tau(  10) = (  0.5631020  0.6850860  0.2500000  )
        11           N   tau(  11) = (  0.1219830  0.4368980  0.2500000  )
        12           N   tau(  12) = (  0.8780170  0.5631020  0.7500000  )
        13           N   tau(  13) = (  0.4368980  0.3149140  0.7500000  )
        14           N   tau(  14) = (  0.3149140  0.8780170  0.2500000  )

     number of k points=     6
                       cart. coord. in units 2pi/alat
        k(    1) = (   0.0000000   0.0000000   0.0000000), wk =   0.0740741
        k(    2) = (   0.0000000   0.0000000   0.4969821), wk =   0.1481481
        k(    3) = (   0.0000000   0.3849002   0.0000000), wk =   0.4444444
        k(    4) = (   0.0000000   0.3849002   0.4969821), wk =   0.8888889
        k(    5) = (   0.3333333   0.5773503   0.0000000), wk =   0.1481481
        k(    6) = (   0.3333333   0.5773503   0.4969821), wk =   0.2962963

                       cryst. coord.
        k(    1) = (   0.0000000   0.0000000   0.0000000), wk =   0.0740741
        k(    2) = (   0.0000000   0.0000000   0.3333333), wk =   0.1481481
        k(    3) = (   0.0000000   0.3333333   0.0000000), wk =   0.4444444
        k(    4) = (   0.0000000   0.3333333   0.3333333), wk =   0.8888889
        k(    5) = (   0.3333333   0.3333333   0.0000000), wk =   0.1481481
        k(    6) = (   0.3333333   0.3333333   0.3333333), wk =   0.2962963

     Dense  grid:   118099 G-vectors     FFT dimensions: (  75,  75,  50)

     Smooth grid:    41699 G-vectors     FFT dimensions: (  54,  54,  36)

     Dynamical RAM for                 wfc:       1.27 MB

     Dynamical RAM for     wfc (w. buffer):       5.09 MB

     Dynamical RAM for           str. fact:       1.35 MB

     Dynamical RAM for           local pot:       0.00 MB

     Dynamical RAM for          nlocal pot:       3.82 MB

     Dynamical RAM for                qrad:       3.73 MB

     Dynamical RAM for          rho,v,vnew:       3.03 MB

     Dynamical RAM for               rhoin:       1.01 MB

     Dynamical RAM for            rho*nmix:       7.21 MB

     Dynamical RAM for           G-vectors:       1.77 MB

     Dynamical RAM for          h,s,v(r/c):       0.19 MB

     Dynamical RAM for          <psi|beta>:       0.19 MB

     Dynamical RAM for                 psi:       2.55 MB

     Dynamical RAM for                hpsi:       2.55 MB

     Dynamical RAM for                spsi:       2.55 MB

     Dynamical RAM for      wfcinit/wfcrot:       5.20 MB

     Dynamical RAM for           addusdens:      43.47 MB

     Estimated static dynamical RAM per process >      24.39 MB

     Estimated max dynamical RAM per process >      75.07 MB

     Estimated total dynamical RAM >     571.76 MB

     Check: negative core charge=   -0.000006

     Initial potential from superposition of free atoms

     starting charge     115.7980, renormalised to     118.0000

     negative rho (up, down):  3.913E-01 0.000E+00
     Starting wfcs are  122 randomized atomic wfcs

     total cpu time spent up to now is        1.8 secs

     Self-consistent Calculation

     iteration #  1     ecut=    30.00 Ry     beta= 0.70
     Davidson diagonalization with overlap

---- Real-time Memory Report at c_bands before calling an iterative solver
           205 MiB given to the printing process from OS
             0 MiB allocation reported by mallinfo(arena+hblkhd)
        144800 MiB available memory on the node where the printing process lives
------------------
     ethr =  1.00E-02,  avg # of iterations =  2.0

     negative rho (up, down):  3.874E-01 0.000E+00

     total cpu time spent up to now is        2.6 secs

     total energy              =    -890.20804868 Ry
     estimated scf accuracy    <       6.71840683 Ry

     iteration #  2     ecut=    30.00 Ry     beta= 0.70
     Davidson diagonalization with overlap

---- Real-time Memory Report at c_bands before calling an iterative solver
           276 MiB given to the printing process from OS
             0 MiB allocation reported by mallinfo(arena+hblkhd)
        144139 MiB available memory on the node where the printing process lives
------------------
     ethr =  5.69E-03,  avg # of iterations =  6.5

     negative rho (up, down):  3.924E-01 0.000E+00

     total cpu time spent up to now is        3.6 secs

     total energy              =    -885.74625568 Ry
     estimated scf accuracy    <      44.50076927 Ry

     iteration #  3     ecut=    30.00 Ry     beta= 0.70
     Davidson diagonalization with overlap

---- Real-time Memory Report at c_bands before calling an iterative solver
           291 MiB given to the printing process from OS
             0 MiB allocation reported by mallinfo(arena+hblkhd)
        144033 MiB available memory on the node where the printing process lives
------------------
     ethr =  5.69E-03,  avg # of iterations =  6.7

     negative rho (up, down):  3.921E-01 0.000E+00

     total cpu time spent up to now is        4.4 secs

     total energy              =    -892.29910930 Ry
     estimated scf accuracy    <      20.73784060 Ry

     iteration #  4     ecut=    30.00 Ry     beta= 0.70
     Davidson diagonalization with overlap

---- Real-time Memory Report at c_bands before calling an iterative solver
           292 MiB given to the printing process from OS
             0 MiB allocation reported by mallinfo(arena+hblkhd)
        144021 MiB available memory on the node where the printing process lives
------------------
     ethr =  5.69E-03,  avg # of iterations =  3.8

     negative rho (up, down):  3.961E-01 0.000E+00

     total cpu time spent up to now is        5.0 secs

     total energy              =    -893.66263745 Ry
     estimated scf accuracy    <       0.46871184 Ry

     iteration #  5     ecut=    30.00 Ry     beta= 0.70
     Davidson diagonalization with overlap

---- Real-time Memory Report at c_bands before calling an iterative solver
           292 MiB given to the printing process from OS
             0 MiB allocation reported by mallinfo(arena+hblkhd)
        144020 MiB available memory on the node where the printing process lives
------------------
     ethr =  3.97E-04,  avg # of iterations =  5.3

     negative rho (up, down):  4.022E-01 0.000E+00

     total cpu time spent up to now is        5.7 secs

     total energy              =    -893.72218000 Ry
     estimated scf accuracy    <       0.27229904 Ry

     iteration #  6     ecut=    30.00 Ry     beta= 0.70
     Davidson diagonalization with overlap

---- Real-time Memory Report at c_bands before calling an iterative solver
           294 MiB given to the printing process from OS
             0 MiB allocation reported by mallinfo(arena+hblkhd)
        144011 MiB available memory on the node where the printing process lives
------------------
     ethr =  2.31E-04,  avg # of iterations =  3.8

     negative rho (up, down):  4.052E-01 0.000E+00

     total cpu time spent up to now is        6.3 secs

     total energy              =    -893.76315065 Ry
     estimated scf accuracy    <       0.02648724 Ry

     iteration #  7     ecut=    30.00 Ry     beta= 0.70
     Davidson diagonalization with overlap

---- Real-time Memory Report at c_bands before calling an iterative solver
           295 MiB given to the printing process from OS
             0 MiB allocation reported by mallinfo(arena+hblkhd)
        144010 MiB available memory on the node where the printing process lives
------------------
     ethr =  2.24E-05,  avg # of iterations =  7.0

     negative rho (up, down):  4.052E-01 0.000E+00

     total cpu time spent up to now is        7.1 secs

     total energy              =    -893.76018056 Ry
     estimated scf accuracy    <       0.09474217 Ry

     iteration #  8     ecut=    30.00 Ry     beta= 0.70
     Davidson diagonalization with overlap

---- Real-time Memory Report at c_bands before calling an iterative solver
           295 MiB given to the printing process from OS
             0 MiB allocation reported by mallinfo(arena+hblkhd)
        144009 MiB available memory on the node where the printing process lives
------------------
     ethr =  2.24E-05,  avg # of iterations =  2.8

     negative rho (up, down):  4.047E-01 0.000E+00

     total cpu time spent up to now is        7.6 secs

     total energy              =    -893.76160037 Ry
     estimated scf accuracy    <       0.01942486 Ry

     iteration #  9     ecut=    30.00 Ry     beta= 0.70
     Davidson diagonalization with overlap

---- Real-time Memory Report at c_bands before calling an iterative solver
           295 MiB given to the printing process from OS
             0 MiB allocation reported by mallinfo(arena+hblkhd)
        144008 MiB available memory on the node where the printing process lives
------------------
     ethr =  1.65E-05,  avg # of iterations =  1.8

     negative rho (up, down):  4.049E-01 0.000E+00

     total cpu time spent up to now is        8.2 secs

     total energy              =    -893.76150532 Ry
     estimated scf accuracy    <       0.00722352 Ry

     iteration # 10     ecut=    30.00 Ry     beta= 0.70
     Davidson diagonalization with overlap

---- Real-time Memory Report at c_bands before calling an iterative solver
           296 MiB given to the printing process from OS
             0 MiB allocation reported by mallinfo(arena+hblkhd)
        144008 MiB available memory on the node where the printing process lives
------------------
     ethr =  6.12E-06,  avg # of iterations =  5.2

     negative rho (up, down):  4.048E-01 0.000E+00

     total cpu time spent up to now is        8.8 secs

     total energy              =    -893.76269670 Ry
     estimated scf accuracy    <       0.00045004 Ry

     iteration # 11     ecut=    30.00 Ry     beta= 0.70
     Davidson diagonalization with overlap

---- Real-time Memory Report at c_bands before calling an iterative solver
           296 MiB given to the printing process from OS
             0 MiB allocation reported by mallinfo(arena+hblkhd)
        144004 MiB available memory on the node where the printing process lives
------------------
     ethr =  3.81E-07,  avg # of iterations =  4.7

     negative rho (up, down):  4.048E-01 0.000E+00

     total cpu time spent up to now is        9.4 secs

     total energy              =    -893.76264538 Ry
     estimated scf accuracy    <       0.00095596 Ry

     iteration # 12     ecut=    30.00 Ry     beta= 0.70
     Davidson diagonalization with overlap

---- Real-time Memory Report at c_bands before calling an iterative solver
           296 MiB given to the printing process from OS
             0 MiB allocation reported by mallinfo(arena+hblkhd)
        144003 MiB available memory on the node where the printing process lives
------------------
     ethr =  3.81E-07,  avg # of iterations =  1.3

     negative rho (up, down):  4.048E-01 0.000E+00

     total cpu time spent up to now is        9.9 secs

     total energy              =    -893.76259998 Ry
     estimated scf accuracy    <       0.00032028 Ry

     iteration # 13     ecut=    30.00 Ry     beta= 0.70
     Davidson diagonalization with overlap

---- Real-time Memory Report at c_bands before calling an iterative solver
           296 MiB given to the printing process from OS
             0 MiB allocation reported by mallinfo(arena+hblkhd)
        144001 MiB available memory on the node where the printing process lives
------------------
     ethr =  2.71E-07,  avg # of iterations =  3.3

     negative rho (up, down):  4.048E-01 0.000E+00

     total cpu time spent up to now is       10.5 secs

     total energy              =    -893.76265573 Ry
     estimated scf accuracy    <       0.00005647 Ry

     iteration # 14     ecut=    30.00 Ry     beta= 0.70
     Davidson diagonalization with overlap

---- Real-time Memory Report at c_bands before calling an iterative solver
           296 MiB given to the printing process from OS
             0 MiB allocation reported by mallinfo(arena+hblkhd)
        143998 MiB available memory on the node where the printing process lives
------------------
     ethr =  4.79E-08,  avg # of iterations =  1.8

     negative rho (up, down):  4.048E-01 0.000E+00

     total cpu time spent up to now is       11.0 secs

     total energy              =    -893.76264830 Ry
     estimated scf accuracy    <       0.00003065 Ry

     iteration # 15     ecut=    30.00 Ry     beta= 0.70
     Davidson diagonalization with overlap

---- Real-time Memory Report at c_bands before calling an iterative solver
           296 MiB given to the printing process from OS
             0 MiB allocation reported by mallinfo(arena+hblkhd)
        143996 MiB available memory on the node where the printing process lives
------------------
     ethr =  2.60E-08,  avg # of iterations =  3.3

     negative rho (up, down):  4.048E-01 0.000E+00

     total cpu time spent up to now is       11.6 secs

     total energy              =    -893.76265424 Ry
     estimated scf accuracy    <       0.00000143 Ry

     iteration # 16     ecut=    30.00 Ry     beta= 0.70
     Davidson diagonalization with overlap

---- Real-time Memory Report at c_bands before calling an iterative solver
           296 MiB given to the printing process from OS
             0 MiB allocation reported by mallinfo(arena+hblkhd)
        143999 MiB available memory on the node where the printing process lives
------------------
     ethr =  1.21E-09,  avg # of iterations =  4.3

     negative rho (up, down):  4.048E-01 0.000E+00

     total cpu time spent up to now is       12.3 secs

     total energy              =    -893.76265349 Ry
     estimated scf accuracy    <       0.00000749 Ry

     iteration # 17     ecut=    30.00 Ry     beta= 0.70
     Davidson diagonalization with overlap

---- Real-time Memory Report at c_bands before calling an iterative solver
           296 MiB given to the printing process from OS
             0 MiB allocation reported by mallinfo(arena+hblkhd)
        143998 MiB available memory on the node where the printing process lives
------------------
     ethr =  1.21E-09,  avg # of iterations =  4.0

     negative rho (up, down):  4.048E-01 0.000E+00

     total cpu time spent up to now is       12.9 secs

     End of self-consistent calculation

          k = 0.0000 0.0000 0.0000 (  5243 PWs)   bands (ev):

   -63.2126 -63.2123 -34.7527 -34.7527 -34.7498 -34.7497 -34.2943 -34.2926
   -26.0631 -26.0147 -26.0145 -25.9889 -25.9887 -25.9767  -8.4196  -8.4045
    -8.3374  -8.3067  -8.3065  -8.2109  -8.2109  -8.2030  -8.2028  -8.0633
    -8.0631  -8.0631  -8.0630  -7.9914  -7.9717  -7.9305  -7.9305  -7.9019
    -4.9511  -4.7618  -4.1510  -4.1506  -4.1282  -4.1279   4.8482   4.8484
     5.0582   5.0582   5.2226   5.2332   5.5637   5.5639   5.9125   5.9127
     6.1604   6.1723   6.1724   6.1942   6.1943   6.5413   7.0496   7.4055
     7.6969   7.8111   9.1452  10.2893  10.2894  10.2955  10.2956  10.6875

     occupation numbers 
     1.0000   1.0000   1.0000   1.0000   1.0000   1.0000   1.0000   1.0000
     1.0000   1.0000   1.0000   1.0000   1.0000   1.0000   1.0000   1.0000
     1.0000   1.0000   1.0000   1.0000   1.0000   1.0000   1.0000   1.0000
     1.0000   1.0000   1.0000   1.0000   1.0000   1.0000   1.0000   1.0000
     1.0000   1.0000   1.0000   1.0000   1.0000   1.0000   1.0000   1.0000
     1.0000   1.0000   1.0000   1.0000   1.0000   1.0000   1.0000   1.0000
     1.0000   1.0000   1.0000   1.0000   1.0000   1.0000   1.0000   1.0000
     1.0000   1.0000   1.0000   0.0000   0.0000   0.0000   0.0000   0.0000

          k = 0.0000 0.0000 0.4970 (  5201 PWs)   bands (ev):

   -63.2123 -63.2122 -34.7514 -34.7514 -34.7502 -34.7502 -34.2911 -34.2904
   -26.0411 -26.0078 -26.0076 -25.9979 -25.9949 -25.9947  -8.5469  -8.5468
    -8.5167  -8.4866  -8.4865  -8.3326  -8.2221  -8.1860  -8.0503  -8.0503
    -8.0431  -7.9890  -7.9889  -7.9843  -7.9500  -7.9500  -7.8930  -7.8930
    -4.6210  -4.5571  -3.9226  -3.9223  -3.9222  -3.9220   4.8224   4.8225
     4.9130   4.9132   5.0825   5.2476   5.2477   5.2861   5.4843   5.4844
     5.7243   6.0917   6.2189   6.2190   6.2889   6.2890   7.0463   7.2456
     7.9828   8.1429   9.4237   9.8631   9.8632   9.9087   9.9088  10.7392

     occupation numbers 
     1.0000   1.0000   1.0000   1.0000   1.0000   1.0000   1.0000   1.0000
     1.0000   1.0000   1.0000   1.0000   1.0000   1.0000   1.0000   1.0000
     1.0000   1.0000   1.0000   1.0000   1.0000   1.0000   1.0000   1.0000
     1.0000   1.0000   1.0000   1.0000   1.0000   1.0000   1.0000   1.0000
     1.0000   1.0000   1.0000   1.0000   1.0000   1.0000   1.0000   1.0000
     1.0000   1.0000   1.0000   1.0000   1.0000   1.0000   1.0000   1.0000
     1.0000   1.0000   1.0000   1.0000   1.0000   1.0000   1.0000   1.0000
     1.0000   1.0000   1.0000   0.0000   0.0000   0.0000   0.0000   0.0000

          k = 0.0000 0.3849 0.0000 (  5210 PWs)   bands (ev):

   -63.2123 -63.2122 -34.7512 -34.7504 -34.7503 -34.7498 -34.2926 -34.2919
   -26.0524 -26.0282 -26.0189 -25.9920 -25.9837 -25.9716  -8.4063  -8.3793
    -8.3354  -8.3106  -8.2739  -8.2667  -8.2304  -8.2212  -8.1394  -8.1175
    -8.1035  -8.0437  -8.0245  -8.0153  -7.9657  -7.9369  -7.9277  -7.9179
    -4.7758  -4.6601  -4.2501  -4.2128  -4.1721  -4.1492   4.5902   4.7059
     4.7244   4.9712   5.2458   5.3058   5.5936   5.6377   5.8075   5.9012
     6.1938   6.2566   6.3682   6.4589   6.4655   6.7135   7.0526   7.2319
     7.7187   7.7569   8.9316  10.0693  10.0950  10.3471  10.4041  11.0326

     occupation numbers 
     1.0000   1.0000   1.0000   1.0000   1.0000   1.0000   1.0000   1.0000
     1.0000   1.0000   1.0000   1.0000   1.0000   1.0000   1.0000   1.0000
     1.0000   1.0000   1.0000   1.0000   1.0000   1.0000   1.0000   1.0000
     1.0000   1.0000   1.0000   1.0000   1.0000   1.0000   1.0000   1.0000
     1.0000   1.0000   1.0000   1.0000   1.0000   1.0000   1.0000   1.0000
     1.0000   1.0000   1.0000   1.0000   1.0000   1.0000   1.0000   1.0000
     1.0000   1.0000   1.0000   1.0000   1.0000   1.0000   1.0000   1.0000
     1.0000   1.0000   1.0000   0.0000   0.0000   0.0000   0.0000   0.0000

          k = 0.0000 0.3849 0.4970 (  5207 PWs)   bands (ev):

   -63.2124 -63.2121 -34.7516 -34.7511 -34.7497 -34.7496 -34.2919 -34.2909
   -26.0337 -26.0173 -26.0101 -26.0017 -25.9926 -25.9888  -8.6305  -8.5429
    -8.5226  -8.4726  -8.4124  -8.2852  -8.2510  -8.1905  -8.1001  -8.0719
    -8.0301  -8.0149  -7.9948  -7.9854  -7.9356  -7.9110  -7.9061  -7.8737
    -4.5005  -4.4603  -4.0005  -3.9847  -3.9539  -3.9396   4.5337   4.6007
     4.6933   4.8607   5.2447   5.2456   5.3007   5.3359   5.4549   5.5257
     5.7442   5.9244   6.3452   6.4378   6.5150   6.6519   6.9679   7.0905
     8.0182   8.0797   9.2068   9.7355   9.8470   9.9138   9.9984  10.3203

     occupation numbers 
     1.0000   1.0000   1.0000   1.0000   1.0000   1.0000   1.0000   1.0000
     1.0000   1.0000   1.0000   1.0000   1.0000   1.0000   1.0000   1.0000
     1.0000   1.0000   1.0000   1.0000   1.0000   1.0000   1.0000   1.0000
     1.0000   1.0000   1.0000   1.0000   1.0000   1.0000   1.0000   1.0000
     1.0000   1.0000   1.0000   1.0000   1.0000   1.0000   1.0000   1.0000
     1.0000   1.0000   1.0000   1.0000   1.0000   1.0000   1.0000   1.0000
     1.0000   1.0000   1.0000   1.0000   1.0000   1.0000   1.0000   1.0000
     1.0000   1.0000   1.0000   0.0000   0.0000   0.0000   0.0000   0.0000

          k = 0.3333 0.5774 0.0000 (  5241 PWs)   bands (ev):

   -63.2125 -63.2124 -34.7526 -34.7513 -34.7511 -34.7497 -34.2931 -34.2930
   -26.0391 -26.0328 -26.0326 -25.9863 -25.9861 -25.9698  -8.3695  -8.3694
    -8.3394  -8.3261  -8.2807  -8.2804  -8.2092  -8.2091  -8.1590  -8.1297
    -8.1296  -8.0817  -8.0110  -8.0108  -7.9382  -7.9381  -7.9313  -7.9195
    -4.6295  -4.6294  -4.2824  -4.2386  -4.2384  -4.1798   4.5778   4.6496
     4.6497   4.8550   5.2107   5.2108   5.6220   5.7115   5.7117   5.8929
     6.3549   6.3551   6.4077   6.4763   6.4764   6.9288   7.0809   7.0810
     7.7474   7.7475   8.8446   9.8741  10.2760  10.2761  10.3800  11.1278

     occupation numbers 
     1.0000   1.0000   1.0000   1.0000   1.0000   1.0000   1.0000   1.0000
     1.0000   1.0000   1.0000   1.0000   1.0000   1.0000   1.0000   1.0000
     1.0000   1.0000   1.0000   1.0000   1.0000   1.0000   1.0000   1.0000
     1.0000   1.0000   1.0000   1.0000   1.0000   1.0000   1.0000   1.0000
     1.0000   1.0000   1.0000   1.0000   1.0000   1.0000   1.0000   1.0000
     1.0000   1.0000   1.0000   1.0000   1.0000   1.0000   1.0000   1.0000
     1.0000   1.0000   1.0000   1.0000   1.0000   1.0000   1.0000   1.0000
     1.0000   1.0000   1.0000   0.0000   0.0000   0.0000   0.0000   0.0000

          k = 0.3333 0.5774 0.4970 (  5235 PWs)   bands (ev):

   -63.2124 -63.2123 -34.7523 -34.7512 -34.7511 -34.7501 -34.2921 -34.2920
   -26.0222 -26.0221 -26.0214 -25.9959 -25.9957 -25.9868  -8.6125  -8.6125
    -8.4658  -8.4454  -8.4454  -8.3322  -8.2140  -8.1241  -8.1240  -8.0822
    -8.0821  -8.0430  -7.9697  -7.9518  -7.9518  -7.9159  -7.8832  -7.8831
    -4.4127  -4.4125  -4.0106  -4.0054  -4.0053  -3.9809   4.5568   4.5569
     4.5634   4.7803   5.1692   5.1692   5.3591   5.3994   5.3996   5.5263
     5.8368   5.8370   6.4921   6.5771   6.5772   6.7307   6.9799   6.9801
     8.0447   8.0448   9.1722   9.7208   9.9060   9.9061   9.9607  10.2871

     occupation numbers 
     1.0000   1.0000   1.0000   1.0000   1.0000   1.0000   1.0000   1.0000
     1.0000   1.0000   1.0000   1.0000   1.0000   1.0000   1.0000   1.0000
     1.0000   1.0000   1.0000   1.0000   1.0000   1.0000   1.0000   1.0000
     1.0000   1.0000   1.0000   1.0000   1.0000   1.0000   1.0000   1.0000
     1.0000   1.0000   1.0000   1.0000   1.0000   1.0000   1.0000   1.0000
     1.0000   1.0000   1.0000   1.0000   1.0000   1.0000   1.0000   1.0000
     1.0000   1.0000   1.0000   1.0000   1.0000   1.0000   1.0000   1.0000
     1.0000   1.0000   1.0000   0.0000   0.0000   0.0000   0.0000   0.0000

     highest occupied, lowest unoccupied level (ev):     9.4237    9.7208

!    total energy              =    -893.76265318 Ry
     estimated scf accuracy    <       0.00000075 Ry

     The total energy is the sum of the following terms:
     one-electron contribution =    -443.86662842 Ry
     hartree contribution      =     265.68243984 Ry
     xc contribution           =    -186.89494270 Ry
     ewald contribution        =    -528.68352190 Ry

     convergence has been achieved in  17 iterations

     Writing all to output data dir calculations_bands_val/myprefix.save/
 
     init_run     :      4.82s CPU      1.55s WALL (       1 calls)
     electrons    :     42.11s CPU     11.19s WALL (       1 calls)

     Called by init_run:
     wfcinit      :      1.10s CPU      0.29s WALL (       1 calls)
     wfcinit:atom :      0.01s CPU      0.00s WALL (       3 calls)
     wfcinit:wfcr :      1.00s CPU      0.26s WALL (       3 calls)
     potinit      :      1.30s CPU      0.34s WALL (       1 calls)
     hinit0       :      2.16s CPU      0.82s WALL (       1 calls)

     Called by electrons:
     c_bands      :     27.89s CPU      7.26s WALL (      17 calls)
     sum_band     :      8.15s CPU      2.32s WALL (      17 calls)
     v_of_rho     :      1.70s CPU      0.44s WALL (      18 calls)
     v_h          :      0.14s CPU      0.04s WALL (      18 calls)
     v_xc         :      1.56s CPU      0.41s WALL (      18 calls)
     newd         :      3.86s CPU      1.02s WALL (      18 calls)
     mix_rho      :      0.44s CPU      0.12s WALL (      17 calls)

     Called by c_bands:
     init_us_2    :      0.22s CPU      0.06s WALL (     105 calls)
     init_us_2:cp :      0.21s CPU      0.06s WALL (     105 calls)
     cegterg      :     25.20s CPU      6.55s WALL (      51 calls)

     Called by sum_band:
     sum_band:wei :      0.01s CPU      0.00s WALL (      17 calls)
     sum_band:loo :      3.72s CPU      0.96s WALL (      17 calls)
     sum_band:buf :      0.07s CPU      0.02s WALL (      51 calls)
     sum_band:ini :      0.11s CPU      0.03s WALL (      51 calls)
     sum_band:cal :      0.22s CPU      0.05s WALL (      51 calls)
     sum_band:bec :      0.04s CPU      0.01s WALL (      51 calls)
     addusdens    :      3.43s CPU      1.09s WALL (      17 calls)
     addusd:skk   :      0.02s CPU      0.01s WALL (      51 calls)
     addusd:dgemm :      0.55s CPU      0.35s WALL (      51 calls)
     addusd:qvan2 :      2.33s CPU      0.59s WALL (      51 calls)

     Called by *egterg:
     cdiaghg      :      4.13s CPU      1.08s WALL (     249 calls)
     cegterg:over :      0.89s CPU      0.23s WALL (     198 calls)
     cegterg:upda :      0.57s CPU      0.15s WALL (     198 calls)
     cegterg:last :      0.93s CPU      0.24s WALL (     108 calls)
     cdiaghg:chol :      0.31s CPU      0.08s WALL (     249 calls)
     cdiaghg:inve :      0.06s CPU      0.02s WALL (     249 calls)
     cdiaghg:para :      0.63s CPU      0.17s WALL (     498 calls)
     h_psi        :     18.56s CPU      4.82s WALL (     252 calls)
     s_psi        :      0.51s CPU      0.13s WALL (     252 calls)
     g_psi        :      0.03s CPU      0.01s WALL (     198 calls)

     Called by h_psi:
     h_psi:calbec :      0.77s CPU      0.20s WALL (     252 calls)
     vloc_psi     :     17.13s CPU      4.45s WALL (     252 calls)
     add_vuspsi   :      0.60s CPU      0.16s WALL (     252 calls)

     General routines
     calbec       :      0.97s CPU      0.25s WALL (     303 calls)
     fft          :      1.84s CPU      0.48s WALL (     232 calls)
     ffts         :      0.81s CPU      0.21s WALL (      35 calls)
     fftw         :     17.73s CPU      4.61s WALL (   20634 calls)
     interpolate  :      0.87s CPU      0.23s WALL (      18 calls)
 
     Parallel routines
 
     PWSCF        :     47.88s CPU     13.30s WALL

 
   This run was terminated on:  10:47:40   4Jun2023            

=------------------------------------------------------------------------------=
   JOB DONE.
=------------------------------------------------------------------------------=
