
     Program PWSCF v.7.0 starts on 20May2023 at  3:24:44 

     This program is part of the open-source Quantum ESPRESSO suite
     for quantum simulation of materials; please cite
         "P. Giannozzi et al., J. Phys.:Condens. Matter 21 395502 (2009);
         "P. Giannozzi et al., J. Phys.:Condens. Matter 29 465901 (2017);
         "P. Giannozzi et al., J. Chem. Phys. 152 154105 (2020);
          URL http://www.quantum-espresso.org", 
     in publications or presentations arising from this work. More details at
     http://www.quantum-espresso.org/quote

     Parallel version (MPI & OpenMP), running on      32 processor cores
     Number of MPI processes:                 1
     Threads/MPI process:                    32

     MPI processes distributed on     1 nodes
     110438 MiB available memory on the printing compute node when the environment starts
 
     Reading input from espresso_1111.pwi
Warning: card &CELL ignored
Warning: card / ignored

     Current dimensions of program PWSCF are:
     Max number of different atomic species (ntypx) = 10
     Max number of k-points (npk) =  40000
     Max angular momentum in pseudopotentials (lmaxx) =  4
     file Mg.pbe-n-kjpaw_psl.0.3.0.UPF: wavefunction(s)  3S renormalized
     file O.pbe-n-kjpaw_psl.0.1.UPF: wavefunction(s)  2P renormalized

     gamma-point specific algorithms are used
     Message from routine setup:
     using ibrav=0 with symmetry is DISCOURAGED, use correct ibrav instead

     Subspace diagonalization in iterative solution of the eigenvalue problem:
     a serial algorithm will be used

 
     G-vector sticks info
     --------------------
     sticks:   dense  smooth     PW     G-vecs:    dense   smooth      PW
     Sum        3225    1623    407               101723    36045    4503
 
     Using Slab Decomposition
 


     bravais-lattice index     =            0
     lattice parameter (alat)  =      13.0198  a.u.
     unit-cell volume          =    1620.0674 (a.u.)^3
     number of atoms/cell      =           20
     number of atomic types    =            4
     number of electrons       =       170.00
     number of Kohn-Sham states=          102
     kinetic-energy cutoff     =      30.0000  Ry
     charge density cutoff     =     240.0000  Ry
     scf convergence threshold =      1.0E-06
     mixing beta               =       0.7000
     number of iterations used =            8  plain     mixing
     Exchange-correlation= SLA  PW   PBX  PBC
                           (   1   4   3   4   0   0   0)

     celldm(1)=  13.019820  celldm(2)=   0.000000  celldm(3)=   0.000000
     celldm(4)=   0.000000  celldm(5)=   0.000000  celldm(6)=   0.000000

     crystal axes: (cart. coord. in units of alat)
               a(1) = (   1.000000   0.000000   0.000000 )  
               a(2) = (   0.070263   0.997528   0.000000 )  
               a(3) = (   0.166183   0.154889   0.735856 )  

     reciprocal axes: (cart. coord. in units 2 pi/alat)
               b(1) = (  1.000000 -0.070437 -0.211010 )  
               b(2) = (  0.000000  1.002478 -0.211010 )  
               b(3) = (  0.000000  0.000000  1.358961 )  


     PseudoPot. # 1 for Mg read from file:
     /home/pragov/projects/rrg-bengioy-ad/pragov/crystal_structure_design/SSSP/Mg.pbe-n-kjpaw_psl.0.3.0.UPF
     MD5 check sum: 24ecedc7f3e3cbe212e682f4413594e4
     Pseudo is Projector augmented-wave + core cor, Zval =  2.0
     Generated using "atomic" code by A. Dal Corso  v.5.0.99 svn rev. 10869
     Shape of augmentation charge: PSQ
     Using radial grid of 1129 points,  4 beta functions with: 
                l(1) =   0
                l(2) =   0
                l(3) =   1
                l(4) =   1
     Q(r) pseudized with 0 coefficients 


     PseudoPot. # 2 for Cu read from file:
     /home/pragov/projects/rrg-bengioy-ad/pragov/crystal_structure_design/SSSP/Cu_pbe_v1.2.uspp.F.UPF
     MD5 check sum: 6e991ff952a84172a2a52a1c1e996048
     Pseudo is Ultrasoft + core correction, Zval = 19.0
     Generated by new atomic code, or converted to UPF format
     Using radial grid of  867 points,  6 beta functions with: 
                l(1) =   0
                l(2) =   0
                l(3) =   1
                l(4) =   1
                l(5) =   2
                l(6) =   2
     Q(r) pseudized with  8 coefficients,  rinner =    1.150   1.150   1.150
                                                       1.150   1.150

     PseudoPot. # 3 for Ge read from file:
     /home/pragov/projects/rrg-bengioy-ad/pragov/crystal_structure_design/SSSP/ge_pbe_v1.4.uspp.F.UPF
     MD5 check sum: 9c9eaa91e581c3f09632fb3098b2c6b2
     Pseudo is Ultrasoft + core correction, Zval = 14.0
     Generated by new atomic code, or converted to UPF format
     Using radial grid of  873 points,  6 beta functions with: 
                l(1) =   0
                l(2) =   0
                l(3) =   1
                l(4) =   1
                l(5) =   2
                l(6) =   2
     Q(r) pseudized with  8 coefficients,  rinner =    1.400   1.400   1.400
                                                       1.400   1.400

     PseudoPot. # 4 for O  read from file:
     /home/pragov/projects/rrg-bengioy-ad/pragov/crystal_structure_design/SSSP/O.pbe-n-kjpaw_psl.0.1.UPF
     MD5 check sum: 0234752ac141de4415c5fc33072bef88
     Pseudo is Projector augmented-wave + core cor, Zval =  6.0
     Generated using "atomic" code by A. Dal Corso  v.5.0.99 svn rev. 10869
     Shape of augmentation charge: BESSEL
     Using radial grid of 1095 points,  4 beta functions with: 
                l(1) =   0
                l(2) =   0
                l(3) =   1
                l(4) =   1
     Q(r) pseudized with 0 coefficients 


     atomic species   valence    mass     pseudopotential
        Mg             2.00    24.30500     Mg( 1.00)
        Cu            19.00    63.54600     Cu( 1.00)
        Ge            14.00    72.63000     Ge( 1.00)
        O              6.00    15.99900     O ( 1.00)

      2 Sym. Ops., with inversion, found


                                    s                        frac. trans.

      isym =  1     identity                                     

 cryst.   s( 1) = (     1          0          0      )
                  (     0          1          0      )
                  (     0          0          1      )

 cart.    s( 1) = (  1.0000000 -0.0000000 -0.0000000 )
                  (  0.0000000  1.0000000 -0.0000000 )
                  (  0.0000000  0.0000000  1.0000000 )


      isym =  2     inversion                                    

 cryst.   s( 2) = (    -1          0          0      )
                  (     0         -1          0      )
                  (     0          0         -1      )

 cart.    s( 2) = ( -1.0000000  0.0000000  0.0000000 )
                  (  0.0000000 -1.0000000  0.0000000 )
                  (  0.0000000  0.0000000 -1.0000000 )


   Cartesian axes

     site n.     atom                  positions (alat units)
         1           Mg  tau(   1) = (   0.8955991   0.3619049   0.5518920  )
         2           Mg  tau(   2) = (   0.3408467   0.7905126   0.1839640  )
         3           Cu  tau(   3) = (   0.2943327   1.0070125   0.5518920  )
         4           Cu  tau(   4) = (   0.9421131   0.1454049   0.1839640  )
         5           Ge  tau(   5) = (   0.3596122   0.5066555   0.5708499  )
         6           Ge  tau(   6) = (   0.7888663   0.9067377   0.5329342  )
         7           Ge  tau(   7) = (   0.8768336   0.6457619   0.1650062  )
         8           Ge  tau(   8) = (   0.4475795   0.2456798   0.2029219  )
         9           O   tau(   9) = (   0.5259274   0.3813838   0.4115157  )
        10           O   tau(  10) = (   0.9021426   0.7320316   0.6922683  )
        11           O   tau(  11) = (   0.7105184   0.7710336   0.3243403  )
        12           O   tau(  12) = (   0.3343032   0.4203859   0.0435877  )
        13           O   tau(  13) = (   0.6494720   0.1523970   0.0863733  )
        14           O   tau(  14) = (   0.9557002   0.4378140   0.2815547  )
        15           O   tau(  15) = (   0.5869738   1.0000204   0.6494827  )
        16           O   tau(  16) = (   0.2807456   0.7146034   0.4543013  )
        17           O   tau(  17) = (   0.1770340   0.3403886   0.6475342  )
        18           O   tau(  18) = (   0.9675509   1.0771823   0.4562499  )
        19           O   tau(  19) = (   1.0594118   0.8120289   0.0883219  )
        20           O   tau(  20) = (   0.2688949   0.0752352   0.2796062  )

   Crystallographic axes

     site n.     atom                  positions (cryst. coord.)
         1           Mg  tau(   1) = (  0.7536530  0.2463470  0.7500000  )
         2           Mg  tau(   2) = (  0.2463470  0.7536530  0.2500000  )
         3           Cu  tau(   3) = (  0.1069470  0.8930530  0.7500000  )
         4           Cu  tau(   4) = (  0.8930530  0.1069470  0.2500000  )
         5           Ge  tau(   5) = (  0.2034700  0.3874560  0.7757630  )
         6           Ge  tau(   6) = (  0.6125440  0.7965300  0.7242370  )
         7           Ge  tau(   7) = (  0.7965300  0.6125440  0.2242370  )
         8           Ge  tau(   8) = (  0.3874560  0.2034700  0.2757630  )
         9           O   tau(   9) = (  0.4122300  0.2954950  0.5592340  )
        10           O   tau(  10) = (  0.7045050  0.5877700  0.9407660  )
        11           O   tau(  11) = (  0.5877700  0.7045050  0.4407660  )
        12           O   tau(  12) = (  0.2954950  0.4122300  0.0592340  )
        13           O   tau(  13) = (  0.6205120  0.1345490  0.1173780  )
        14           O   tau(  14) = (  0.8654510  0.3794880  0.3826220  )
        15           O   tau(  15) = (  0.3794880  0.8654510  0.8826220  )
        16           O   tau(  16) = (  0.1345490  0.6205120  0.6173780  )
        17           O   tau(  17) = (  0.0164220  0.2045960  0.8799740  )
        18           O   tau(  18) = (  0.7954040  0.9835780  0.6200260  )
        19           O   tau(  19) = (  0.9835780  0.7954040  0.1200260  )
        20           O   tau(  20) = (  0.2045960  0.0164220  0.3799740  )

     number of k points=     1  Methfessel-Paxton smearing, width (Ry)=  0.0010
                       cart. coord. in units 2pi/alat
        k(    1) = (   0.0000000   0.0000000   0.0000000), wk =   2.0000000

                       cryst. coord.
        k(    1) = (   0.0000000   0.0000000   0.0000000), wk =   2.0000000

     Dense  grid:    50862 G-vectors     FFT dimensions: (  72,  72,  50)

     Smooth grid:    18023 G-vectors     FFT dimensions: (  45,  45,  36)

     Dynamical RAM for                 wfc:       3.50 MB

     Dynamical RAM for     wfc (w. buffer):       3.50 MB

     Dynamical RAM for           str. fact:       3.10 MB

     Dynamical RAM for           local pot:       0.00 MB

     Dynamical RAM for          nlocal pot:       7.55 MB

     Dynamical RAM for                qrad:       4.98 MB

     Dynamical RAM for          rho,v,vnew:       8.26 MB

     Dynamical RAM for               rhoin:       2.75 MB

     Dynamical RAM for            rho*nmix:      12.42 MB

     Dynamical RAM for           G-vectors:       3.05 MB

     Dynamical RAM for          h,s,v(r/c):       0.95 MB

     Dynamical RAM for          <psi|beta>:       0.17 MB

     Dynamical RAM for                 psi:       7.00 MB

     Dynamical RAM for                hpsi:       7.00 MB

     Dynamical RAM for                spsi:       7.00 MB

     Dynamical RAM for      wfcinit/wfcrot:       8.41 MB

     Dynamical RAM for           addusdens:     153.67 MB

     Dynamical RAM for          addusforce:     171.18 MB

     Dynamical RAM for         addusstress:     155.99 MB

     Estimated static dynamical RAM per process >      46.96 MB

     Estimated max dynamical RAM per process >     230.55 MB

     Check: negative core charge=   -0.000010

     Initial potential from superposition of free atoms

     starting charge     167.9946, renormalised to     170.0000
     Starting wfcs are  118 randomized atomic wfcs
     Checking if some PAW data can be deallocated... 

     total cpu time spent up to now is        5.6 secs

     Self-consistent Calculation

     iteration #  1     ecut=    30.00 Ry     beta= 0.70
     Davidson diagonalization with overlap

---- Real-time Memory Report at c_bands before calling an iterative solver
           394 MiB given to the printing process from OS
             0 MiB allocation reported by mallinfo(arena+hblkhd)
        110328 MiB available memory on the node where the printing process lives
------------------
     ethr =  1.00E-02,  avg # of iterations =  2.0

     total cpu time spent up to now is        7.4 secs

     total energy              =   -2223.69800713 Ry
     estimated scf accuracy    <       8.92463906 Ry

     iteration #  2     ecut=    30.00 Ry     beta= 0.70
     Davidson diagonalization with overlap

---- Real-time Memory Report at c_bands before calling an iterative solver
           441 MiB given to the printing process from OS
             0 MiB allocation reported by mallinfo(arena+hblkhd)
        110265 MiB available memory on the node where the printing process lives
------------------
     ethr =  5.25E-03,  avg # of iterations =  6.0

     total cpu time spent up to now is        9.5 secs

     total energy              =   -2205.05561979 Ry
     estimated scf accuracy    <     233.85359956 Ry

     iteration #  3     ecut=    30.00 Ry     beta= 0.70
     Davidson diagonalization with overlap

---- Real-time Memory Report at c_bands before calling an iterative solver
           484 MiB given to the printing process from OS
             0 MiB allocation reported by mallinfo(arena+hblkhd)
        110225 MiB available memory on the node where the printing process lives
------------------
     ethr =  5.25E-03,  avg # of iterations =  5.0

     total cpu time spent up to now is       11.7 secs

     total energy              =   -2228.50954436 Ry
     estimated scf accuracy    <       8.37245779 Ry

     iteration #  4     ecut=    30.00 Ry     beta= 0.70
     Davidson diagonalization with overlap

---- Real-time Memory Report at c_bands before calling an iterative solver
           510 MiB given to the printing process from OS
             0 MiB allocation reported by mallinfo(arena+hblkhd)
        110214 MiB available memory on the node where the printing process lives
------------------
     ethr =  4.92E-03,  avg # of iterations =  2.0

     total cpu time spent up to now is       13.3 secs

     total energy              =   -2228.90228239 Ry
     estimated scf accuracy    <       4.31453619 Ry

     iteration #  5     ecut=    30.00 Ry     beta= 0.70
     Davidson diagonalization with overlap

---- Real-time Memory Report at c_bands before calling an iterative solver
           515 MiB given to the printing process from OS
             0 MiB allocation reported by mallinfo(arena+hblkhd)
        110212 MiB available memory on the node where the printing process lives
------------------
     ethr =  2.54E-03,  avg # of iterations =  1.0

     total cpu time spent up to now is       14.9 secs

     total energy              =   -2229.15492519 Ry
     estimated scf accuracy    <       1.05768088 Ry

     iteration #  6     ecut=    30.00 Ry     beta= 0.70
     Davidson diagonalization with overlap

---- Real-time Memory Report at c_bands before calling an iterative solver
           516 MiB given to the printing process from OS
             0 MiB allocation reported by mallinfo(arena+hblkhd)
        110973 MiB available memory on the node where the printing process lives
------------------
     ethr =  6.22E-04,  avg # of iterations =  1.0

     total cpu time spent up to now is       16.4 secs

     total energy              =   -2229.08062118 Ry
     estimated scf accuracy    <       0.67716667 Ry

     iteration #  7     ecut=    30.00 Ry     beta= 0.70
     Davidson diagonalization with overlap

---- Real-time Memory Report at c_bands before calling an iterative solver
           516 MiB given to the printing process from OS
             0 MiB allocation reported by mallinfo(arena+hblkhd)
        110571 MiB available memory on the node where the printing process lives
------------------
     ethr =  3.98E-04,  avg # of iterations =  1.0

     total cpu time spent up to now is       17.8 secs

     total energy              =   -2229.02000307 Ry
     estimated scf accuracy    <       0.35565642 Ry

     iteration #  8     ecut=    30.00 Ry     beta= 0.70
     Davidson diagonalization with overlap

---- Real-time Memory Report at c_bands before calling an iterative solver
           522 MiB given to the printing process from OS
             0 MiB allocation reported by mallinfo(arena+hblkhd)
        110239 MiB available memory on the node where the printing process lives
------------------
     ethr =  2.09E-04,  avg # of iterations =  2.0

     total cpu time spent up to now is       19.3 secs

     total energy              =   -2229.01321610 Ry
     estimated scf accuracy    <       0.14191891 Ry

     iteration #  9     ecut=    30.00 Ry     beta= 0.70
     Davidson diagonalization with overlap

---- Real-time Memory Report at c_bands before calling an iterative solver
           524 MiB given to the printing process from OS
             0 MiB allocation reported by mallinfo(arena+hblkhd)
        110207 MiB available memory on the node where the printing process lives
------------------
     ethr =  8.35E-05,  avg # of iterations =  9.0

     total cpu time spent up to now is       21.0 secs

     total energy              =   -2229.00519829 Ry
     estimated scf accuracy    <       0.47768608 Ry

     iteration # 10     ecut=    30.00 Ry     beta= 0.70
     Davidson diagonalization with overlap

---- Real-time Memory Report at c_bands before calling an iterative solver
           527 MiB given to the printing process from OS
             0 MiB allocation reported by mallinfo(arena+hblkhd)
        110205 MiB available memory on the node where the printing process lives
------------------
     ethr =  8.35E-05,  avg # of iterations =  1.0

     total cpu time spent up to now is       22.4 secs

     total energy              =   -2229.01672454 Ry
     estimated scf accuracy    <       0.02149330 Ry

     iteration # 11     ecut=    30.00 Ry     beta= 0.70
     Davidson diagonalization with overlap

---- Real-time Memory Report at c_bands before calling an iterative solver
           527 MiB given to the printing process from OS
             0 MiB allocation reported by mallinfo(arena+hblkhd)
        110206 MiB available memory on the node where the printing process lives
------------------
     ethr =  1.26E-05,  avg # of iterations =  3.0

     total cpu time spent up to now is       24.0 secs

     total energy              =   -2229.01818841 Ry
     estimated scf accuracy    <       0.00491051 Ry

     iteration # 12     ecut=    30.00 Ry     beta= 0.70
     Davidson diagonalization with overlap

---- Real-time Memory Report at c_bands before calling an iterative solver
           527 MiB given to the printing process from OS
             0 MiB allocation reported by mallinfo(arena+hblkhd)
        110209 MiB available memory on the node where the printing process lives
------------------
     ethr =  2.89E-06,  avg # of iterations = 10.0

     total cpu time spent up to now is       25.7 secs

     total energy              =   -2229.01874908 Ry
     estimated scf accuracy    <       0.00057435 Ry

     iteration # 13     ecut=    30.00 Ry     beta= 0.70
     Davidson diagonalization with overlap

---- Real-time Memory Report at c_bands before calling an iterative solver
           527 MiB given to the printing process from OS
             0 MiB allocation reported by mallinfo(arena+hblkhd)
        110212 MiB available memory on the node where the printing process lives
------------------
     ethr =  3.38E-07,  avg # of iterations =  6.0

     total cpu time spent up to now is       27.5 secs

     total energy              =   -2229.01895862 Ry
     estimated scf accuracy    <       0.00029287 Ry

     iteration # 14     ecut=    30.00 Ry     beta= 0.70
     Davidson diagonalization with overlap

---- Real-time Memory Report at c_bands before calling an iterative solver
           527 MiB given to the printing process from OS
             0 MiB allocation reported by mallinfo(arena+hblkhd)
        110212 MiB available memory on the node where the printing process lives
------------------
     ethr =  1.72E-07,  avg # of iterations =  2.0

     total cpu time spent up to now is       29.1 secs

     total energy              =   -2229.01899880 Ry
     estimated scf accuracy    <       0.00017660 Ry

     iteration # 15     ecut=    30.00 Ry     beta= 0.70
     Davidson diagonalization with overlap

---- Real-time Memory Report at c_bands before calling an iterative solver
           527 MiB given to the printing process from OS
             0 MiB allocation reported by mallinfo(arena+hblkhd)
        110222 MiB available memory on the node where the printing process lives
------------------
     ethr =  1.04E-07,  avg # of iterations =  2.0

     total cpu time spent up to now is       30.6 secs

     total energy              =   -2229.01902908 Ry
     estimated scf accuracy    <       0.00001447 Ry

     iteration # 16     ecut=    30.00 Ry     beta= 0.70
     Davidson diagonalization with overlap

---- Real-time Memory Report at c_bands before calling an iterative solver
           527 MiB given to the printing process from OS
             0 MiB allocation reported by mallinfo(arena+hblkhd)
        110222 MiB available memory on the node where the printing process lives
------------------
     ethr =  8.51E-09,  avg # of iterations =  2.0

     total cpu time spent up to now is       32.1 secs

     End of self-consistent calculation

          k = 0.0000 0.0000 0.0000 (  2252 PWs)   bands (ev):

  -104.7383-104.7379 -62.6593 -62.6585 -61.8643 -61.8638 -61.8194 -61.8187
   -17.8729 -17.8699 -17.8137 -17.8128 -17.7525 -17.7503 -17.7420 -17.7406
   -17.6973 -17.6969 -17.6427 -17.6426 -17.5354 -17.5351 -17.5201 -17.5200
   -17.5169 -17.5164 -17.4992 -17.4977 -13.1564 -12.7811 -11.5929 -11.4985
   -11.4472 -11.2430 -11.1594 -11.1147 -10.9292 -10.7809 -10.5723 -10.5447
    -2.2330  -2.1945  -0.9589  -0.2230   0.8686   1.1240   1.2270   1.3537
     1.4409   1.7724   1.8505   1.8845   2.4544   2.5242   2.5693   2.6340
     2.9713   3.2946   3.4523   3.5069   3.7054   3.8499   3.9358   3.9521
     4.0461   4.0587   4.1897   4.3548   4.4433   4.6543   4.8260   4.9112
     5.0116   5.0553   5.0903   5.2912   5.4853   5.6583   5.8149   5.9141
     6.1058   6.1105   6.5976   6.7814   6.8632   7.2452   8.4915  10.6938
    12.4261  13.0439  13.0449  13.2634  13.5916  13.9161  14.0679  14.2135
    14.3160  14.3539  14.8564  15.0356  15.4847  15.5602

     occupation numbers 
     1.0000   1.0000   1.0000   1.0000   1.0000   1.0000   1.0000   1.0000
     1.0000   1.0000   1.0000   1.0000   1.0000   1.0000   1.0000   1.0000
     1.0000   1.0000   1.0000   1.0000   1.0000   1.0000   1.0000   1.0000
     1.0000   1.0000   1.0000   1.0000   1.0000   1.0000   1.0000   1.0000
     1.0000   1.0000   1.0000   1.0000   1.0000   1.0000   1.0000   1.0000
     1.0000   1.0000   1.0000   1.0000   1.0000   1.0000   1.0000   1.0000
     1.0000   1.0000   1.0000   1.0000   1.0000   1.0000   1.0000   1.0000
     1.0000   1.0000   1.0000   1.0000   1.0000   1.0000   1.0000   1.0000
     1.0000   1.0000   1.0000   1.0000   1.0000   1.0000   1.0000   1.0000
     1.0000   1.0000   1.0000   1.0000   1.0000   1.0000   1.0000   1.0000
     1.0000   1.0000   1.0000   1.0000   1.0000  -0.0000  -0.0000  -0.0000
    -0.0000  -0.0000  -0.0000  -0.0000  -0.0000  -0.0000  -0.0000  -0.0000
    -0.0000  -0.0000  -0.0000  -0.0000  -0.0000  -0.0000

     the Fermi energy is     6.9831 ev

!    total energy              =   -2229.01903115 Ry
     estimated scf accuracy    <       0.00000091 Ry
     smearing contrib. (-TS)   =       0.00000000 Ry
     internal energy E=F+TS    =   -2229.01903115 Ry

     The total energy is F=E-TS. E is the sum of the following terms:
     one-electron contribution =   -1538.41306370 Ry
     hartree contribution      =     884.71418996 Ry
     xc contribution           =    -404.19616873 Ry
     ewald contribution        =    -994.32483870 Ry
     one-center paw contrib.   =    -176.79914997 Ry
      -> PAW hartree energy AE =     361.61533743 Ry
      -> PAW hartree energy PS =    -360.33820783 Ry
      -> PAW xc energy AE      =    -271.92233766 Ry
      -> PAW xc energy PS      =      93.84605809 Ry
      -> total E_H with PAW    =     885.99131956 Ry
      -> total E_XC with PAW   =    -582.27244830 Ry

     convergence has been achieved in  16 iterations

     Forces acting on atoms (cartesian axes, Ry/au):

     atom    1 type  1   force =    -0.00294236    0.00315610   -0.00000224
     atom    2 type  1   force =     0.00294236   -0.00315610    0.00000224
     atom    3 type  2   force =     0.00164166   -0.00208316    0.00035808
     atom    4 type  2   force =    -0.00164166    0.00208316   -0.00035808
     atom    5 type  3   force =     0.00543702    0.00697318    0.00970614
     atom    6 type  3   force =    -0.00719171   -0.00519514   -0.00968776
     atom    7 type  3   force =    -0.00543702   -0.00697318   -0.00970614
     atom    8 type  3   force =     0.00719171    0.00519514    0.00968776
     atom    9 type  4   force =     0.01545091   -0.02026610   -0.00392235
     atom   10 type  4   force =     0.01911192   -0.01680559    0.00392850
     atom   11 type  4   force =    -0.01545091    0.02026610    0.00392235
     atom   12 type  4   force =    -0.01911192    0.01680559   -0.00392850
     atom   13 type  4   force =     0.00142968   -0.00090801   -0.00120537
     atom   14 type  4   force =     0.00078096   -0.00150352    0.00121144
     atom   15 type  4   force =    -0.00142968    0.00090801    0.00120537
     atom   16 type  4   force =    -0.00078096    0.00150352   -0.00121144
     atom   17 type  4   force =     0.00323707   -0.00676573    0.00345821
     atom   18 type  4   force =     0.00652261   -0.00369791   -0.00345240
     atom   19 type  4   force =    -0.00323707    0.00676573   -0.00345821
     atom   20 type  4   force =    -0.00652261    0.00369791    0.00345240
     The non-local contrib.  to forces
     atom    1 type  1   force =    -0.09366221    0.10048424    0.00000400
     atom    2 type  1   force =     0.09366221   -0.10048424   -0.00000400
     atom    3 type  2   force =    -0.19647074    0.21071162    0.00013784
     atom    4 type  2   force =     0.19647074   -0.21071162   -0.00013784
     atom    5 type  3   force =     0.17674877   -0.20428836    0.12498131
     atom    6 type  3   force =     0.19145264   -0.19081007   -0.12498424
     atom    7 type  3   force =    -0.17674877    0.20428836   -0.12498131
     atom    8 type  3   force =    -0.19145264    0.19081007    0.12498424
     atom    9 type  4   force =    -1.31151808   -0.08514128   -0.27106468
     atom   10 type  4   force =     0.17704732    1.30232119    0.27104954
     atom   11 type  4   force =     1.31151808    0.08514128    0.27106468
     atom   12 type  4   force =    -0.17704732   -1.30232119   -0.27104954
     atom   13 type  4   force =    -0.72523188    0.72548404    0.43778658
     atom   14 type  4   force =    -0.67279376    0.77440647   -0.43777478
     atom   15 type  4   force =     0.72523188   -0.72548404   -0.43778658
     atom   16 type  4   force =     0.67279376   -0.77440647    0.43777478
     atom   17 type  4   force =     0.49818199    0.80999107    0.02210844
     atom   18 type  4   force =    -0.84301260   -0.44000720   -0.02211957
     atom   19 type  4   force =    -0.49818199   -0.80999107   -0.02210844
     atom   20 type  4   force =     0.84301260    0.44000720    0.02211957
     The ionic contribution  to forces
     atom    1 type  1   force =    -1.84453301    1.97902688   -0.00000000
     atom    2 type  1   force =     1.84453301   -1.97902688   -0.00000000
     atom    3 type  2   force =     5.64119578   -6.05252280   -0.00000000
     atom    4 type  2   force =    -5.64119578    6.05252280   -0.00000000
     atom    5 type  3   force =     3.86659358    5.04547807   -4.76383735
     atom    6 type  3   force =    -5.30468715   -3.50252610    4.76383735
     atom    7 type  3   force =    -3.86659358   -5.04547807    4.76383735
     atom    8 type  3   force =     5.30468715    3.50252610   -4.76383735
     atom    9 type  4   force =    11.30027668    3.47943445    1.67226030
     atom   10 type  4   force =    -4.26482798  -11.02787194   -1.67226030
     atom   11 type  4   force =   -11.30027668   -3.47943445   -1.67226030
     atom   12 type  4   force =     4.26482798   11.02787194    1.67226030
     atom   13 type  4   force =    -0.95130106   -2.45541405   -8.61470372
     atom   14 type  4   force =     2.51618688    0.77642480    8.61470372
     atom   15 type  4   force =     0.95130106    2.45541405    8.61470372
     atom   16 type  4   force =    -2.51618688   -0.77642480   -8.61470372
     atom   17 type  4   force =    -5.73349568    2.28667465   -6.57702278
     atom   18 type  4   force =    -1.87816968    5.87999425    6.57702278
     atom   19 type  4   force =     5.73349568   -2.28667465    6.57702278
     atom   20 type  4   force =     1.87816968   -5.87999425   -6.57702278
     The local contribution  to forces
     atom    1 type  1   force =     1.92187891   -2.06201987   -0.00005620
     atom    2 type  1   force =    -1.92186825    2.06205153   -0.00003822
     atom    3 type  2   force =    -5.44312833    5.84087684   -0.00032654
     atom    4 type  2   force =     5.44379996   -5.84050843    0.00041477
     atom    5 type  3   force =    -4.03178177   -4.84174560    4.65269465
     atom    6 type  3   force =     5.11247956    3.68212494   -4.65253924
     atom    7 type  3   force =     4.03198800    4.84134016   -4.65242031
     atom    8 type  3   force =    -5.11293862   -3.68193680    4.65274319
     atom    9 type  4   force =    -9.98726256   -3.41541809   -1.40802160
     atom   10 type  4   force =     4.10860742    9.72256138    1.40803824
     atom   11 type  4   force =     9.98720339    3.41543561    1.40795080
     atom   12 type  4   force =    -4.10860792   -9.72266980   -1.40806973
     atom   13 type  4   force =     1.67054117    1.73640762    8.18069541
     atom   14 type  4   force =    -1.84969079   -1.54478888   -8.18082344
     atom   15 type  4   force =    -1.67068346   -1.73653797   -8.18082214
     atom   16 type  4   force =     1.84954481    1.54444264    8.18050592
     atom   17 type  4   force =     5.24404838   -3.09486006    6.55901064
     atom   18 type  4   force =     2.71872325   -5.44844407   -6.55909765
     atom   19 type  4   force =    -5.24404776    3.09501238   -6.55861902
     atom   20 type  4   force =    -2.71871805    5.44854735    6.55883527
     The core correction contribution to forces
     atom    1 type  1   force =     0.01338308   -0.01435925    0.00000036
     atom    2 type  1   force =    -0.01338417    0.01435836    0.00000128
     atom    3 type  2   force =     0.00027845   -0.00029889    0.00000012
     atom    4 type  2   force =    -0.00027868    0.00029933    0.00000006
     atom    5 type  3   force =    -0.00574556    0.00677975   -0.00393662
     atom    6 type  3   force =    -0.00635537    0.00620576    0.00393758
     atom    7 type  3   force =     0.00574301   -0.00677876    0.00393444
     atom    8 type  3   force =     0.00636438   -0.00620711   -0.00394101
     atom    9 type  4   force =     0.01379649    0.00089732    0.00283833
     atom   10 type  4   force =    -0.00186350   -0.01370048   -0.00283901
     atom   11 type  4   force =    -0.01379695   -0.00089672   -0.00283929
     atom   12 type  4   force =     0.00186431    0.01369918    0.00283785
     atom   13 type  4   force =     0.00709088   -0.00738405   -0.00499894
     atom   14 type  4   force =     0.00686610   -0.00759414    0.00499577
     atom   15 type  4   force =    -0.00709175    0.00738197    0.00499597
     atom   16 type  4   force =    -0.00686821    0.00759125   -0.00499909
     atom   17 type  4   force =    -0.00532096   -0.00847497   -0.00060998
     atom   18 type  4   force =     0.00882909    0.00471162    0.00061066
     atom   19 type  4   force =     0.00531940    0.00847631    0.00061269
     atom   20 type  4   force =    -0.00882822   -0.00471098   -0.00061141
     The Hubbard contrib.    to forces
     atom    1 type  1   force =     0.00000000    0.00000000    0.00000000
     atom    2 type  1   force =     0.00000000    0.00000000    0.00000000
     atom    3 type  2   force =     0.00000000    0.00000000    0.00000000
     atom    4 type  2   force =     0.00000000    0.00000000    0.00000000
     atom    5 type  3   force =     0.00000000    0.00000000    0.00000000
     atom    6 type  3   force =     0.00000000    0.00000000    0.00000000
     atom    7 type  3   force =     0.00000000    0.00000000    0.00000000
     atom    8 type  3   force =     0.00000000    0.00000000    0.00000000
     atom    9 type  4   force =     0.00000000    0.00000000    0.00000000
     atom   10 type  4   force =     0.00000000    0.00000000    0.00000000
     atom   11 type  4   force =     0.00000000    0.00000000    0.00000000
     atom   12 type  4   force =     0.00000000    0.00000000    0.00000000
     atom   13 type  4   force =     0.00000000    0.00000000    0.00000000
     atom   14 type  4   force =     0.00000000    0.00000000    0.00000000
     atom   15 type  4   force =     0.00000000    0.00000000    0.00000000
     atom   16 type  4   force =     0.00000000    0.00000000    0.00000000
     atom   17 type  4   force =     0.00000000    0.00000000    0.00000000
     atom   18 type  4   force =     0.00000000    0.00000000    0.00000000
     atom   19 type  4   force =     0.00000000    0.00000000    0.00000000
     atom   20 type  4   force =     0.00000000    0.00000000    0.00000000
     The SCF correction term to forces
     atom    1 type  1   force =    -0.00001037    0.00002562    0.00004198
     atom    2 type  1   force =    -0.00000168   -0.00005334    0.00003558
     atom    3 type  2   force =    -0.00031304   -0.00087692    0.00059647
     atom    4 type  2   force =    -0.00051745    0.00045410   -0.00058527
     atom    5 type  3   force =    -0.00040731    0.00076898   -0.00019926
     atom    6 type  3   force =     0.00000395   -0.00020921    0.00001610
     atom    7 type  3   force =     0.00014501   -0.00032522   -0.00007972
     atom    8 type  3   force =     0.00061677   -0.00001668   -0.00030599
     atom    9 type  4   force =     0.00014720   -0.00002396    0.00003743
     atom   10 type  4   force =     0.00017608   -0.00015519   -0.00009706
     atom   11 type  4   force =    -0.00010993    0.00003493   -0.00002139
     atom   12 type  4   force =    -0.00012153    0.00018600    0.00005552
     atom   13 type  4   force =     0.00031166   -0.00007106   -0.00007589
     atom   14 type  4   force =     0.00013522   -0.00003061    0.00002035
     atom   15 type  4   force =    -0.00020633    0.00006451    0.00002322
     atom   16 type  4   force =    -0.00014173    0.00022206    0.00012085
     atom   17 type  4   force =    -0.00022941   -0.00006564    0.00004380
     atom   18 type  4   force =     0.00016972    0.00005778    0.00012606
     atom   19 type  4   force =     0.00012484   -0.00002645   -0.00029431
     atom   20 type  4   force =    -0.00014143   -0.00014112    0.00012641

     Total force =     0.060724     Total SCF correction =     0.002043


     Computing stress (Cartesian axis) and pressure

          total   stress  (Ry/bohr**3)                   (kbar)     P=     -504.53
  -0.00338076  -0.00003585  -0.00005701         -497.33       -5.27       -8.39
  -0.00003585  -0.00337578  -0.00005314           -5.27     -496.59       -7.82
  -0.00005701  -0.00005314  -0.00353255           -8.39       -7.82     -519.66

     kinetic stress (kbar)  21514.39      0.32     63.28
                                0.32  21514.36     58.99
                               63.28     58.99  21089.64

     local   stress (kbar) -12684.02  -2485.57   3454.61
                            -2485.57 -12333.92   3219.79
                             3454.61   3219.79 -25565.38

     nonloc. stress (kbar)   6921.15     -2.30     22.00
                               -2.30   6921.54     20.51
                               22.00     20.51   6801.70

     hartree stress (kbar)  25154.03   1201.49  -1438.41
                             1201.49  24984.72  -1340.62
                            -1438.41  -1340.62  30194.91

     exc-cor stress (kbar)   3238.38      0.38     -2.34
                                0.38   3238.32     -2.18
                               -2.34     -2.18   3245.53

     corecor stress (kbar) -11818.78     -0.57      2.06
                               -0.57 -11818.69      1.92
                                2.06      1.92 -11824.94

     ewald   stress (kbar) -32822.47   1280.97  -2109.59
                             1280.97 -33002.93  -1966.22
                            -2109.59  -1966.22 -24461.11

     hubbard stress (kbar)      0.00      0.00      0.00
                                0.00      0.00      0.00
                                0.00      0.00      0.00

     DFT-D   stress (kbar)      0.00      0.00      0.00
                                0.00      0.00      0.00
                                0.00      0.00      0.00

     XDM     stress (kbar)      0.00      0.00      0.00
                                0.00      0.00      0.00
                                0.00      0.00      0.00

     dft-nl  stress (kbar)      0.00      0.00      0.00
                                0.00      0.00      0.00
                                0.00      0.00      0.00

     TS-vdW  stress (kbar)      0.00      0.00      0.00
                                0.00      0.00      0.00
                                0.00      0.00      0.00


                                0.00      0.00      0.00
                                0.00      0.00      0.00


                                0.00      0.00      0.00


     Writing all to output data dir new_calculations/myprefix.save/
 
     init_run     :    114.42s CPU      5.37s WALL (       1 calls)
     electrons    :    807.38s CPU     26.47s WALL (       1 calls)
     forces       :      8.23s CPU      0.27s WALL (       1 calls)
     stress       :     33.83s CPU      1.11s WALL (       1 calls)

     Called by init_run:
     wfcinit      :     24.33s CPU      0.79s WALL (       1 calls)
     wfcinit:atom :      0.12s CPU      0.00s WALL (       1 calls)
     wfcinit:wfcr :     23.76s CPU      0.76s WALL (       1 calls)
     potinit      :     32.62s CPU      1.07s WALL (       1 calls)
     hinit0       :     45.28s CPU      3.08s WALL (       1 calls)

     Called by electrons:
     c_bands      :    434.23s CPU     13.79s WALL (      16 calls)
     sum_band     :    146.43s CPU      5.08s WALL (      16 calls)
     v_of_rho     :     15.58s CPU      0.52s WALL (      17 calls)
     v_h          :      1.30s CPU      0.04s WALL (      17 calls)
     v_xc         :     15.89s CPU      0.53s WALL (      19 calls)
     newd         :    144.05s CPU      4.88s WALL (      17 calls)
     PAW_pot      :     71.54s CPU      2.35s WALL (      17 calls)
     mix_rho      :      5.05s CPU      0.17s WALL (      16 calls)

     Called by c_bands:
     init_us_2    :      0.57s CPU      0.02s WALL (      33 calls)
     init_us_2:cp :      0.52s CPU      0.02s WALL (      33 calls)
     regterg      :    431.25s CPU     13.69s WALL (      16 calls)

     Called by sum_band:
     sum_band:wei :      0.03s CPU      0.00s WALL (      16 calls)
     sum_band:loo :     84.02s CPU      2.65s WALL (      16 calls)
     sum_band:buf :      0.01s CPU      0.00s WALL (      16 calls)
     sum_band:ini :      0.22s CPU      0.01s WALL (      16 calls)
     sum_band:cal :      0.27s CPU      0.01s WALL (      16 calls)
     sum_band:bec :      0.12s CPU      0.00s WALL (      16 calls)
     addusdens    :     59.80s CPU      2.34s WALL (      16 calls)
     addusd:skk   :      0.34s CPU      0.02s WALL (      64 calls)
     addusd:dgemm :      3.50s CPU      0.46s WALL (      64 calls)
     addusd:qvan2 :     38.62s CPU      1.26s WALL (      64 calls)

     Called by *egterg:
     rdiaghg      :     21.90s CPU      0.73s WALL (      71 calls)
     regterg:over :      0.66s CPU      0.02s WALL (      55 calls)
     regterg:upda :      1.10s CPU      0.04s WALL (      55 calls)
     regterg:last :      2.75s CPU      0.10s WALL (      31 calls)
     h_psi        :    422.65s CPU     13.36s WALL (      72 calls)
     s_psi        :      0.36s CPU      0.01s WALL (      72 calls)
     g_psi        :      0.08s CPU      0.00s WALL (      55 calls)

     Called by h_psi:
     h_psi:calbec :      0.86s CPU      0.03s WALL (      72 calls)
     vloc_psi     :    420.66s CPU     13.29s WALL (      72 calls)
     add_vuspsi   :      0.55s CPU      0.02s WALL (      72 calls)

     General routines
     calbec       :      1.08s CPU      0.04s WALL (      93 calls)
     fft          :     28.42s CPU      1.08s WALL (     205 calls)
     ffts         :     25.21s CPU      0.83s WALL (      33 calls)
     fftw         :    454.40s CPU     14.28s WALL (    4864 calls)
     interpolate  :     26.51s CPU      0.87s WALL (      17 calls)
 
     Parallel routines

     PAW routines
     PAW_pot      :     71.54s CPU      2.35s WALL (      17 calls)
     PAW_symme    :      0.07s CPU      0.00s WALL (      33 calls)
 
     PWSCF        :  16m11.47s CPU     37.67s WALL

 
   This run was terminated on:   3:25:21  20May2023            

=------------------------------------------------------------------------------=
   JOB DONE.
=------------------------------------------------------------------------------=
